METHYL-ACCEPTING CHEMOTAXIS PROTEIN II in water
95969
    1LIG      N    1   0.577   5.999   9.457  0.0437  0.7293 -0.0408
    1LIG     H1    2   0.488   5.997   9.403 -0.3590  1.8030  0.5446
    1LIG     H2    3   0.564   6.049   9.547  0.8479  0.3316  0.2993
    1LIG     H3    4   0.652   6.034   9.394  0.8875  0.0294  0.5709
    1LIG     CA    5   0.614   5.871   9.518 -0.4602 -1.0591  0.3343
    1LIG     HA    6   0.615   5.795   9.441  2.8423 -0.4357 -0.4244
    1LIG     CB    7   0.760   5.877   9.573  0.0153 -0.1801 -0.5142
    1LIG    HB1    8   0.791   5.782   9.622 -0.3271 -1.2603 -2.3084
    1LIG    HB2    9   0.759   5.963   9.644 -2.5076 -1.4357  1.1628
    1LIG     CG   10   0.857   5.904   9.460  0.4839  0.2094 -0.6550
    1LIG    OD1   11   0.815   5.930   9.342 -0.5392  0.1098 -0.0807
    1LIG    OD2   12   0.978   5.910   9.492  0.2375 -0.2283  0.2360
    1LIG      C   13   0.521   5.825   9.632 -0.4577  0.3862  0.1542
    1LIG    OT1   14   0.432   5.908   9.677  0.5656 -0.5611  0.7405
    1LIG    OT2   15   0.530   5.713   9.685 -0.6298 -0.5498  0.3721
    2LIG      N   16   7.936   2.711   5.237  0.3534 -0.6279 -0.3219
    2LIG     H1   17   7.844   2.663   5.244  0.4065 -0.6575  0.2117
    2LIG     H2   18   7.976   2.683   5.145 -1.8435  0.9604 -1.8568
    2LIG     H3   19   8.001   2.683   5.314 -1.5109  0.4358  1.7388
    2LIG     CA   20   7.923   2.866   5.245  0.4787 -0.0982 -0.5293
    2LIG     HA   21   7.923   2.901   5.347  1.8308  0.9634 -0.8765
    2LIG     CB   22   8.038   2.934   5.166 -0.5669  0.4388 -0.5459
    2LIG    HB1   23   8.022   3.044   5.161  0.7458  0.5750 -2.6797
    2LIG    HB2   24   8.030   2.895   5.063  0.4539 -1.7567  0.1420
    2LIG     CG   25   8.173   2.911   5.226  0.4910  0.6210  0.3905
    2LIG    OD1   26   8.273   2.965   5.169  0.1330 -0.0849  0.4188
    2LIG    OD2   27   8.177   2.855   5.338 -0.2043  0.0717 -0.2633
    2LIG      C   28   7.791   2.913   5.185 -0.0163  0.0683  1.3927
    2LIG    OT1   29   7.708   2.826   5.144  0.1992 -0.4092 -0.1009
    2LIG    OT2   30   7.758   3.035   5.177  0.0593 -0.2527 -0.2290
    3LIG      N   31   0.933   5.391   6.288 -0.3294  0.1005 -0.2702
    3LIG     H1   32   0.928   5.467   6.358 -1.2458  0.8835 -1.1468
    3LIG     H2   33   0.956   5.445   6.202  1.7781  0.2791  0.3595
    3LIG     H3   34   0.838   5.353   6.270 -1.4230  1.6372  1.8436
    3LIG     CA   35   1.043   5.296   6.310  0.1381 -0.0547 -0.4481
    3LIG     HA   36   1.089   5.294   6.213  1.2917  3.6203 -0.1223
    3LIG     CB   37   1.148   5.357   6.409 -0.2188 -0.0631 -0.1449
    3LIG    HB1   38   1.226   5.282   6.438  1.6309  2.1335  0.8742
    3LIG    HB2   39   1.096   5.392   6.500 -1.4348  0.0426 -0.8561
    3LIG     CG   40   1.222   5.469   6.348  0.0808  0.3497 -0.3743
    3LIG    OD1   41   1.316   5.528   6.414 -0.4221  0.1762  0.7027
    3LIG    OD2   42   1.194   5.513   6.234  0.6725 -0.0964 -0.2030
    3LIG      C   43   0.990   5.156   6.362  0.5917 -1.0668  0.0713
    3LIG    OT1   44   0.866   5.129   6.372 -0.7147 -0.1560 -0.0709
    3LIG    OT2   45   1.075   5.074   6.394  0.3925 -0.0474  0.4545
    4LIG      N   46   8.792   7.635   7.188  0.4123 -0.0295 -0.2938
    4LIG     H1   47   8.852   7.625   7.272  0.7139  0.3899 -0.4537
    4LIG     H2   48   8.786   7.736   7.164 -1.3629 -0.3565 -1.4464
    4LIG     H3   49   8.702   7.595   7.222  0.4140 -0.3918 -0.7061
    4LIG     CA   50   8.843   7.555   7.071 -0.2791 -0.0662 -0.5019
    4LIG     HA   51   8.946   7.586   7.054 -0.2038  0.7997  1.3094
    4LIG     CB   52   8.835   7.401   7.103 -0.1751 -0.2868 -0.5934
    4LIG    HB1   53   8.794   7.346   7.015 -1.4317  1.0745 -0.8978
    4LIG    HB2   54   8.749   7.377   7.168 -0.6005 -0.9015 -1.3547
    4LIG     CG   55   8.959   7.336   7.163  0.6490 -0.3712  0.1075
    4LIG    OD1   56   9.037   7.410   7.229  0.4021  0.2897  0.2831
    4LIG    OD2   57   8.969   7.213   7.160  0.2632  0.6603  0.2037
    4LIG      C   58   8.753   7.589   6.954  0.5706  0.0940  0.4823
    4LIG    OT1   59   8.668   7.680   6.953 -0.5339  0.0076 -0.2760
    4LIG    OT2   60   8.783   7.526   6.850  0.2805  0.5662 -0.4606
    5LIG      N   61   8.311   8.500   6.101 -0.7199  0.1085  0.3049
    5LIG     H1   62   8.338   8.439   6.181  1.6723 -1.7781 -1.8001
    5LIG     H2   63   8.353   8.475   6.009 -1.4979  0.1100 -0.0641
    5LIG     H3   64   8.352   8.592   6.127  0.2391  0.3902 -1.9444
    5LIG     CA   65   8.173   8.495   6.085  0.3276 -0.1100 -0.2488
    5LIG     HA   66   8.155   8.396   6.045  0.8819 -0.3094 -0.0146
    5LIG     CB   67   8.104   8.525   6.222 -0.1622  0.0772 -0.7732
    5LIG    HB1   68   7.994   8.524   6.203 -0.5294  1.8814  0.8605
    5LIG    HB2   69   8.144   8.625   6.250  1.2619 -0.6970  0.0591
    5LIG     CG   70   8.140   8.419   6.327  0.2607 -0.3219 -0.9423
    5LIG    OD1   71   8.226   8.336   6.303 -0.7523  0.6608  0.1925
    5LIG    OD2   72   8.078   8.420   6.436  0.3351  0.1589  0.2770
    5LIG      C   73   8.115   8.587   5.976 -0.1758  0.2274 -0.0106
    5LIG    OT1   74   8.193   8.669   5.908  0.4507  0.3425 -0.4955
    5LIG    OT2   75   7.992   8.576   5.952 -0.1956 -0.1875  0.3901
    6LIG      N   76   6.596   1.345   6.879 -0.2863 -0.1566  1.1911
    6LIG     H1   77   6.598   1.429   6.818 -0.2161 -0.9744  0.0234
    6LIG     H2   78   6.560   1.370   6.973 -1.7171  0.3191  0.5490
    6LIG     H3   79   6.693   1.310   6.887 -0.5428 -0.6920  2.1535
    6LIG     CA   80   6.506   1.251   6.817 -0.1290  0.0964 -0.2614
    6LIG     HA   81   6.495   1.171   6.889 -0.4399  0.9217  0.6166
    6LIG     CB   82   6.370   1.311   6.780 -0.5547 -0.3231  0.9813
    6LIG    HB1   83   6.297   1.241   6.734 -1.8398  1.8827 -0.5763
    6LIG    HB2   84   6.378   1.399   6.712 -2.1671 -0.3904  0.6551
    6LIG     CG   85   6.304   1.372   6.900 -0.2790  0.1191  0.4394
    6LIG    OD1   86   6.343   1.334   7.012 -0.1073 -0.1632 -0.3869
    6LIG    OD2   87   6.210   1.453   6.892  0.2549  0.2917  0.2156
    6LIG      C   88   6.557   1.191   6.688 -0.0164  0.0632 -0.3547
    6LIG    OT1   89   6.658   1.240   6.639 -0.0754 -0.0446 -0.5852
    6LIG    OT2   90   6.494   1.103   6.623  0.9931  0.1384 -0.3693
    7LIG      N   91   3.631   7.882   6.967  0.0778 -0.8501  0.0837
    7LIG     H1   92   3.609   7.907   6.869  1.4092  0.7181  0.1506
    7LIG     H2   93   3.563   7.933   7.026  0.4847  2.6414 -2.1843
    7LIG     H3   94   3.729   7.912   6.989 -0.4200  0.8408  0.0870
    7LIG     CA   95   3.624   7.738   7.000 -0.6121 -0.7782  0.3317
    7LIG     HA   96   3.684   7.699   6.919  1.0611  2.1147  0.0249
    7LIG     CB   97   3.696   7.719   7.130 -0.2400 -0.7718 -0.5063
    7LIG    HB1   98   3.687   7.617   7.172  0.4985 -0.3967  0.6244
    7LIG    HB2   99   3.650   7.783   7.208  0.1458  0.5834 -1.3545
    7LIG     CG  100   3.847   7.741   7.119 -1.0060  0.1827  0.1052
    7LIG    OD1  101   3.917   7.731   7.220  0.8472 -0.0189  0.0153
    7LIG    OD2  102   3.893   7.772   7.010  0.1688  1.0306 -0.2142
    7LIG      C  103   3.482   7.678   6.997  0.3200  0.1371 -0.4747
    7LIG    OT1  104   3.380   7.744   6.977  0.2537  0.3446  0.4831
    7LIG    OT2  105   3.477   7.558   7.029  0.8790  0.2026 -0.1222
    8LIG      N  106   1.083   4.293   2.979 -0.5670 -0.5067  0.3494
    8LIG     H1  107   1.057   4.218   2.912 -0.0815 -1.0447  0.7482
    8LIG     H2  108   1.052   4.388   2.948  3.0608  0.4601 -0.8483
    8LIG     H3  109   1.185   4.302   2.999 -0.8641  0.1834  1.6878
    8LIG     CA  110   1.009   4.265   3.100 -0.0659  0.4610  0.0786
    8LIG     HA  111   0.909   4.304   3.098 -0.2106  0.1583  0.9451
    8LIG     CB  112   1.003   4.108   3.125 -0.5294 -0.1166 -0.3279
    8LIG    HB1  113   0.971   4.077   3.227  0.7548  1.1389  0.4954
    8LIG    HB2  114   1.106   4.067   3.127  0.4200  2.1415  1.3852
    8LIG     CG  115   0.914   4.022   3.033 -0.3765 -0.6022  0.2983
    8LIG    OD1  116   0.870   4.076   2.926  0.0240 -0.3119 -0.1581
    8LIG    OD2  117   0.877   3.909   3.076  0.2550 -0.5329  0.7085
    8LIG      C  118   1.064   4.336   3.227 -0.2863  0.1875 -0.2297
    8LIG    OT1  119   1.153   4.419   3.203 -0.2228 -0.2389 -0.1707
    8LIG    OT2  120   1.024   4.311   3.344 -0.3414  0.7559 -0.7492
    9LIG      N  121   0.197   9.562   8.259  0.1083 -0.3063 -0.4959
    9LIG     H1  122   0.192   9.601   8.355 -0.1084  3.0175 -1.7311
    9LIG     H2  123   0.294   9.551   8.221 -0.0367 -0.4484 -0.8287
    9LIG     H3  124   0.153   9.637   8.202  3.6964  1.2567 -1.5056
    9LIG     CA  125   0.132   9.433   8.243 -0.4172 -0.3708  0.1598
    9LIG     HA  126   0.054   9.455   8.171 -0.6148 -0.9638  0.1893
    9LIG     CB  127   0.235   9.337   8.188 -0.4427 -0.1138  0.7192
    9LIG    HB1  128   0.187   9.237   8.192 -1.0863  0.2174  4.5180
    9LIG    HB2  129   0.337   9.349   8.230  2.0605 -0.2690 -4.4254
    9LIG     CG  130   0.255   9.367   8.038  0.7627  0.1936  0.7617
    9LIG    OD1  131   0.186   9.449   7.975  0.0988 -0.2136 -0.5352
    9LIG    OD2  132   0.352   9.307   7.985 -0.3524  0.4711  0.5784
    9LIG      C  133   0.050   9.387   8.364  0.3953 -0.0890  0.4688
    9LIG    OT1  134   0.045   9.453   8.469 -0.2942  0.3409 -0.5885
    9LIG    OT2  135  -0.013   9.273   8.349 -0.2874 -0.0750  0.5203
   10LIG      N  136   4.313   1.994   6.272 -0.0787 -0.3836 -0.0087
   10LIG     H1  137   4.306   2.062   6.350 -0.1001 -0.3307 -0.0565
   10LIG     H2  138   4.394   2.022   6.213  0.2494  0.1546  0.6775
   10LIG     H3  139   4.225   1.990   6.217  0.5104 -0.2130 -0.9771
   10LIG     CA  140   4.339   1.856   6.334 -0.4995 -0.7995 -0.4187
   10LIG     HA  141   4.445   1.841   6.349  0.4314  3.8909 -0.8205
   10LIG     CB  142   4.272   1.842   6.472  0.5005  0.1612 -0.7537
   10LIG    HB1  143   4.321   1.751   6.512 -1.7364 -0.4696  0.7309
   10LIG    HB2  144   4.165   1.813   6.474  0.4942  0.1555 -1.1173
   10LIG     CG  145   4.278   1.961   6.568 -0.1281  0.1845 -1.2364
   10LIG    OD1  146   4.205   1.976   6.670  0.0495 -0.4978  0.0779
   10LIG    OD2  147   4.354   2.054   6.530 -0.2221 -0.0541  0.1941
   10LIG      C  148   4.288   1.745   6.243  0.0519  0.0049 -0.4006
   10LIG    OT1  149   4.228   1.777   6.137 -0.7839  0.2682 -0.1091
   10LIG    OT2  150   4.305   1.624   6.265  0.6185  0.5527 -0.1433
   11LIG      N  151   1.324   2.977   0.311  0.4667  0.2168  0.5199
   11LIG     H1  152   1.339   2.901   0.380  1.6755 -0.0834 -0.0559
   11LIG     H2  153   1.312   3.067   0.361  0.9106  0.0343  0.9592
   11LIG     H3  154   1.235   2.949   0.263 -0.1007  0.4450  1.4116
   11LIG     CA  155   1.439   2.952   0.219 -0.2756 -0.6352 -0.2059
   11LIG     HA  156   1.527   2.978   0.276  0.5450 -1.7156 -0.9495
   11LIG     CB  157   1.450   2.801   0.172  0.1942  0.1472 -0.5376
   11LIG    HB1  158   1.531   2.799   0.095  0.0608  0.4354 -0.6877
   11LIG    HB2  159   1.351   2.775   0.129  0.5426 -0.8390 -0.7769
   11LIG     CG  160   1.490   2.713   0.292 -0.0082 -0.2900 -0.2225
   11LIG    OD1  161   1.475   2.585   0.288  1.0601  0.0338  0.2291
   11LIG    OD2  162   1.534   2.778   0.392  0.1983  0.3710 -0.5891
   11LIG      C  163   1.433   3.051   0.098  0.1638 -0.8020 -0.2395
   11LIG    OT1  164   1.334   3.132   0.082  0.2432 -0.3228  0.0159
   11LIG    OT2  165   1.533   3.053   0.017 -0.6639 -0.1641  0.2544
   12LIG      N  166   3.073   1.168   8.627  0.2004 -0.2910  0.3647
   12LIG     H1  167   3.037   1.261   8.595  0.5263 -1.0681 -2.5266
   12LIG     H2  168   2.987   1.109   8.624  1.5225 -2.2814 -0.3143
   12LIG     H3  169   3.108   1.179   8.724 -0.6942 -0.9935  0.7838
   12LIG     CA  170   3.174   1.107   8.529 -0.2891 -0.0758  0.2039
   12LIG     HA  171   3.214   1.014   8.567  0.6097  0.1351 -0.1997
   12LIG     CB  172   3.095   1.074   8.397  0.4857  0.0836  0.1973
   12LIG    HB1  173   3.162   1.040   8.315  1.4533 -0.0166  1.0091
   12LIG    HB2  174   3.043   1.165   8.360 -0.6850 -1.0701 -1.0984
   12LIG     CG  175   2.996   0.960   8.420 -0.0236 -0.4228  0.0324
   12LIG    OD1  176   2.939   0.933   8.531  0.2391 -0.5995  0.3327
   12LIG    OD2  177   2.949   0.920   8.309  0.1337 -0.0497  0.3967
   12LIG      C  178   3.290   1.213   8.496  0.1952  0.3091  0.4185
   12LIG    OT1  179   3.275   1.338   8.514 -0.1963 -0.2894  0.5440
   12LIG    OT2  180   3.389   1.168   8.439 -0.0296  0.5635 -0.1238
   13LIG      N  181   2.497   1.435   5.583  0.2654  0.0703 -0.1460
   13LIG     H1  182   2.554   1.476   5.660  1.6448  1.1291 -1.6408
   13LIG     H2  183   2.492   1.507   5.508  0.3660 -0.1485 -0.3648
   13LIG     H3  184   2.400   1.413   5.611  0.1174  0.1108 -0.6212
   13LIG     CA  185   2.562   1.307   5.538  0.4058 -0.1393 -0.3142
   13LIG     HA  186   2.600   1.253   5.623  1.4972  0.0232 -0.6869
   13LIG     CB  187   2.474   1.220   5.443 -0.4853  0.4578  0.9937
   13LIG    HB1  188   2.528   1.136   5.395 -0.0765  2.1133 -1.6877
   13LIG    HB2  189   2.431   1.277   5.358 -1.7721 -2.4107 -0.4045
   13LIG     CG  190   2.350   1.162   5.509 -0.8354  0.5060 -0.6665
   13LIG    OD1  191   2.292   1.225   5.603 -0.0973  0.0516 -0.4765
   13LIG    OD2  192   2.318   1.046   5.474  0.1180  0.0969 -0.1187
   13LIG      C  193   2.690   1.356   5.467 -0.0334 -0.0779 -0.5174
   13LIG    OT1  194   2.739   1.471   5.478  0.0866  0.3239  0.0659
   13LIG    OT2  195   2.749   1.265   5.405  0.0715  0.4376  0.1047
   14LIG      N  196   8.706   5.443   6.465 -0.1806  0.2192 -0.6730
   14LIG     H1  197   8.686   5.516   6.394 -0.5566  0.9864  0.2054
   14LIG     H2  198   8.796   5.480   6.504  0.1197  0.3563 -1.4887
   14LIG     H3  199   8.715   5.349   6.422 -0.2569  0.1184 -0.4722
   14LIG     CA  200   8.623   5.430   6.590  0.3833 -0.1721 -0.7353
   14LIG     HA  201   8.523   5.399   6.565 -0.7386 -0.3592  3.3967
   14LIG     CB  202   8.675   5.324   6.682  0.1084  0.2906 -0.4388
   14LIG    HB1  203   8.604   5.326   6.767 -0.3130 -4.0960 -0.4535
   14LIG    HB2  204   8.779   5.349   6.710 -0.2855  2.0083 -0.4108
   14LIG     CG  205   8.670   5.181   6.631 -0.5017  0.5785  0.2319
   14LIG    OD1  206   8.628   5.148   6.517 -0.3651 -0.0884 -0.0051
   14LIG    OD2  207   8.725   5.098   6.707 -0.0764  0.2707  0.5980
   14LIG      C  208   8.618   5.555   6.670  0.0181 -0.9454  0.3284
   14LIG    OT1  209   8.686   5.658   6.634 -0.1993 -0.0518 -0.2148
   14LIG    OT2  210   8.544   5.551   6.772 -0.3969  0.0463 -0.7952
   15LIG      N  211   9.189   2.321   0.007  0.2002 -0.4597  0.4849
   15LIG     H1  212   9.093   2.282   0.003 -0.2591  0.5807  0.9639
   15LIG     H2  213   9.189   2.422   0.032  2.3233 -0.3609  0.3141
   15LIG     H3  214   9.231   2.301  -0.086  2.0215  1.6798  0.7650
   15LIG     CA  215   9.264   2.254   0.122  0.4773  0.4887  0.2543
   15LIG     HA  216   9.361   2.302   0.116  0.6840 -0.0624 -1.3325
   15LIG     CB  217   9.173   2.282   0.242 -0.8731 -0.1899 -0.1063
   15LIG    HB1  218   9.208   2.221   0.328  2.0971  0.6982 -0.5606
   15LIG    HB2  219   9.068   2.246   0.230 -0.3090 -1.5495 -1.2734
   15LIG     CG  220   9.193   2.421   0.287 -0.3095  0.3802 -0.6310
   15LIG    OD1  221   9.203   2.515   0.205 -0.1840  1.3690 -0.0573
   15LIG    OD2  222   9.178   2.433   0.411  0.0474 -0.2115  0.0047
   15LIG      C  223   9.265   2.096   0.104  0.4845  0.2663  0.1674
   15LIG    OT1  224   9.194   2.047   0.020 -0.5159 -0.3329  0.2725
   15LIG    OT2  225   9.336   2.025   0.177  0.8976 -0.3056  0.3091
   16LIG      N  226   8.985   8.792   3.871  0.0310 -0.1288  0.5685
   16LIG     H1  227   8.987   8.699   3.824 -0.7626  1.0368 -1.9217
   16LIG     H2  228   9.013   8.872   3.811 -1.7235 -0.3586 -0.6318
   16LIG     H3  229   9.046   8.790   3.955  0.5671  0.2025  0.1891
   16LIG     CA  230   8.855   8.812   3.925 -0.2478  0.9197 -0.1069
   16LIG     HA  231   8.863   8.885   4.005 -1.1549 -0.1349  0.9820
   16LIG     CB  232   8.755   8.863   3.825  0.1251  0.0229  0.1898
   16LIG    HB1  233   8.648   8.866   3.855 -0.4529  2.5383 -1.7120
   16LIG    HB2  234   8.757   8.805   3.730  0.9134  0.9138 -0.3567
   16LIG     CG  235   8.785   9.003   3.790 -0.0979 -0.6413  0.0222
   16LIG    OD1  236   8.698   9.063   3.728  0.2369 -0.6775  0.3523
   16LIG    OD2  237   8.903   9.042   3.804 -0.3936 -0.8470  0.0143
   16LIG      C  238   8.798   8.684   3.989 -0.9584  0.3157 -0.1707
   16LIG    OT1  239   8.858   8.575   3.989 -0.0529  0.3866 -0.2053
   16LIG    OT2  240   8.686   8.691   4.044  0.0432 -0.2470 -0.7014
   17LIG      N  241   3.647   2.878   5.814  0.1311 -0.0581 -0.6891
   17LIG     H1  242   3.674   2.886   5.914  1.7767 -0.2124 -1.0875
   17LIG     H2  243   3.596   2.966   5.792  0.2174  0.3360  0.6016
   17LIG     H3  244   3.596   2.790   5.794  1.9473 -1.3063 -0.0687
   17LIG     CA  245   3.768   2.886   5.733  0.5067  0.3038  0.1502
   17LIG     HA  246   3.811   2.984   5.747  0.7835  0.1939  0.0777
   17LIG     CB  247   3.852   2.776   5.791  0.0167 -0.3886  0.4731
   17LIG    HB1  248   3.937   2.760   5.722 -1.0532  1.1782 -1.3034
   17LIG    HB2  249   3.803   2.677   5.801 -2.0183  0.1567 -2.9198
   17LIG     CG  250   3.915   2.829   5.918 -0.8559  0.4966  0.1729
   17LIG    OD1  251   4.039   2.818   5.928  0.0733  0.3069  0.1312
   17LIG    OD2  252   3.845   2.885   6.007  0.4175  0.4771 -0.4346
   17LIG      C  253   3.751   2.863   5.580  0.0858  1.0774  0.4380
   17LIG    OT1  254   3.642   2.824   5.535 -0.2921  0.0599 -0.4431
   17LIG    OT2  255   3.856   2.876   5.510  0.0058  0.0447 -0.1684
   18LIG      N  256   0.841   3.091   9.400  0.5618 -0.1642 -0.3396
   18LIG     H1  257   0.834   3.032   9.315  0.1921  0.7739 -0.9810
   18LIG     H2  258   0.940   3.117   9.419  0.1736  0.4264  1.0419
   18LIG     H3  259   0.793   3.053   9.484  0.5602  0.5441 -0.0043
   18LIG     CA  260   0.754   3.214   9.368 -0.0666 -0.5934 -0.6202
   18LIG     HA  261   0.672   3.168   9.316  0.5031 -0.5751 -1.5602
   18LIG     CB  262   0.706   3.286   9.506  0.1527  0.7436  0.1469
   18LIG    HB1  263   0.647   3.377   9.481 -0.2170  0.7575  1.0046
   18LIG    HB2  264   0.780   3.312   9.585 -0.0098  0.4453  0.4028
   18LIG     CG  265   0.616   3.181   9.570  0.0748 -0.5853 -0.1020
   18LIG    OD1  266   0.533   3.119   9.502 -0.2753 -0.4354 -0.0208
   18LIG    OD2  267   0.627   3.162   9.690  0.4310 -0.2165  0.1411
   18LIG      C  268   0.831   3.307   9.273  0.6232  0.0372  0.6723
   18LIG    OT1  269   0.940   3.280   9.223 -0.2865  0.2969  0.0590
   18LIG    OT2  270   0.781   3.421   9.253  0.6062 -0.0656  0.2643
   19LIG      N  271   5.275   0.646   3.915  0.6114  0.0669  0.2628
   19LIG     H1  272   5.302   0.718   3.984  0.5787  0.1947  0.1434
   19LIG     H2  273   5.341   0.568   3.901 -1.3858 -1.6772  0.0272
   19LIG     H3  274   5.264   0.704   3.829  0.8160  1.2939  1.0443
   19LIG     CA  275   5.143   0.590   3.962  0.2000 -0.0469  0.3330
   19LIG     HA  276   5.088   0.677   3.994  2.0141  1.6103 -0.7911
   19LIG     CB  277   5.082   0.509   3.842 -0.2972  0.0711  0.1007
   19LIG    HB1  278   4.978   0.474   3.863 -0.2408  0.8611  1.9060
   19LIG    HB2  279   5.147   0.428   3.805  0.8762  1.5768 -1.2593
   19LIG     CG  280   5.063   0.599   3.716  0.6734  0.4313 -0.7148
   19LIG    OD1  281   5.040   0.546   3.607  0.2435 -0.5000  0.5736
   19LIG    OD2  282   5.074   0.723   3.732  0.1509 -0.1736 -0.3374
   19LIG      C  283   5.139   0.491   4.078 -0.1459  1.0733 -0.2819
   19LIG    OT1  284   5.243   0.448   4.140  0.1430 -0.0068 -0.2890
   19LIG    OT2  285   5.030   0.443   4.121  1.0541 -0.0977 -0.4601
   20LIG      N  286   4.227   8.916   0.578  0.6120 -0.4972 -0.2475
   20LIG     H1  287   4.138   8.873   0.545 -0.9437  1.6672  0.8257
   20LIG     H2  288   4.239   9.003   0.523 -3.1511 -0.3309 -1.0805
   20LIG     H3  289   4.310   8.861   0.549  0.6813 -0.0512 -0.9341
   20LIG     CA  290   4.219   8.937   0.723 -0.5223 -0.0290 -0.2324
   20LIG     HA  291   4.316   8.965   0.760 -0.6883 -1.0805  1.0686
   20LIG     CB  292   4.103   9.026   0.753 -0.0542  0.6547 -0.1131
   20LIG    HB1  293   4.101   9.041   0.863 -1.0185 -2.4390  0.4073
   20LIG    HB2  294   4.007   8.975   0.729  0.5414 -0.3725 -0.3965
   20LIG     CG  295   4.103   9.159   0.683  0.1831  0.5018  0.0183
   20LIG    OD1  296   4.183   9.189   0.595 -0.1448 -0.3285 -0.1089
   20LIG    OD2  297   4.013   9.235   0.720  0.0679  0.0375  0.2224
   20LIG      C  298   4.189   8.802   0.794 -0.0101 -0.4101  0.2866
   20LIG    OT1  299   4.154   8.697   0.731 -0.5913 -0.0015  0.3669
   20LIG    OT2  300   4.204   8.799   0.918 -0.6247  0.0126 -0.0122
   21LIG      N  301   4.407   0.674   5.969  0.2558  0.2592 -0.2552
   21LIG     H1  302   4.426   0.631   6.062 -2.8977 -0.5420  0.1463
   21LIG     H2  303   4.342   0.753   5.989 -0.4567 -0.7920  1.9217
   21LIG     H3  304   4.376   0.600   5.903 -0.2690  0.2518 -0.0109
   21LIG     CA  305   4.539   0.729   5.934  0.2998 -0.2498 -0.3405
   21LIG     HA  306   4.565   0.794   6.016  0.4497 -3.0854  2.0176
   21LIG     CB  307   4.649   0.617   5.938 -1.0723  0.6955  0.2949
   21LIG    HB1  308   4.741   0.666   5.900 -0.8851  0.7803  0.8423
   21LIG    HB2  309   4.620   0.529   5.877 -2.0055  2.9403 -2.7311
   21LIG     CG  310   4.677   0.575   6.086 -0.1746  0.7521 -0.2064
   21LIG    OD1  311   4.796   0.542   6.121 -0.1005  0.3282 -0.0306
   21LIG    OD2  312   4.584   0.587   6.170  0.5185 -0.2706  0.3132
   21LIG      C  313   4.547   0.809   5.801  0.2157 -0.1205  0.7820
   21LIG    OT1  314   4.447   0.821   5.723  0.4032  0.1271  0.2988
   21LIG    OT2  315   4.653   0.866   5.764  0.9066 -0.0507  0.5211
   22LIG      N  316   5.612   0.942   7.688  0.0601 -0.8230  0.1756
   22LIG     H1  317   5.629   0.925   7.789  0.0612 -0.9887  0.1479
   22LIG     H2  318   5.552   1.024   7.666  1.0535 -0.5700 -1.8066
   22LIG     H3  319   5.565   0.862   7.640  0.6377  0.1380 -2.1118
   22LIG     CA  320   5.743   0.949   7.628  0.4290  0.8361 -0.1805
   22LIG     HA  321   5.802   1.011   7.694  0.1714 -0.4560  1.3233
   22LIG     CB  322   5.805   0.795   7.619  0.0196 -0.0130  0.5933
   22LIG    HB1  323   5.886   0.800   7.544 -1.9581 -1.4457 -1.7972
   22LIG    HB2  324   5.729   0.721   7.585 -0.4248 -0.0479  1.6187
   22LIG     CG  325   5.852   0.750   7.757 -0.0280 -0.2119 -0.3006
   22LIG    OD1  326   5.828   0.826   7.849 -0.1899 -0.0642 -0.2854
   22LIG    OD2  327   5.905   0.642   7.770  0.0579  0.8935 -0.2538
   22LIG      C  328   5.745   1.022   7.485  0.2043  0.0791  0.4889
   22LIG    OT1  329   5.634   1.043   7.432  0.8911  0.0317 -0.1871
   22LIG    OT2  330   5.857   1.036   7.430 -0.3124  0.3230 -0.1690
   23LIG      N  331   5.715   0.769   2.727  0.0526 -0.7585  0.2754
   23LIG     H1  332   5.705   0.760   2.830  0.5737  2.7938  0.7760
   23LIG     H2  333   5.621   0.784   2.687  0.8015  1.5570 -0.8069
   23LIG     H3  334   5.760   0.681   2.693 -1.2458 -0.6036 -2.0327
   23LIG     CA  335   5.796   0.891   2.696  0.5148 -0.0618 -0.0109
   23LIG     HA  336   5.878   0.899   2.766  0.4692 -1.3198  0.1985
   23LIG     CB  337   5.840   0.875   2.546 -0.5199  0.6023 -0.3880
   23LIG    HB1  338   5.884   0.969   2.507  0.0216  0.5305  0.0421
   23LIG    HB2  339   5.755   0.853   2.477 -0.2613 -1.7218 -0.0498
   23LIG     CG  340   5.947   0.770   2.530 -0.3209 -0.4325 -0.0068
   23LIG    OD1  341   5.975   0.721   2.414 -0.7857 -0.0028  0.4756
   23LIG    OD2  342   6.011   0.728   2.632  0.4437  0.0957  0.2942
   23LIG      C  343   5.713   1.024   2.711 -0.2494 -0.5324 -0.5343
   23LIG    OT1  344   5.586   1.017   2.753 -0.3126 -0.1161  0.1370
   23LIG    OT2  345   5.768   1.134   2.698 -0.4483 -0.2904  0.2973
   24LIG      N  346   1.453   1.606   5.067  0.3983  0.2610  0.4175
   24LIG     H1  347   1.485   1.645   4.976  1.5432 -1.3335  0.0942
   24LIG     H2  348   1.520   1.533   5.098 -0.0616  0.1596  1.1813
   24LIG     H3  349   1.357   1.565   5.067  0.2519  0.4853 -1.4905
   24LIG     CA  350   1.437   1.725   5.167  0.2852  0.7875  0.9364
   24LIG     HA  351   1.396   1.696   5.263 -2.9774 -1.1828 -0.8728
   24LIG     CB  352   1.587   1.768   5.201 -0.1106  0.0991 -0.6774
   24LIG    HB1  353   1.580   1.863   5.258 -0.2598 -0.8007  0.8727
   24LIG    HB2  354   1.641   1.798   5.109 -2.6219 -1.9614 -3.0004
   24LIG     CG  355   1.675   1.673   5.278  0.4720 -0.4853  0.7103
   24LIG    OD1  356   1.799   1.658   5.253 -0.1417  0.0919 -0.1132
   24LIG    OD2  357   1.623   1.611   5.375 -0.6026  0.2325  0.1449
   24LIG      C  358   1.342   1.836   5.116  0.7943  0.1374  0.2776
   24LIG    OT1  359   1.284   1.842   5.006  0.3631  0.2424  0.3052
   24LIG    OT2  360   1.301   1.913   5.206 -0.8142 -0.2683 -0.1687
   25LIG      N  361   1.917   9.413   3.250  0.1417 -0.3559 -0.4881
   25LIG     H1  362   1.857   9.466   3.316  3.2684  0.5377  1.8895
   25LIG     H2  363   2.008   9.462   3.261  0.1856 -0.6259  0.3981
   25LIG     H3  364   1.889   9.429   3.151 -0.9197  0.3397 -0.0937
   25LIG     CA  365   1.916   9.263   3.275 -0.0431  0.2544 -0.0804
   25LIG     HA  366   1.822   9.223   3.239  0.0428  0.3864 -0.4556
   25LIG     CB  367   2.036   9.199   3.211  0.0789 -0.1373  0.5712
   25LIG    HB1  368   2.062   9.095   3.242 -1.3605 -0.1255  1.9599
   25LIG    HB2  369   2.130   9.253   3.231  0.3173 -1.1382  2.4147
   25LIG     CG  370   2.011   9.195   3.063  0.0776  0.3342  0.1729
   25LIG    OD1  371   1.927   9.275   3.007  0.1497 -0.7153  0.1735
   25LIG    OD2  372   2.083   9.116   2.995  0.4020 -0.2487  0.1839
   25LIG      C  373   1.914   9.229   3.423  0.1102  0.1601 -0.5089
   25LIG    OT1  374   1.927   9.312   3.519 -0.2420 -0.5192  0.8240
   25LIG    OT2  375   1.878   9.108   3.445 -0.5970 -0.0996 -0.0540
   26LIG      N  376   3.132   3.385   9.206  0.2936  0.8042  1.0867
   26LIG     H1  377   3.045   3.419   9.160  0.4539  0.8235  0.8002
   26LIG     H2  378   3.124   3.429   9.301 -0.9036  1.0324  0.8898
   26LIG     H3  379   3.215   3.421   9.155  0.4130 -1.4587 -0.4007
   26LIG     CA  380   3.139   3.235   9.230  0.1315  0.2708  0.5479
   26LIG     HA  381   3.207   3.215   9.312  0.4987 -0.0508  0.1681
   26LIG     CB  382   2.999   3.167   9.266 -0.9963  0.2651  0.2314
   26LIG    HB1  383   3.010   3.056   9.270 -0.5059  0.3145  0.3619
   26LIG    HB2  384   2.930   3.197   9.184 -1.1498 -0.4268  0.0929
   26LIG     CG  385   2.949   3.211   9.401  0.4807  0.7623 -0.7582
   26LIG    OD1  386   3.026   3.252   9.491 -0.3214  0.3831  0.2871
   26LIG    OD2  387   2.828   3.191   9.426  0.4381 -0.3378 -0.8088
   26LIG      C  388   3.205   3.153   9.112  0.5755  0.2777  0.5752
   26LIG    OT1  389   3.232   3.209   9.002 -0.1949 -0.3739  0.0784
   26LIG    OT2  390   3.222   3.026   9.128 -0.8403  0.1453  0.4476
   27LIG      N  391   5.485   1.428   0.137  0.3558 -0.8169  0.3591
   27LIG     H1  392   5.558   1.358   0.114  1.1652  0.4285 -1.0352
   27LIG     H2  393   5.481   1.503   0.065 -2.2545 -0.5202  0.7151
   27LIG     H3  394   5.499   1.468   0.232 -0.8913 -2.6631  1.3747
   27LIG     CA  395   5.344   1.393   0.142  0.4253 -0.6077 -0.0663
   27LIG     HA  396   5.282   1.481   0.150 -0.4989 -0.5646 -4.8413
   27LIG     CB  397   5.317   1.316   0.009  0.2962 -0.4995 -0.2638
   27LIG    HB1  398   5.222   1.259   0.016  0.9523 -1.6702 -0.5695
   27LIG    HB2  399   5.400   1.250  -0.023  0.4352 -1.6249  2.2163
   27LIG     CG  400   5.287   1.410  -0.105  0.3907  0.2539  0.2204
   27LIG    OD1  401   5.293   1.536  -0.081  0.3346  0.3955 -0.4869
   27LIG    OD2  402   5.259   1.364  -0.222  0.5875  0.0492 -0.6074
   27LIG      C  403   5.317   1.300   0.265 -0.6107  0.3644 -0.5215
   27LIG    OT1  404   5.408   1.265   0.342 -0.7572 -0.5700 -0.3663
   27LIG    OT2  405   5.197   1.270   0.287 -0.0012  0.4427 -0.5639
   28LIG      N  406   3.033   8.518   8.396 -0.1339 -0.1166 -0.3065
   28LIG     H1  407   3.033   8.621   8.377  1.6860 -0.0598 -0.2088
   28LIG     H2  408   2.950   8.478   8.349 -3.0481  3.0464  1.6019
   28LIG     H3  409   3.026   8.501   8.498  1.4374 -2.5475 -0.5235
   28LIG     CA  410   3.153   8.468   8.329 -0.3311 -0.0272 -0.5181
   28LIG     HA  411   3.163   8.362   8.350 -3.7677 -0.2957  0.3881
   28LIG     CB  412   3.128   8.499   8.183  0.2091  0.5066  0.7643
   28LIG    HB1  413   3.210   8.470   8.114 -0.4234  0.6242 -0.0618
   28LIG    HB2  414   3.110   8.608   8.170  0.5390  0.8023  2.5357
   28LIG     CG  415   2.998   8.426   8.132 -0.3290  0.6327 -0.2120
   28LIG    OD1  416   2.968   8.459   8.015 -0.5631 -1.0625  0.6237
   28LIG    OD2  417   2.951   8.330   8.198 -0.5227 -0.1098 -0.1181
   28LIG      C  418   3.293   8.523   8.378 -0.6836  0.3603 -0.0060
   28LIG    OT1  419   3.291   8.615   8.463 -0.5110  0.1865  0.4497
   28LIG    OT2  420   3.397   8.479   8.323  0.3024 -0.0793  0.2797
   29LIG      N  421   1.324   2.283   5.576 -0.9192 -0.2235 -0.2585
   29LIG     H1  422   1.340   2.213   5.500 -0.8456  0.1094 -0.5527
   29LIG     H2  423   1.257   2.356   5.545 -0.0264 -0.0674 -1.9256
   29LIG     H3  424   1.418   2.323   5.595 -0.5496 -0.8920 -0.6319
   29LIG     CA  425   1.277   2.231   5.702 -0.1710  0.6100  0.0232
   29LIG     HA  426   1.180   2.189   5.677 -0.2090 -0.1519  1.3449
   29LIG     CB  427   1.379   2.117   5.740 -0.6907 -0.2542  0.4321
   29LIG    HB1  428   1.388   2.099   5.849  1.7950  0.1046  0.3470
   29LIG    HB2  429   1.483   2.123   5.701 -0.6543 -3.3728 -0.2649
   29LIG     CG  430   1.325   1.985   5.685  0.3948  1.0017  0.2330
   29LIG    OD1  431   1.203   1.971   5.658 -0.9983  0.3705 -0.1170
   29LIG    OD2  432   1.412   1.895   5.661 -0.1058  0.2055  0.5910
   29LIG      C  433   1.269   2.330   5.818  0.2670 -0.7525 -0.1542
   29LIG    OT1  434   1.314   2.451   5.802 -0.1750  0.4398  0.7537
   29LIG    OT2  435   1.217   2.297   5.927 -0.4073 -0.0488  0.4696
   30LIG      N  436   9.375   6.547   6.870  0.1724 -0.0668  0.4873
   30LIG     H1  437   9.351   6.450   6.841  1.0285 -0.1446 -0.0035
   30LIG     H2  438   9.421   6.597   6.791 -1.3978 -1.1167 -1.1789
   30LIG     H3  439   9.437   6.543   6.953  0.0396 -2.7815  0.5565
   30LIG     CA  440   9.236   6.610   6.891 -0.5339  0.2294 -0.1599
   30LIG     HA  441   9.197   6.535   6.959 -1.3929  0.4520 -0.3870
   30LIG     CB  442   9.262   6.756   6.949  0.4112  0.3554  0.2878
   30LIG    HB1  443   9.169   6.815   6.933  1.5022  2.1327  0.1639
   30LIG    HB2  444   9.335   6.800   6.877 -0.1929 -1.0023 -1.2178
   30LIG     CG  445   9.316   6.748   7.089 -0.6540  0.3197  0.0017
   30LIG    OD1  446   9.302   6.848   7.167  0.5420  0.1419  0.0077
   30LIG    OD2  447   9.383   6.642   7.112  0.1479 -0.2141  0.1567
   30LIG      C  448   9.147   6.611   6.769 -0.1627  0.4825 -0.2143
   30LIG    OT1  449   9.202   6.596   6.656  0.4164  0.5530  0.5683
   30LIG    OT2  450   9.023   6.626   6.788 -0.7138  0.2881  0.3421
   31LIG      N  451   3.400   0.836   5.544 -0.2198  0.0339  0.6994
   31LIG     H1  452   3.338   0.796   5.617 -0.4937  0.5395  0.7500
   31LIG     H2  453   3.487   0.881   5.580  2.9256 -0.1820 -5.3057
   31LIG     H3  454   3.350   0.909   5.489 -0.8162 -0.2595  0.8496
   31LIG     CA  455   3.448   0.738   5.446 -0.0563  0.3455  0.6168
   31LIG     HA  456   3.515   0.671   5.498 -0.3131 -0.9066 -0.6296
   31LIG     CB  457   3.328   0.652   5.398 -0.0090 -0.2248  0.7134
   31LIG    HB1  458   3.369   0.572   5.331  0.2488  0.8213 -0.4163
   31LIG    HB2  459   3.249   0.711   5.346 -1.0290 -0.9712  1.3735
   31LIG     CG  460   3.265   0.574   5.505 -0.0158  0.6713 -0.1264
   31LIG    OD1  461   3.164   0.500   5.495 -0.4828 -0.2970 -0.1384
   31LIG    OD2  462   3.341   0.570   5.615  0.7016 -0.0553 -0.1272
   31LIG      C  463   3.535   0.802   5.327  0.2290  0.1742  0.1035
   31LIG    OT1  464   3.555   0.928   5.317 -0.2235  0.0809  0.8963
   31LIG    OT2  465   3.572   0.721   5.242 -0.0770 -0.3422  0.0823
   32LIG      N  466   6.329   2.399   4.664 -0.9446  0.3386 -0.6105
   32LIG     H1  467   6.298   2.411   4.763 -0.0953 -0.0180 -0.2979
   32LIG     H2  468   6.355   2.301   4.646  0.7749  0.4405  1.0089
   32LIG     H3  469   6.420   2.448   4.659 -0.9172  0.4891  0.7330
   32LIG     CA  470   6.235   2.450   4.562 -0.8174  0.0648 -0.1588
   32LIG     HA  471   6.294   2.452   4.471  1.0011 -0.5642  0.9493
   32LIG     CB  472   6.113   2.356   4.561  0.1134 -0.4745  0.5340
   32LIG    HB1  473   6.038   2.393   4.489 -1.1248  0.1784  2.0948
   32LIG    HB2  474   6.056   2.364   4.656  0.5699  1.7312  0.6703
   32LIG     CG  475   6.145   2.222   4.510  0.0933  0.8589  0.4832
   32LIG    OD1  476   6.260   2.204   4.464  0.3239  0.2262  0.3124
   32LIG    OD2  477   6.064   2.129   4.520  0.5132 -0.0995  0.4137
   32LIG      C  478   6.193   2.593   4.575  0.4261 -0.4275  0.8468
   32LIG    OT1  479   6.237   2.664   4.664 -0.2147  0.0553  0.3108
   32LIG    OT2  480   6.103   2.635   4.491 -0.3760  0.1554 -0.7999
   33LIG      N  481   7.741   7.666   0.289  0.0785 -0.9609  0.4961
   33LIG     H1  482   7.732   7.566   0.312  2.9424 -1.2803  0.6235
   33LIG     H2  483   7.831   7.697   0.246 -0.9599  1.7012  0.0431
   33LIG     H3  484   7.725   7.713   0.380  2.7358 -0.9183  1.0391
   33LIG     CA  485   7.635   7.714   0.200  0.0877  0.5839  0.3085
   33LIG     HA  486   7.636   7.821   0.185 -1.2115  0.7223  1.1100
   33LIG     CB  487   7.665   7.653   0.057  0.2264 -0.2858 -0.1507
   33LIG    HB1  488   7.588   7.695  -0.011 -0.4893 -0.4707  0.5220
   33LIG    HB2  489   7.642   7.545   0.057 -1.2261 -0.0206  1.1567
   33LIG     CG  490   7.798   7.682  -0.005  0.0789 -0.2314 -0.2577
   33LIG    OD1  491   7.813   7.642  -0.123  0.2489 -0.3642  0.4236
   33LIG    OD2  492   7.891   7.733   0.067  0.2090 -0.1615  0.5914
   33LIG      C  493   7.500   7.659   0.261 -0.0659  0.3971  0.7499
   33LIG    OT1  494   7.498   7.575   0.354  0.0186 -0.6714  0.3867
   33LIG    OT2  495   7.399   7.714   0.206  0.0967  0.1173  0.5803
   34LIG      N  496   0.887   0.368   8.522  0.0588 -0.4755 -0.2984
   34LIG     H1  497   0.841   0.450   8.478 -1.3478 -1.4939 -0.7886
   34LIG     H2  498   0.891   0.300   8.443  1.7302  1.0156 -1.6037
   34LIG     H3  499   0.831   0.331   8.601  0.3740 -0.1892  0.0636
   34LIG     CA  500   1.019   0.403   8.587 -0.0072  0.4847  1.1510
   34LIG     HA  501   1.008   0.502   8.628 -1.1396  0.5182  0.8031
   34LIG     CB  502   1.060   0.300   8.688 -0.1040  0.0915  0.6233
   34LIG    HB1  503   1.156   0.319   8.740 -0.2934 -0.4313  1.1692
   34LIG    HB2  504   1.074   0.198   8.647  0.7023 -0.3200  1.8935
   34LIG     CG  505   0.963   0.274   8.800  0.1697  1.1368  0.1052
   34LIG    OD1  506   0.851   0.324   8.783 -0.1601  0.1022  0.1711
   34LIG    OD2  507   0.989   0.182   8.884 -0.3445 -0.6160 -0.2925
   34LIG      C  508   1.127   0.419   8.472  0.6601 -0.1343  0.2381
   34LIG    OT1  509   1.090   0.426   8.354 -0.2257 -0.0876 -0.3393
   34LIG    OT2  510   1.248   0.420   8.503 -0.4074 -0.8000 -0.3059
   35LIG      N  511   8.383   0.521   1.119 -0.0342 -0.1313  0.5125
   35LIG     H1  512   8.445   0.568   1.050 -0.4634 -0.2154  0.0600
   35LIG     H2  513   8.447   0.465   1.180 -0.0157  1.8062  2.3929
   35LIG     H3  514   8.309   0.455   1.088 -0.0727  1.2562 -2.7959
   35LIG     CA  515   8.318   0.620   1.219 -0.4698  0.7714  0.5386
   35LIG     HA  516   8.347   0.719   1.186 -0.9393  1.3160  1.6878
   35LIG     CB  517   8.172   0.591   1.208  0.4081 -0.2161  0.5387
   35LIG    HB1  518   8.145   0.490   1.244 -0.8340 -0.5906 -1.2932
   35LIG    HB2  519   8.133   0.587   1.104  0.5968  2.4673  0.2991
   35LIG     CG  520   8.087   0.680   1.288 -0.2613 -0.3789 -0.8043
   35LIG    OD1  521   8.118   0.800   1.310 -0.1556 -0.4051  0.0301
   35LIG    OD2  522   7.974   0.631   1.322 -0.0230 -0.5559 -0.3383
   35LIG      C  523   8.390   0.596   1.361  0.9100 -0.5620  0.0555
   35LIG    OT1  524   8.473   0.505   1.376  0.3847  0.7337 -0.3556
   35LIG    OT2  525   8.355   0.670   1.455  0.0784 -0.4438 -0.3612
   36LIG      N  526   7.957   3.427   7.851 -0.1595 -0.1764 -0.7356
   36LIG     H1  527   8.000   3.386   7.765  1.6775  3.2371 -1.6174
   36LIG     H2  528   8.003   3.520   7.852  1.2660 -0.7966 -2.5660
   36LIG     H3  529   7.977   3.368   7.934 -0.4730 -0.4613 -0.8598
   36LIG     CA  530   7.813   3.439   7.855 -0.4157 -0.1023 -0.4733
   36LIG     HA  531   7.787   3.511   7.778 -1.5008 -0.7382 -0.7296
   36LIG     CB  532   7.745   3.305   7.829  1.1128 -0.0744  0.4237
   36LIG    HB1  533   7.638   3.298   7.860  1.0402  0.8125  0.4185
   36LIG    HB2  534   7.788   3.219   7.885  0.2999 -2.1820 -2.0121
   36LIG     CG  535   7.749   3.268   7.685  1.0323 -0.0514  0.1569
   36LIG    OD1  536   7.835   3.328   7.616 -0.1418  0.2932  0.4659
   36LIG    OD2  537   7.671   3.180   7.639  0.3538  0.6882  0.3009
   36LIG      C  538   7.748   3.495   7.992 -0.3286  0.0058 -0.4120
   36LIG    OT1  539   7.824   3.530   8.087 -0.9624 -0.4191 -0.2675
   36LIG    OT2  540   7.623   3.502   7.998  0.0841 -0.5826 -0.7019
   37LIG      N  541   9.507   2.773   6.544  0.5991  0.1843  0.3833
   37LIG     H1  542   9.564   2.723   6.472 -1.0897 -0.2168 -0.7302
   37LIG     H2  543   9.548   2.766   6.640  2.8525  0.2319 -0.5018
   37LIG     H3  544   9.418   2.720   6.540  1.4525 -1.2555 -1.9092
   37LIG     CA  545   9.498   2.916   6.497  0.5588  0.1646  0.0126
   37LIG     HA  546   9.604   2.937   6.488  1.0993 -1.6184  1.7221
   37LIG     CB  547   9.415   2.925   6.364 -0.5345  0.5013 -0.0076
   37LIG    HB1  548   9.405   3.032   6.336 -1.6982  0.5053  0.3782
   37LIG    HB2  549   9.320   2.867   6.362  0.0981 -0.5421 -0.6562
   37LIG     CG  550   9.491   2.865   6.251 -0.3995 -0.0698 -0.6171
   37LIG    OD1  551   9.461   2.882   6.129  0.0590  0.1529 -0.2410
   37LIG    OD2  552   9.584   2.791   6.285 -0.4419  0.0963 -0.4731
   37LIG      C  553   9.441   3.017   6.593 -0.0562  0.2001  0.2341
   37LIG    OT1  554   9.398   2.986   6.704 -0.3548  0.5047 -0.4911
   37LIG    OT2  555   9.449   3.140   6.562 -0.2845 -0.3955 -0.0752
   38LIG      N  556   5.582   6.837   8.731  0.1269  0.3863 -0.0017
   38LIG     H1  557   5.599   6.736   8.712 -0.6665  0.3449 -0.5546
   38LIG     H2  558   5.676   6.870   8.758  0.5718  1.3101 -2.4592
   38LIG     H3  559   5.522   6.844   8.816  0.4559  0.0330  0.2631
   38LIG     CA  560   5.536   6.913   8.612  0.9365  0.4613  0.5506
   38LIG     HA  561   5.501   7.007   8.652 -1.4330 -0.3046  0.4182
   38LIG     CB  562   5.649   6.924   8.508  1.0061  0.9320 -0.2046
   38LIG    HB1  563   5.605   6.953   8.410 -0.4376  0.3717  0.2400
   38LIG    HB2  564   5.688   6.820   8.500  0.1623  0.7167 -1.9319
   38LIG     CG  565   5.755   7.017   8.552 -0.9025  0.7151 -0.9402
   38LIG    OD1  566   5.816   7.084   8.466 -0.0214 -0.4507  0.2954
   38LIG    OD2  567   5.799   7.027   8.671  0.4059  0.5699  0.1854
   38LIG      C  568   5.405   6.870   8.547  0.4612  0.3617 -0.0725
   38LIG    OT1  569   5.340   6.770   8.587 -0.1313 -0.0236 -0.1455
   38LIG    OT2  570   5.349   6.943   8.464  0.0093  0.3542  0.4763
   39LIG      N  571   4.741   6.099   4.826  0.1715 -0.0357  0.1242
   39LIG     H1  572   4.698   6.040   4.752  0.3106 -0.0241  0.0334
   39LIG     H2  573   4.832   6.054   4.847 -0.3562 -1.3608 -0.2686
   39LIG     H3  574   4.688   6.089   4.915  0.8442 -1.6921  0.3729
   39LIG     CA  575   4.753   6.233   4.774  0.2120 -1.2840 -0.3319
   39LIG     HA  576   4.806   6.226   4.680  0.3547 -2.1230 -0.1931
   39LIG     CB  577   4.619   6.303   4.738  0.7557 -0.5315 -0.0640
   39LIG    HB1  578   4.629   6.412   4.716 -2.9725 -0.1096 -0.3446
   39LIG    HB2  579   4.551   6.299   4.826  0.9875 -0.7021  0.1057
   39LIG     CG  580   4.546   6.232   4.629  0.5323  0.7527 -0.2200
   39LIG    OD1  581   4.606   6.132   4.573 -0.0943 -0.1735  0.1800
   39LIG    OD2  582   4.437   6.276   4.587 -0.2886 -0.7777 -0.5508
   39LIG      C  583   4.836   6.327   4.870 -0.3825 -0.0178 -0.4072
   39LIG    OT1  584   4.869   6.280   4.984 -0.3525 -0.1101 -0.0004
   39LIG    OT2  585   4.864   6.445   4.834 -0.9322  0.5093 -0.1365
   40LIG      N  586   7.749   4.881   6.058  0.1495 -0.2640 -0.4452
   40LIG     H1  587   7.851   4.901   6.055  0.1841 -0.0491  1.3874
   40LIG     H2  588   7.718   4.875   5.958  1.2439  0.7869 -0.8740
   40LIG     H3  589   7.696   4.952   6.111 -1.9132 -0.0922 -2.5567
   40LIG     CA  590   7.717   4.755   6.134 -0.6144  0.0335  0.5810
   40LIG     HA  591   7.610   4.748   6.143 -0.6983 -0.9973 -0.7979
   40LIG     CB  592   7.765   4.645   6.038  0.0413  0.2128 -0.1788
   40LIG    HB1  593   7.748   4.551   6.094 -0.6701  0.2399 -0.3305
   40LIG    HB2  594   7.867   4.660   5.997 -0.2199  2.2990 -0.2087
   40LIG     CG  595   7.673   4.636   5.914  0.0327 -0.5410 -0.4724
   40LIG    OD1  596   7.690   4.537   5.836  0.7619 -0.1290 -0.2205
   40LIG    OD2  597   7.578   4.716   5.905  0.6177 -0.0336 -0.5187
   40LIG      C  598   7.798   4.743   6.263 -0.3769  0.4872 -0.0164
   40LIG    OT1  599   7.850   4.845   6.312  0.1282 -0.3385  0.0374
   40LIG    OT2  600   7.796   4.638   6.329  0.4060 -0.0977  0.9308
   41LIG      N  601   8.286   1.699   9.095 -0.7211 -0.3155 -0.5627
   41LIG     H1  602   8.377   1.724   9.050 -0.0339 -2.2335 -0.3285
   41LIG     H2  603   8.224   1.780   9.116  0.4795  0.5245 -0.1585
   41LIG     H3  604   8.305   1.664   9.191 -0.3860 -1.3362 -0.9909
   41LIG     CA  605   8.210   1.605   9.009 -0.0355  0.0180  0.1958
   41LIG     HA  606   8.130   1.563   9.068  2.2332 -1.6816  2.2374
   41LIG     CB  607   8.149   1.685   8.892 -0.1583  0.2173  1.0895
   41LIG    HB1  608   8.100   1.620   8.816 -0.4102  2.0114 -0.3491
   41LIG    HB2  609   8.231   1.736   8.839  0.2431 -2.2120 -0.8043
   41LIG     CG  610   8.045   1.786   8.941 -0.3511 -0.4383 -0.4953
   41LIG    OD1  611   7.959   1.841   8.870  0.1053 -0.1402  0.7160
   41LIG    OD2  612   8.052   1.813   9.064  0.3413 -0.5167 -0.7479
   41LIG      C  613   8.295   1.496   8.937  0.0584 -0.5736 -0.2034
   41LIG    OT1  614   8.424   1.511   8.933 -0.3311 -0.5180  0.3301
   41LIG    OT2  615   8.233   1.394   8.889 -0.0580 -0.2050 -0.2730
   42LIG      N  616   8.063   0.001   8.527 -0.2395  0.2151  0.1147
   42LIG     H1  617   8.019  -0.093   8.533 -2.6873  1.1802 -0.9060
   42LIG     H2  618   8.050   0.025   8.427  1.4970 -0.3079 -0.2675
   42LIG     H3  619   8.164   0.003   8.551  1.0201  2.2766 -4.3133
   42LIG     CA  620   7.969   0.080   8.617  0.1522  0.0541  0.2688
   42LIG     HA  621   8.028   0.144   8.681 -0.5799 -1.3981  2.5386
   42LIG     CB  622   7.871   0.160   8.526  0.0925  0.6634  0.5567
   42LIG    HB1  623   7.768   0.171   8.568 -0.3593 -1.3767  0.1284
   42LIG    HB2  624   7.859   0.114   8.426  0.3813  1.7639  0.0056
   42LIG     CG  625   7.925   0.294   8.486 -0.2444 -0.0344  0.0955
   42LIG    OD1  626   8.047   0.315   8.501  0.7349 -0.2074 -0.3529
   42LIG    OD2  627   7.853   0.383   8.452  0.7468 -0.2270 -0.2107
   42LIG      C  628   7.878  -0.012   8.702  0.3751 -0.1526 -0.8581
   42LIG    OT1  629   7.888  -0.134   8.688 -0.3537  0.3920  0.1535
   42LIG    OT2  630   7.794   0.038   8.785  0.1942 -0.2075  0.3804
   43LIG      N  631   4.819   1.263   2.165 -0.6288  0.1109 -0.3516
   43LIG     H1  632   4.834   1.164   2.136 -2.4634  0.1829 -1.6937
   43LIG     H2  633   4.866   1.332   2.104  0.7273  0.2115  0.7406
   43LIG     H3  634   4.843   1.283   2.265  1.3169 -0.6395 -0.6238
   43LIG     CA  635   4.666   1.280   2.144 -0.2132  0.3318  0.5109
   43LIG     HA  636   4.632   1.368   2.197 -1.1369  1.0107 -1.1332
   43LIG     CB  637   4.636   1.296   1.995  0.0931  0.0071  0.7923
   43LIG    HB1  638   4.529   1.314   1.973  0.7323  3.7827  0.0658
   43LIG    HB2  639   4.673   1.208   1.937  2.0984  1.3682 -0.1225
   43LIG     CG  640   4.712   1.416   1.945 -0.0799  0.1237  0.1954
   43LIG    OD1  641   4.659   1.484   1.851  0.4805 -0.0942 -0.7740
   43LIG    OD2  642   4.824   1.448   1.988 -0.0217 -0.0498 -0.5511
   43LIG      C  643   4.581   1.158   2.202 -0.5321 -0.5910 -0.2681
   43LIG    OT1  644   4.642   1.070   2.264  0.6141  0.2102  0.4001
   43LIG    OT2  645   4.461   1.156   2.194  0.1536  0.2803 -0.5111
   44LIG      N  646   5.394   3.336   1.390 -0.1127  0.6058  0.3913
   44LIG     H1  647   5.421   3.430   1.353 -0.1019 -0.0583 -1.4216
   44LIG     H2  648   5.348   3.352   1.482 -2.6384 -2.4972 -0.1508
   44LIG     H3  649   5.481   3.280   1.387  0.2700  1.2112 -1.0919
   44LIG     CA  650   5.298   3.275   1.297  0.8727 -0.2547  0.2035
   44LIG     HA  651   5.250   3.350   1.236 -2.3683 -0.7871  1.8822
   44LIG     CB  652   5.364   3.161   1.206 -0.0845 -0.1207 -0.1717
   44LIG    HB1  653   5.272   3.119   1.158 -0.0599 -1.7607  1.1415
   44LIG    HB2  654   5.409   3.094   1.282 -1.8728  1.2331  2.2262
   44LIG     CG  655   5.469   3.206   1.103  0.0626 -0.3542  0.1133
   44LIG    OD1  656   5.503   3.323   1.109  0.4871 -0.1895  0.6583
   44LIG    OD2  657   5.517   3.132   1.021 -0.6734  0.8121  0.8383
   44LIG      C  658   5.164   3.232   1.370 -1.0758  0.3770  0.3413
   44LIG    OT1  659   5.174   3.230   1.499 -0.1190  0.3207  0.2046
   44LIG    OT2  660   5.063   3.194   1.310 -0.2436 -0.1218 -0.2337
   45LIG      N  661   5.328   1.071   3.942  0.5263 -0.5101  0.9412
   45LIG     H1  662   5.326   1.173   3.918 -0.3044 -0.4303  1.3062
   45LIG     H2  663   5.293   1.024   3.856  0.9594  1.0403 -0.1299
   45LIG     H3  664   5.265   1.053   4.023 -0.2701  1.2997  0.7890
   45LIG     CA  665   5.466   1.029   3.956 -0.4220 -0.0330 -0.0150
   45LIG     HA  666   5.502   1.016   3.855 -2.2440  2.8029 -1.1675
   45LIG     CB  667   5.540   1.147   4.038 -0.1471 -0.1962  0.5463
   45LIG    HB1  668   5.639   1.110   4.072  0.4472 -0.3397 -1.2507
   45LIG    HB2  669   5.483   1.175   4.129  0.9378  1.0873  0.8684
   45LIG     CG  670   5.580   1.260   3.952  0.4072  0.1068  0.4425
   45LIG    OD1  671   5.675   1.340   3.986  0.2875  0.2931  0.0259
   45LIG    OD2  672   5.503   1.283   3.854  0.5410 -0.5453  0.6655
   45LIG      C  673   5.481   0.898   4.033  0.6753 -0.0851 -0.3103
   45LIG    OT1  674   5.375   0.832   4.065 -0.0446 -0.1572  0.2956
   45LIG    OT2  675   5.600   0.854   4.055  0.5073  0.5195  0.3378
   46LIG      N  676   7.271   0.656   3.448 -0.3302  0.6772 -0.2091
   46LIG     H1  677   7.315   0.597   3.522 -1.1634 -0.3416 -0.5009
   46LIG     H2  678   7.294   0.618   3.354  2.4313  2.6724 -0.4333
   46LIG     H3  679   7.314   0.749   3.461  1.1329 -0.0384  0.2302
   46LIG     CA  680   7.127   0.662   3.483  0.8048  0.2229 -0.7901
   46LIG     HA  681   7.083   0.565   3.468  0.0998  0.6689 -1.7819
   46LIG     CB  682   7.107   0.717   3.627 -0.3050 -0.0995  0.0443
   46LIG    HB1  683   6.999   0.708   3.649 -0.2739  1.5342  1.1168
   46LIG    HB2  684   7.141   0.823   3.636  0.5334 -0.4921  2.2556
   46LIG     CG  685   7.174   0.632   3.736 -0.7582 -0.5238 -0.2437
   46LIG    OD1  686   7.177   0.681   3.852  0.6225  0.4734  0.4535
   46LIG    OD2  687   7.225   0.518   3.711  0.8588 -0.5606 -0.7569
   46LIG      C  688   7.036   0.757   3.395  0.4836  1.0931 -0.1151
   46LIG    OT1  689   7.080   0.803   3.286 -0.1324 -0.2987 -0.0699
   46LIG    OT2  690   6.914   0.777   3.428 -0.2077 -0.3456 -0.1775
   47LIG      N  691   3.906   6.813   0.077  0.1094 -0.6019  0.1712
   47LIG     H1  692   3.902   6.719   0.121 -0.9702 -0.8780 -0.4909
   47LIG     H2  693   3.844   6.810  -0.006 -0.2508 -0.7209  0.4457
   47LIG     H3  694   4.003   6.839   0.049  0.0083  0.9954  1.1535
   47LIG     CA  695   3.851   6.905   0.173 -0.7276  0.3773 -0.0648
   47LIG     HA  696   3.912   6.886   0.261 -0.5376 -2.0459 -0.6612
   47LIG     CB  697   3.876   7.045   0.106 -0.1142 -0.9820 -0.6758
   47LIG    HB1  698   3.815   7.119   0.160 -0.2825  0.3728 -2.6103
   47LIG    HB2  699   3.853   7.059  -0.002  0.2080 -1.3132 -0.7930
   47LIG     CG  700   4.013   7.102   0.121 -0.3223  0.6068  0.1590
   47LIG    OD1  701   4.080   7.045   0.211 -0.0138  0.3647 -0.0546
   47LIG    OD2  702   4.058   7.193   0.043  0.4434 -0.4474 -0.2862
   47LIG      C  703   3.709   6.877   0.209  0.1634  0.5821 -0.0576
   47LIG    OT1  704   3.644   6.779   0.157  0.0487 -0.3300 -0.9473
   47LIG    OT2  705   3.653   6.950   0.292  0.2650  0.6100 -0.0862
   48LIG      N  706   6.982   2.085   4.692  0.1559 -0.4533 -0.0879
   48LIG     H1  707   6.904   2.016   4.694 -0.2600  0.0338  1.1988
   48LIG     H2  708   6.938   2.179   4.687 -1.0882 -1.0434 -0.7496
   48LIG     H3  709   7.048   2.068   4.613  1.5597  3.4395  0.0366
   48LIG     CA  710   7.075   2.071   4.806 -0.0018  0.1911  0.4553
   48LIG     HA  711   7.027   2.087   4.901 -1.1428 -1.0111  0.1146
   48LIG     CB  712   7.130   1.930   4.816 -0.5715  0.0099  0.8661
   48LIG    HB1  713   7.222   1.917   4.876  0.7952 -2.6091 -1.5197
   48LIG    HB2  714   7.167   1.883   4.722 -2.1392  0.4483 -0.0066
   48LIG     CG  715   7.018   1.842   4.874 -0.1114 -0.1800 -0.4834
   48LIG    OD1  716   7.040   1.781   4.980  0.0315 -0.0039 -0.1734
   48LIG    OD2  717   6.901   1.834   4.822 -0.2132 -0.2482  0.0014
   48LIG      C  718   7.200   2.174   4.807  0.1322 -0.2748 -0.6271
   48LIG    OT1  719   7.222   2.250   4.713 -0.6892  0.1006 -0.1804
   48LIG    OT2  720   7.275   2.170   4.908 -0.0500 -0.3924  0.6704
   49LIG      N  721   0.869   5.498   6.752  0.0292  0.0136  0.1123
   49LIG     H1  722   0.935   5.436   6.803  1.3490  0.8602 -0.5169
   49LIG     H2  723   0.790   5.509   6.820  0.7500 -0.7622  1.1126
   49LIG     H3  724   0.828   5.444   6.673  2.1216 -0.5967 -0.6298
   49LIG     CA  725   0.930   5.631   6.721  0.9120  0.4245  0.6860
   49LIG     HA  726   1.029   5.608   6.685  0.3503 -1.0844  0.0324
   49LIG     CB  727   0.840   5.717   6.626  0.3387  0.5830  0.0674
   49LIG    HB1  728   0.872   5.823   6.625 -0.3839  0.9812  3.9956
   49LIG    HB2  729   0.741   5.712   6.676 -0.5673 -0.6250 -1.7416
   49LIG     CG  730   0.844   5.668   6.482  0.9347  0.3111  0.0672
   49LIG    OD1  731   0.747   5.711   6.416 -0.0716 -0.0609 -0.5344
   49LIG    OD2  732   0.940   5.605   6.438 -0.3022  0.1564  0.1286
   49LIG      C  733   0.946   5.708   6.851  0.2503 -0.1533 -0.3740
   49LIG    OT1  734   0.892   5.662   6.959 -0.4477 -0.0085 -0.0729
   49LIG    OT2  735   1.017   5.808   6.847  0.1445  0.3366 -0.2789
   50LIG      N  736   1.907   5.223   7.285  0.0929 -0.2220 -0.3395
   50LIG     H1  737   1.971   5.303   7.268 -0.8092  0.1237 -2.3222
   50LIG     H2  738   1.957   5.140   7.324 -2.1341 -0.2735  2.7224
   50LIG     H3  739   1.854   5.196   7.200 -1.2467  0.3315  0.2894
   50LIG     CA  740   1.814   5.268   7.391 -0.3510 -0.1494 -0.4600
   50LIG     HA  741   1.737   5.194   7.401 -1.1100  0.7738  1.0139
   50LIG     CB  742   1.900   5.276   7.523  0.3620  0.3465  0.4016
   50LIG    HB1  743   1.844   5.327   7.605  1.3142 -0.1933  1.4029
   50LIG    HB2  744   1.995   5.327   7.498 -0.7745  0.9707 -3.4450
   50LIG     CG  745   1.926   5.138   7.579 -0.0691 -0.2813 -0.0530
   50LIG    OD1  746   2.016   5.127   7.668 -0.7409 -0.0590  0.2677
   50LIG    OD2  747   1.867   5.048   7.521 -0.1772 -0.1785 -0.2330
   50LIG      C  748   1.740   5.404   7.374 -0.1211 -0.8643 -0.7227
   50LIG    OT1  749   1.746   5.460   7.264  0.2326  0.0769  0.1648
   50LIG    OT2  750   1.676   5.456   7.472  0.6000  0.1183  0.2194
   51LIG      N  751   9.224   8.514   4.157 -0.0222  0.3514 -0.9798
   51LIG     H1  752   9.260   8.422   4.124 -0.2441  0.7868 -2.5083
   51LIG     H2  753   9.154   8.509   4.233  1.8391 -0.0534  0.7994
   51LIG     H3  754   9.187   8.573   4.080 -2.5672 -0.0161 -0.1299
   51LIG     CA  755   9.329   8.582   4.233 -0.8772 -0.5785 -0.4052
   51LIG     HA  756   9.412   8.592   4.164 -1.3416  0.9877 -0.7887
   51LIG     CB  757   9.280   8.736   4.261  0.1502  0.3902  0.3581
   51LIG    HB1  758   9.375   8.787   4.288  0.6920 -0.3014 -0.2007
   51LIG    HB2  759   9.197   8.727   4.334  0.5400 -0.9821  0.6566
   51LIG     CG  760   9.228   8.816   4.143 -0.1211  0.1875  0.2932
   51LIG    OD1  761   9.200   8.756   4.035  0.4855 -0.5130 -0.5576
   51LIG    OD2  762   9.203   8.937   4.165  0.1337 -0.4074  0.4861
   51LIG      C  763   9.374   8.502   4.359 -0.1391 -0.4086  0.0557
   51LIG    OT1  764   9.317   8.392   4.387  0.2522 -0.2214  0.2454
   51LIG    OT2  765   9.463   8.553   4.428  0.5465 -0.0695 -0.3602
   52LIG      N  766   3.029   4.520   4.761  0.5170  0.8284 -0.5122
   52LIG     H1  767   2.929   4.511   4.732  0.4996 -0.8313 -0.0649
   52LIG     H2  768   3.069   4.426   4.740 -1.2714  0.0051 -0.4838
   52LIG     H3  769   3.044   4.541   4.861 -1.4885 -0.3844  0.0978
   52LIG     CA  770   3.095   4.625   4.672  0.4554  0.5372 -0.1793
   52LIG     HA  771   3.067   4.620   4.568 -0.7838  3.4746 -0.1006
   52LIG     CB  772   3.060   4.772   4.715  0.0588 -1.0591 -0.4149
   52LIG    HB1  773   3.120   4.843   4.656 -1.2878 -1.1716 -1.9795
   52LIG    HB2  774   3.097   4.787   4.819  0.0316 -2.8237 -0.1084
   52LIG     CG  775   2.914   4.801   4.705 -0.1678 -0.4876 -0.1069
   52LIG    OD1  776   2.861   4.893   4.771  0.1525 -0.3493  0.3824
   52LIG    OD2  777   2.853   4.737   4.614 -0.6785  0.0291 -0.6213
   52LIG      C  778   3.248   4.604   4.671  0.6419  1.0357 -0.1698
   52LIG    OT1  779   3.296   4.507   4.740 -0.2351 -0.0058 -0.4356
   52LIG    OT2  780   3.321   4.688   4.615 -0.3507  0.3907 -0.3248
   53LIG      N  781   2.057   8.908   7.993  0.6542 -0.0530  0.1950
   53LIG     H1  782   2.073   8.809   8.021  0.6400 -0.9412 -2.6109
   53LIG     H2  783   2.098   8.922   7.899  1.7842 -0.2594  0.6355
   53LIG     H3  784   2.111   8.973   8.053 -0.9135  0.8175  0.7307
   53LIG     CA  785   1.915   8.956   7.987 -0.4414 -0.7699 -0.1236
   53LIG     HA  786   1.867   8.945   8.083 -1.2432  1.5058 -0.2001
   53LIG     CB  787   1.930   9.111   7.945 -0.0478 -0.1534  0.5267
   53LIG    HB1  788   1.836   9.166   7.924  0.5300  0.4405 -0.5239
   53LIG    HB2  789   1.989   9.130   7.854 -0.9211  0.5993  0.1054
   53LIG     CG  790   1.994   9.183   8.061  0.7265 -0.4119 -0.4148
   53LIG    OD1  791   2.034   9.120   8.166  0.9108 -0.6460 -0.3657
   53LIG    OD2  792   2.012   9.308   8.048 -0.0489 -0.1892  0.2364
   53LIG      C  793   1.824   8.880   7.890 -0.6483 -0.0999 -0.2506
   53LIG    OT1  794   1.879   8.781   7.835 -0.7628 -0.3053  0.0079
   53LIG    OT2  795   1.702   8.907   7.873  0.2172  0.1098 -0.4119
   54LIG      N  796   0.112   7.593   7.314  0.4222  0.1683 -0.0963
   54LIG     H1  797   0.142   7.619   7.410 -3.0772  2.3408  0.5960
   54LIG     H2  798   0.110   7.490   7.299 -0.3909  0.4516 -2.4071
   54LIG     H3  799   0.184   7.622   7.245  3.6366  0.1601  3.0024
   54LIG     CA  800  -0.019   7.650   7.298 -0.4736 -0.3695  0.1938
   54LIG     HA  801  -0.010   7.756   7.314 -0.5964 -0.5640  1.7325
   54LIG     CB  802  -0.093   7.600   7.168  0.6846 -0.0690 -0.4326
   54LIG    HB1  803  -0.198   7.635   7.163  0.6006 -0.0633  1.0364
   54LIG    HB2  804  -0.092   7.489   7.172 -0.8306 -0.0780  0.6027
   54LIG     CG  805  -0.026   7.664   7.054  0.3383  1.0041  0.4714
   54LIG    OD1  806  -0.008   7.787   7.049  0.3647  0.5286  0.2546
   54LIG    OD2  807   0.007   7.595   6.953 -0.6395 -0.2355  0.6224
   54LIG      C  808  -0.106   7.595   7.416 -0.5389 -0.3302 -0.7834
   54LIG    OT1  809  -0.053   7.520   7.500 -0.1996 -0.0003 -0.6628
   54LIG    OT2  810  -0.226   7.626   7.408 -0.0049 -0.2308 -0.1109
   55LIG      N  811   0.855   3.626   8.598  0.2357  0.0437  0.0367
   55LIG     H1  812   0.899   3.592   8.686  2.2375 -1.1440 -1.3283
   55LIG     H2  813   0.925   3.640   8.522  0.4873  3.4253  0.6979
   55LIG     H3  814   0.825   3.724   8.617  3.9489  1.5686 -0.9081
   55LIG     CA  815   0.744   3.529   8.560 -0.8116  0.4674 -0.4000
   55LIG     HA  816   0.778   3.430   8.587 -0.8574  0.6906  0.5194
   55LIG     CB  817   0.608   3.559   8.622  0.7194  1.1888 -0.5525
   55LIG    HB1  818   0.530   3.491   8.583  0.1608  1.0164  0.8061
   55LIG    HB2  819   0.578   3.665   8.605 -1.6959  0.3382 -2.1390
   55LIG     CG  820   0.604   3.530   8.772  0.2754 -0.6649 -0.5270
   55LIG    OD1  821   0.706   3.478   8.823 -0.2235  0.0417 -0.3726
   55LIG    OD2  822   0.507   3.556   8.845 -0.0213 -0.2844 -0.2691
   55LIG      C  823   0.729   3.523   8.410 -0.7208 -0.6561 -0.3406
   55LIG    OT1  824   0.820   3.578   8.334  0.2819 -0.3291  0.1915
   55LIG    OT2  825   0.636   3.450   8.361 -0.3638 -0.3903  0.0041
   56LIG      N  826   5.498   9.263   2.650  0.9290  0.3081  0.0703
   56LIG     H1  827   5.398   9.252   2.677  1.7625 -1.9690  2.7552
   56LIG     H2  828   5.523   9.187   2.584 -0.2889  0.9436 -1.1901
   56LIG     H3  829   5.547   9.237   2.738  0.3752  1.0975  0.6309
   56LIG     CA  830   5.539   9.394   2.596 -0.7116  0.3797  0.1121
   56LIG     HA  831   5.527   9.469   2.673  0.8621  1.8616 -1.0130
   56LIG     CB  832   5.691   9.398   2.557 -0.1085  0.1805  0.3291
   56LIG    HB1  833   5.724   9.501   2.528 -2.8598  0.3504 -2.7675
   56LIG    HB2  834   5.714   9.333   2.470  1.0516 -0.5939  1.1821
   56LIG     CG  835   5.780   9.346   2.661 -0.4858  0.4399  0.5867
   56LIG    OD1  836   5.729   9.328   2.776  0.9290  0.0796 -0.5200
   56LIG    OD2  837   5.903   9.323   2.638  0.1638 -0.5550  0.1576
   56LIG      C  838   5.445   9.428   2.473 -0.3718 -0.0523 -0.0454
   56LIG    OT1  839   5.358   9.347   2.436  0.3828 -0.6097  0.2025
   56LIG    OT2  840   5.464   9.536   2.410 -0.4436  0.0676  0.0847
   57LIG      N  841   1.623   6.936   9.184  0.1625 -0.2661  0.1595
   57LIG     H1  842   1.719   6.975   9.181 -0.6707  1.8244 -1.1050
   57LIG     H2  843   1.608   6.856   9.118 -1.6588  1.1372 -1.2363
   57LIG     H3  844   1.562   7.010   9.144 -0.3063  0.2879  1.8112
   57LIG     CA  845   1.583   6.915   9.327  0.4011  0.1716  0.7411
   57LIG     HA  846   1.476   6.900   9.322  0.5543 -0.7736 -0.1291
   57LIG     CB  847   1.647   6.798   9.398  0.1973 -0.4683 -0.3199
   57LIG    HB1  848   1.622   6.785   9.506  1.7731  2.2712  0.4796
   57LIG    HB2  849   1.757   6.804   9.390  0.5034 -2.8506  1.1266
   57LIG     CG  850   1.608   6.671   9.329  0.3340  0.1056 -0.0978
   57LIG    OD1  851   1.681   6.572   9.335 -0.4372 -0.1071  0.2570
   57LIG    OD2  852   1.495   6.656   9.273 -0.6496 -0.2196 -0.7856
   57LIG      C  853   1.615   7.038   9.413  0.2408  0.5682 -0.0768
   57LIG    OT1  854   1.669   7.137   9.369  0.1391 -0.3674 -0.0813
   57LIG    OT2  855   1.587   7.037   9.540  0.0253 -0.2108  0.0952
   58LIG      N  856   6.542   3.162   3.624  0.6339  0.0658  0.2211
   58LIG     H1  857   6.465   3.110   3.671  0.4741  0.4700  0.4098
   58LIG     H2  858   6.628   3.105   3.637  0.3429 -0.2394  0.8838
   58LIG     H3  859   6.541   3.252   3.676 -1.0184  0.9287 -1.2200
   58LIG     CA  860   6.513   3.178   3.476  0.1406 -0.1690  0.2461
   58LIG     HA  861   6.609   3.201   3.432  0.4278 -0.7120  0.5806
   58LIG     CB  862   6.443   3.053   3.414 -0.2615 -0.1021 -0.2394
   58LIG    HB1  863   6.413   3.067   3.308  1.0151  0.0951 -0.5918
   58LIG    HB2  864   6.346   3.026   3.461 -0.8294 -0.4249 -1.5496
   58LIG     CG  865   6.533   2.928   3.419  0.2001 -0.1462 -0.1740
   58LIG    OD1  866   6.497   2.830   3.354 -0.1699  0.0269 -0.2524
   58LIG    OD2  867   6.634   2.926   3.498  0.4968 -0.3858 -0.0178
   58LIG      C  868   6.435   3.309   3.447 -0.6355  0.0429 -0.2958
   58LIG    OT1  869   6.382   3.379   3.534 -0.6337 -0.0313  0.0733
   58LIG    OT2  870   6.443   3.350   3.326  0.2143  0.2199 -0.1518
   59LIG      N  871   2.656   7.785   3.028  0.3579 -0.1153 -0.3437
   59LIG     H1  872   2.568   7.753   2.983 -1.6688  1.5232  2.1401
   59LIG     H2  873   2.687   7.864   2.967 -0.7409  0.0933 -0.6463
   59LIG     H3  874   2.727   7.709   3.037  0.4512 -0.1785 -1.4916
   59LIG     CA  875   2.634   7.823   3.170  0.2777  0.1942  0.3064
   59LIG     HA  876   2.553   7.894   3.178  1.1718  1.4255 -0.9836
   59LIG     CB  877   2.601   7.695   3.251 -0.0749 -0.2471  0.1671
   59LIG    HB1  878   2.588   7.713   3.360 -0.4291 -1.1409  0.2812
   59LIG    HB2  879   2.675   7.613   3.238  1.1799  0.8872 -0.0713
   59LIG     CG  880   2.465   7.637   3.209 -0.8514 -0.1621 -0.0713
   59LIG    OD1  881   2.408   7.679   3.104  0.9886 -0.1030 -0.5268
   59LIG    OD2  882   2.421   7.540   3.272  0.4389  0.5129  0.3425
   59LIG      C  883   2.751   7.907   3.225 -0.2803 -0.1518 -0.3623
   59LIG    OT1  884   2.859   7.923   3.166  0.6207 -0.5653 -0.3376
   59LIG    OT2  885   2.731   7.958   3.338  0.2303 -0.1874 -0.5488
   60LIG      N  886   2.771   6.602   2.274 -0.0219 -0.6386  0.0612
   60LIG     H1  887   2.791   6.660   2.359 -0.7298 -0.4939  0.1331
   60LIG     H2  888   2.695   6.644   2.218 -0.1723  0.1346  0.8122
   60LIG     H3  889   2.750   6.508   2.312 -2.3512 -0.3933 -0.5117
   60LIG     CA  890   2.900   6.604   2.205  0.0002 -0.2518 -0.6218
   60LIG     HA  891   2.912   6.521   2.138 -0.8814 -0.1633 -0.9049
   60LIG     CB  892   2.906   6.740   2.130  0.1752  0.2313  0.0999
   60LIG    HB1  893   3.009   6.747   2.090 -0.3459 -0.5946 -1.5172
   60LIG    HB2  894   2.863   6.821   2.192  0.3798  0.3168  0.1306
   60LIG     CG  895   2.811   6.737   2.012 -0.3404  0.4273 -0.8343
   60LIG    OD1  896   2.800   6.841   1.944 -0.4477 -0.3182  0.1863
   60LIG    OD2  897   2.770   6.630   1.973  0.7142  0.5334  0.1458
   60LIG      C  898   3.017   6.589   2.310 -0.1686  0.3736  0.0556
   60LIG    OT1  899   2.994   6.557   2.434  0.6828  0.2485  0.2578
   60LIG    OT2  900   3.133   6.607   2.268 -0.4170 -0.1675  0.0638
   61LIG      N  901   8.121   6.163   7.972  0.7194  0.2833  0.3412
   61LIG     H1  902   8.139   6.265   7.968  1.2786  0.1536 -2.5493
   61LIG     H2  903   8.192   6.128   8.040  1.2886  0.5905 -0.0850
   61LIG     H3  904   8.137   6.127   7.875 -2.6247 -0.2051 -0.1563
   61LIG     CA  905   7.987   6.117   8.012  0.1480  0.6067  0.0119
   61LIG     HA  906   8.005   6.038   8.084  0.9657  1.3843  0.6866
   61LIG     CB  907   7.909   6.226   8.081  0.8086 -0.0294 -0.7387
   61LIG    HB1  908   7.803   6.195   8.089  1.3446 -1.7331  0.1349
   61LIG    HB2  909   7.908   6.316   8.015  0.7820  1.1342  0.8029
   61LIG     CG  910   7.960   6.261   8.219 -0.3814  0.2320  0.4054
   61LIG    OD1  911   8.054   6.191   8.263  0.8880 -0.2382  0.1316
   61LIG    OD2  912   7.907   6.352   8.286 -0.0106  0.0459 -0.2935
   61LIG      C  913   7.907   6.061   7.889 -0.2080  0.7988 -0.2081
   61LIG    OT1  914   7.955   6.045   7.779  0.1200 -0.0335 -0.1796
   61LIG    OT2  915   7.785   6.037   7.905  0.2667  0.3479  0.0559
   62LIG      N  916   1.719   8.540   8.171  0.2533  0.3817 -0.2468
   62LIG     H1  917   1.816   8.555   8.206 -1.1991  0.6183  4.3502
   62LIG     H2  918   1.715   8.496   8.076 -0.3194  0.2363 -0.1538
   62LIG     H3  919   1.670   8.630   8.158  1.5917  1.1692 -0.0790
   62LIG     CA  920   1.650   8.447   8.266 -0.2669  0.4362 -0.7103
   62LIG     HA  921   1.544   8.457   8.246 -0.5879 -0.3348  0.4659
   62LIG     CB  922   1.690   8.297   8.267 -1.3154 -0.6077 -0.6217
   62LIG    HB1  923   1.624   8.233   8.329 -1.8474  0.3176 -0.2036
   62LIG    HB2  924   1.794   8.285   8.305 -0.1439 -0.1201 -3.4435
   62LIG     CG  925   1.678   8.240   8.132 -0.8679 -0.1820 -0.0124
   62LIG    OD1  926   1.662   8.312   8.028 -0.4053  0.1165  0.4336
   62LIG    OD2  927   1.705   8.118   8.113  0.0965  0.4157 -0.2267
   62LIG      C  928   1.655   8.497   8.411  0.0084 -0.4323  0.2885
   62LIG    OT1  929   1.734   8.587   8.449 -0.0564  0.1677  0.1987
   62LIG    OT2  930   1.586   8.447   8.502  0.3854 -0.1323  0.4417
   63LIG      N  931   3.822   2.396   0.145  0.3009  0.4439  0.7418
   63LIG     H1  932   3.826   2.368   0.046 -1.9518  3.0229 -0.2125
   63LIG     H2  933   3.897   2.349   0.201  0.6715 -0.6790 -0.6493
   63LIG     H3  934   3.728   2.384   0.188  0.4076  3.9533  2.3589
   63LIG     CA  935   3.846   2.546   0.148  0.9621 -0.6589 -0.1901
   63LIG     HA  936   3.837   2.586   0.249  1.4366  0.1373 -0.4494
   63LIG     CB  937   3.981   2.581   0.097 -0.0493 -0.0182  0.7621
   63LIG    HB1  938   3.987   2.692   0.097  1.1980  0.1151 -3.4337
   63LIG    HB2  939   4.005   2.569  -0.011  2.5338  0.4120  1.2098
   63LIG     CG  940   4.098   2.521   0.175 -0.7671  0.2291 -0.7230
   63LIG    OD1  941   4.217   2.548   0.161  0.1775  0.2935 -0.0240
   63LIG    OD2  942   4.060   2.430   0.258 -0.2196  0.3621 -0.0618
   63LIG      C  943   3.734   2.632   0.068 -0.3771  0.5186  0.2392
   63LIG    OT1  944   3.646   2.565   0.010  0.1383 -0.5031  0.2312
   63LIG    OT2  945   3.734   2.755   0.076  0.0483  0.2608  0.1867
   64LIG      N  946   7.304   1.657   4.462 -0.1946  0.4595  0.1465
   64LIG     H1  947   7.368   1.727   4.504 -0.3097  0.4117  0.4049
   64LIG     H2  948   7.225   1.639   4.527 -1.5273  0.5647 -1.3668
   64LIG     H3  949   7.364   1.573   4.449 -0.9930  0.2349 -2.6101
   64LIG     CA  950   7.270   1.716   4.331  0.4058  0.8049  0.0183
   64LIG     HA  951   7.181   1.663   4.300  1.1233 -1.6880  1.9341
   64LIG     CB  952   7.260   1.869   4.338 -0.2358 -0.0896  0.0680
   64LIG    HB1  953   7.242   1.909   4.236  1.7579 -2.7182 -1.4317
   64LIG    HB2  954   7.362   1.896   4.373 -0.0436 -1.5372  0.6912
   64LIG     CG  955   7.144   1.897   4.427 -0.8303 -0.5487  0.2847
   64LIG    OD1  956   7.051   1.814   4.452 -0.5573 -0.4671 -0.3337
   64LIG    OD2  957   7.136   2.013   4.477 -0.1377 -0.1336 -0.4318
   64LIG      C  958   7.377   1.681   4.224 -0.5738 -1.0947  0.1573
   64LIG    OT1  959   7.472   1.606   4.250  0.1094 -0.4261 -0.2280
   64LIG    OT2  960   7.365   1.722   4.107 -0.4683 -0.3348 -0.6459
   65LIG      N  961   8.961   8.709   7.222 -0.2496 -0.0852 -0.2347
   65LIG     H1  962   8.967   8.744   7.320 -1.0475 -0.6212  0.0087
   65LIG     H2  963   9.016   8.622   7.209  0.4472  0.4235 -0.8450
   65LIG     H3  964   9.015   8.775   7.161  0.0537 -0.0593  0.0574
   65LIG     CA  965   8.811   8.708   7.181 -1.3473 -0.5210 -0.1549
   65LIG     HA  966   8.781   8.811   7.172  1.5924  0.4293 -0.0245
   65LIG     CB  967   8.798   8.631   7.051  0.3081  0.0466 -0.7487
   65LIG    HB1  968   8.689   8.630   7.032  0.2210  1.0568 -0.3366
   65LIG    HB2  969   8.846   8.533   7.072  0.3668  0.2452  0.0759
   65LIG     CG  970   8.873   8.685   6.925  0.5294  0.2663 -0.7589
   65LIG    OD1  971   8.916   8.800   6.918 -0.4960 -0.1994 -0.1283
   65LIG    OD2  972   8.868   8.603   6.830 -0.6716 -0.4259  0.3203
   65LIG      C  973   8.713   8.651   7.288  0.0681 -0.0103  0.1974
   65LIG    OT1  974   8.758   8.574   7.380 -0.6602  0.1740 -0.3712
   65LIG    OT2  975   8.594   8.692   7.275 -0.1959  0.8807  0.8226
   66LIG      N  976   8.004   5.660   6.519  0.2547 -0.4135  0.1792
   66LIG     H1  977   7.960   5.594   6.451  1.4770 -1.3941  0.2918
   66LIG     H2  978   7.970   5.629   6.612 -3.4814 -0.8509 -1.1447
   66LIG     H3  979   7.971   5.757   6.501  1.6476  0.5326  2.3282
   66LIG     CA  980   8.150   5.666   6.506  0.0138 -0.4137  0.3691
   66LIG     HA  981   8.190   5.716   6.594 -1.0438  0.0358  0.6130
   66LIG     CB  982   8.213   5.523   6.490  0.5665 -0.4802  0.0679
   66LIG    HB1  983   8.319   5.545   6.463  0.5616  1.6117  1.4887
   66LIG    HB2  984   8.157   5.460   6.418 -0.0689 -0.4527  0.5341
   66LIG     CG  985   8.205   5.460   6.625 -0.1339 -0.0617 -0.6486
   66LIG    OD1  986   8.116   5.490   6.713 -0.1566 -0.0516  0.4390
   66LIG    OD2  987   8.290   5.367   6.640  0.3988 -0.1471 -0.2135
   66LIG      C  988   8.204   5.760   6.393  0.2754  0.2206 -0.0037
   66LIG    OT1  989   8.133   5.835   6.329  0.4325 -0.2841 -0.8563
   66LIG    OT2  990   8.329   5.755   6.366 -0.5138 -0.0603 -0.6195
   67LIG      N  991   5.474   3.725   1.507  0.4573  0.3665  0.2654
   67LIG     H1  992   5.566   3.677   1.516  0.9570  1.0738 -0.7911
   67LIG     H2  993   5.471   3.811   1.566 -0.4277  1.6578 -1.5649
   67LIG     H3  994   5.387   3.671   1.521  1.1382 -0.4012  1.9332
   67LIG     CA  995   5.469   3.793   1.381  0.1998 -0.6918  1.3706
   67LIG     HA  996   5.398   3.874   1.388 -1.2055 -1.5312 -1.5206
   67LIG     CB  997   5.608   3.862   1.344 -0.3485 -0.1122  0.0006
   67LIG    HB1  998   5.601   3.901   1.240  1.5132 -0.7018 -0.3774
   67LIG    HB2  999   5.683   3.780   1.342 -1.9261 -1.7238  1.8899
   67LIG     CG 1000   5.656   3.971   1.433  0.3624  0.2146  0.2257
   67LIG    OD1 1001   5.554   4.033   1.488 -0.9088  0.0644 -0.1119
   67LIG    OD2 1002   5.780   3.999   1.446  0.9378  0.4866 -0.3827
   67LIG      C 1003   5.430   3.703   1.259  0.5064  0.0541  0.2349
   67LIG    OT1 1004   5.406   3.580   1.280  0.1572 -0.4122 -0.2571
   67LIG    OT2 1005   5.414   3.755   1.149 -0.7072  0.6232 -0.2213
   68LIG      N 1006   3.121   5.462   2.264  0.2950  0.2362 -0.0940
   68LIG     H1 1007   3.112   5.535   2.337  0.5657  0.9545 -0.7551
   68LIG     H2 1008   3.055   5.486   2.187 -0.7407 -0.4833  0.5515
   68LIG     H3 1009   3.092   5.369   2.299  1.9405 -0.4820 -0.5407
   68LIG     CA 1010   3.260   5.451   2.206 -0.5451 -0.1617 -0.9022
   68LIG     HA 1011   3.320   5.453   2.296 -1.5778 -3.1128 -0.0196
   68LIG     CB 1012   3.275   5.316   2.135 -0.1147 -0.4000 -0.2317
   68LIG    HB1 1013   3.386   5.308   2.123  0.0110 -1.6442  1.4670
   68LIG    HB2 1014   3.229   5.306   2.034  1.6667  0.3775 -1.1854
   68LIG     CG 1015   3.248   5.197   2.223 -0.4179 -0.3224  0.4721
   68LIG    OD1 1016   3.185   5.209   2.330 -0.8618 -0.0551 -0.7238
   68LIG    OD2 1017   3.284   5.085   2.182 -0.0247 -0.1127 -0.0176
   68LIG      C 1018   3.306   5.562   2.110  0.0048  0.0369 -0.1172
   68LIG    OT1 1019   3.230   5.660   2.083  0.5373  0.1013  0.4347
   68LIG    OT2 1020   3.425   5.557   2.062 -0.6834  0.2131 -0.8010
   69LIG      N 1021   2.032   3.279   6.790 -0.1764 -0.5661 -0.2759
   69LIG     H1 1022   2.110   3.342   6.819 -1.0378  0.2282  0.3337
   69LIG     H2 1023   1.949   3.338   6.769  0.3439 -0.0964 -1.0674
   69LIG     H3 1024   2.008   3.210   6.864 -2.4865  0.5348  0.0677
   69LIG     CA 1025   2.055   3.191   6.672  0.6666 -0.0715  0.8700
   69LIG     HA 1026   2.141   3.131   6.698 -0.6467 -1.4499  2.2440
   69LIG     CB 1027   1.929   3.109   6.644  0.4124  0.9853  0.2770
   69LIG    HB1 1028   1.952   3.054   6.550 -0.7781  1.4089 -0.2810
   69LIG    HB2 1029   1.845   3.178   6.625  0.0665  0.6496  0.5541
   69LIG     CG 1030   1.884   3.020   6.755  0.7400 -0.0702 -0.4330
   69LIG    OD1 1031   1.796   2.932   6.731  0.0117 -0.2564  0.9480
   69LIG    OD2 1032   1.923   3.048   6.873 -0.2898 -0.6532  0.4187
   69LIG      C 1033   2.095   3.276   6.549 -0.0776  0.4107  0.6609
   69LIG    OT1 1034   2.097   3.403   6.560 -0.5785  0.4913  0.2839
   69LIG    OT2 1035   2.130   3.220   6.443  0.4326  0.8670  0.2132
   70LIG      N 1036   5.746   3.417   1.131  0.2947  0.0389  0.0242
   70LIG     H1 1037   5.717   3.512   1.102 -0.8709 -0.6379 -1.1495
   70LIG     H2 1038   5.814   3.366   1.071  0.7585 -0.9628  1.3468
   70LIG     H3 1039   5.654   3.368   1.121 -0.3793  1.4779 -1.2149
   70LIG     CA 1040   5.787   3.429   1.277  0.0554  0.2409 -0.1991
   70LIG     HA 1041   5.694   3.450   1.328 -0.9466 -0.8932 -1.4456
   70LIG     CB 1042   5.852   3.293   1.343 -0.2253  0.3675 -0.2088
   70LIG    HB1 1043   5.878   3.317   1.448 -1.0657  2.0860 -0.3506
   70LIG    HB2 1044   5.942   3.253   1.292  0.6000  0.7010  0.9494
   70LIG     CG 1045   5.752   3.189   1.345 -0.1744  0.1291 -0.8047
   70LIG    OD1 1046   5.785   3.070   1.319  0.0262 -0.1639 -0.8939
   70LIG    OD2 1047   5.637   3.225   1.384 -0.4974 -0.1217  0.1291
   70LIG      C 1048   5.869   3.565   1.296 -0.1505  0.3424 -0.1094
   70LIG    OT1 1049   5.876   3.649   1.200 -0.1803  0.6548 -0.3157
   70LIG    OT2 1050   5.904   3.598   1.408 -0.3896 -0.2896 -0.5093
   71LIG      N 1051   4.676   1.441   1.207  0.7262 -0.3490 -0.1169
   71LIG     H1 1052   4.665   1.472   1.108 -1.8056  1.8276  0.7368
   71LIG     H2 1053   4.743   1.361   1.218 -0.9061 -1.7276  0.1481
   71LIG     H3 1054   4.581   1.415   1.239  0.9634  1.4968  2.3228
   71LIG     CA 1055   4.740   1.543   1.300 -0.1786  0.9309 -0.3953
   71LIG     HA 1056   4.778   1.502   1.393 -0.8016  4.2214  1.4554
   71LIG     CB 1057   4.862   1.609   1.228  0.1140  0.2931 -0.3276
   71LIG    HB1 1058   4.911   1.678   1.301 -0.8171  0.7090 -0.0774
   71LIG    HB2 1059   4.832   1.662   1.136 -1.3963  0.3566  0.1671
   71LIG     CG 1060   4.969   1.499   1.193  0.0007 -0.3496  0.4302
   71LIG    OD1 1061   4.945   1.381   1.231 -0.4209 -0.2227 -0.0615
   71LIG    OD2 1062   5.076   1.530   1.131  0.5228  0.3812 -0.1876
   71LIG      C 1063   4.638   1.649   1.361 -0.7864  0.3088 -0.3551
   71LIG    OT1 1064   4.517   1.645   1.321 -0.2456 -0.5687  0.6326
   71LIG    OT2 1065   4.678   1.737   1.441 -0.2607 -0.4210  0.5208
   72LIG      N 1066   2.859   2.182   6.092 -0.4347 -0.4334 -0.4853
   72LIG     H1 1067   2.957   2.194   6.125 -0.4705 -0.5229 -0.3466
   72LIG     H2 1068   2.823   2.099   6.145 -0.0939 -1.5413 -1.9105
   72LIG     H3 1069   2.855   2.162   5.990 -2.0616  1.9209 -0.9725
   72LIG     CA 1070   2.761   2.299   6.121  0.5343  0.1158 -0.2987
   72LIG     HA 1071   2.665   2.265   6.157 -0.1155  2.0173 -0.1071
   72LIG     CB 1072   2.836   2.403   6.207 -0.0640  0.3677 -0.2168
   72LIG    HB1 1073   2.794   2.506   6.205 -0.9947  0.0270  0.8330
   72LIG    HB2 1074   2.935   2.407   6.157 -1.3154 -0.7680 -3.0341
   72LIG     CG 1075   2.842   2.358   6.348 -0.7217 -0.1069 -0.1701
   72LIG    OD1 1076   2.781   2.247   6.374  0.6041  0.2613  0.0271
   72LIG    OD2 1077   2.913   2.422   6.428  0.2259 -0.2703 -1.1069
   72LIG      C 1078   2.719   2.359   5.990  0.1019 -0.9233  0.3071
   72LIG    OT1 1079   2.750   2.294   5.886 -0.1266 -0.2657  0.3575
   72LIG    OT2 1080   2.638   2.459   5.980 -0.5873 -0.0502  0.3901
   73LIG      N 1081   5.040   6.443   5.540  0.1843  0.0142  0.3437
   73LIG     H1 1082   4.991   6.389   5.466 -0.1795  0.0376  0.5614
   73LIG     H2 1083   5.116   6.387   5.582  0.8608  0.7381  0.1093
   73LIG     H3 1084   4.982   6.470   5.623  0.6768  1.9885  0.1085
   73LIG     CA 1085   5.075   6.576   5.474  0.0632  0.7669 -0.0187
   73LIG     HA 1086   5.141   6.566   5.389  0.2584 -0.1812  0.2276
   73LIG     CB 1087   4.952   6.656   5.416  0.1398  0.4944 -0.2609
   73LIG    HB1 1088   4.982   6.752   5.371  1.0026 -0.5877 -2.1151
   73LIG    HB2 1089   4.880   6.672   5.499  1.5398  0.4613  1.0048
   73LIG     CG 1090   4.886   6.577   5.306  0.4489 -0.6296 -0.4279
   73LIG    OD1 1091   4.803   6.628   5.233  0.5389 -0.3522  0.0727
   73LIG    OD2 1092   4.921   6.460   5.285  0.4121  0.5714  0.1647
   73LIG      C 1093   5.158   6.672   5.560 -0.1647 -0.4721  0.4722
   73LIG    OT1 1094   5.190   6.638   5.681 -0.4172 -0.0876 -0.0719
   73LIG    OT2 1095   5.197   6.782   5.517  0.1894 -0.0877  0.2542
   74LIG      N 1096   1.493   6.513   9.038 -0.0491 -0.0881  0.3480
   74LIG     H1 1097   1.458   6.567   8.956  0.2132 -0.6728 -0.1541
   74LIG     H2 1098   1.456   6.416   9.034 -0.7098  0.0304  2.5224
   74LIG     H3 1099   1.474   6.561   9.128  0.3189 -0.0257  0.3913
   74LIG     CA 1100   1.639   6.512   9.023  0.4843  0.3152 -0.9679
   74LIG     HA 1101   1.672   6.450   9.104 -0.8106  1.5666  0.5812
   74LIG     CB 1102   1.684   6.440   8.900 -0.1561 -0.5825  0.1632
   74LIG    HB1 1103   1.795   6.433   8.907 -0.2166 -0.4701  1.5777
   74LIG    HB2 1104   1.661   6.487   8.802 -0.1473 -1.7111 -0.3932
   74LIG     CG 1105   1.633   6.305   8.884  0.0853 -0.4135 -0.2156
   74LIG    OD1 1106   1.685   6.232   8.798 -0.5147  0.3780 -0.2222
   74LIG    OD2 1107   1.544   6.260   8.962 -0.4258  0.3448  0.5484
   74LIG      C 1108   1.705   6.652   9.018  0.3413  0.2608  0.2767
   74LIG    OT1 1109   1.627   6.751   8.996 -0.0328  0.2376  0.3421
   74LIG    OT2 1110   1.826   6.670   9.037 -0.1817 -0.4724  0.1197
   75LIG      N 1111   4.241   0.722   1.281 -0.2716  0.2782  0.0124
   75LIG     H1 1112   4.228   0.674   1.372  0.2327  1.6254  0.8217
   75LIG     H2 1113   4.325   0.688   1.230 -0.7135 -0.4056 -0.2911
   75LIG     H3 1114   4.260   0.823   1.295  0.0393  0.5265 -1.8874
   75LIG     CA 1115   4.119   0.716   1.194  0.2618 -0.0659  0.7471
   75LIG     HA 1116   4.036   0.764   1.245 -0.2504 -0.2064  0.0601
   75LIG     CB 1117   4.148   0.810   1.073 -0.1784  0.0650  0.5595
   75LIG    HB1 1118   4.068   0.814   0.996 -0.0241 -2.8330  0.1225
   75LIG    HB2 1119   4.226   0.754   1.017 -1.3024 -0.0105 -0.9998
   75LIG     CG 1120   4.186   0.950   1.114  0.2744 -0.9698  0.1802
   75LIG    OD1 1121   4.216   1.029   1.018  0.6501  0.3114 -0.7802
   75LIG    OD2 1122   4.194   0.990   1.232 -0.0428  0.2209 -0.0590
   75LIG      C 1123   4.068   0.580   1.160  0.4366  0.5752  0.0233
   75LIG    OT1 1124   4.118   0.474   1.207  0.2102  0.0039 -0.1512
   75LIG    OT2 1125   3.978   0.564   1.068 -0.1098  0.2962 -0.0105
   76LIG      N 1126   3.087   4.855   8.459 -0.3460  0.2454 -0.0343
   76LIG     H1 1127   3.158   4.865   8.384 -0.2324 -2.4389 -0.3965
   76LIG     H2 1128   3.052   4.942   8.504 -1.3126 -0.8494  1.4390
   76LIG     H3 1129   3.133   4.803   8.536  0.2238  2.6160  1.3107
   76LIG     CA 1130   2.967   4.774   8.433 -0.2750  1.0773 -0.5409
   76LIG     HA 1131   2.978   4.730   8.335 -0.5566  1.0285 -0.5535
   76LIG     CB 1132   2.945   4.666   8.547 -0.1878 -0.4668 -0.2501
   76LIG    HB1 1133   2.848   4.612   8.540  0.6208 -2.1658  0.9944
   76LIG    HB2 1134   2.933   4.703   8.651 -0.7554 -1.6124  0.1058
   76LIG     CG 1135   3.054   4.562   8.563  0.6547 -0.3513  0.1551
   76LIG    OD1 1136   3.036   4.475   8.645 -0.5241  0.8159 -0.1208
   76LIG    OD2 1137   3.161   4.570   8.497  0.8199  0.2316 -0.4713
   76LIG      C 1138   2.838   4.863   8.438 -0.7159  0.0570  0.2669
   76LIG    OT1 1139   2.848   4.984   8.467  0.4336 -0.0917 -0.3070
   76LIG    OT2 1140   2.735   4.814   8.390  0.1796  0.2186  0.3214
   77LIG      N 1141   2.724   1.337   8.173 -1.1281  0.8576  0.1575
   77LIG     H1 1142   2.798   1.294   8.114 -1.5694  2.8329 -2.0178
   77LIG     H2 1143   2.766   1.377   8.260  1.3305  0.5537 -0.7997
   77LIG     H3 1144   2.658   1.259   8.188  0.6216 -0.3730  1.9108
   77LIG     CA 1145   2.662   1.443   8.085  0.5589  0.7965  0.4783
   77LIG     HA 1146   2.711   1.536   8.110 -2.0380  2.2276  0.6781
   77LIG     CB 1147   2.680   1.399   7.934  0.2264 -0.1450  0.0107
   77LIG    HB1 1148   2.631   1.473   7.866 -0.5276  0.6587  1.3820
   77LIG    HB2 1149   2.630   1.301   7.926  0.0367 -0.1866  1.4425
   77LIG     CG 1150   2.828   1.376   7.894  0.0818 -0.1990  0.2100
   77LIG    OD1 1151   2.912   1.451   7.956  0.4150 -0.9145 -0.0056
   77LIG    OD2 1152   2.862   1.302   7.800 -0.2512  0.4938 -0.3633
   77LIG      C 1153   2.504   1.457   8.105 -0.0375 -0.0599 -0.0811
   77LIG    OT1 1154   2.440   1.365   8.163  0.2070 -0.0849 -0.7925
   77LIG    OT2 1155   2.438   1.551   8.047  0.1941 -0.1510 -0.3881
   78LIG      N 1156   6.240   2.967   8.166 -0.2268 -0.0739  0.1655
   78LIG     H1 1157   6.309   2.989   8.091  1.3024  0.8089  1.7547
   78LIG     H2 1158   6.274   2.997   8.260 -0.8503  0.6981  0.1550
   78LIG     H3 1159   6.240   2.864   8.155  1.8473  0.1597 -3.7633
   78LIG     CA 1160   6.105   3.034   8.159 -0.6277 -0.1019 -0.4487
   78LIG     HA 1161   6.049   3.002   8.245 -0.8106 -0.9566 -0.8777
   78LIG     CB 1162   6.120   3.191   8.173 -0.0397 -0.2882  0.3120
   78LIG    HB1 1163   6.018   3.229   8.158  0.2310  0.2999 -0.0365
   78LIG    HB2 1164   6.190   3.224   8.094 -0.1298  0.2107  0.4400
   78LIG     CG 1165   6.160   3.238   8.310 -0.1811 -0.0266  0.0170
   78LIG    OD1 1166   6.164   3.148   8.395  0.1774 -0.0074  0.1938
   78LIG    OD2 1167   6.191   3.358   8.326 -0.2368 -0.2764  0.0607
   78LIG      C 1168   6.025   2.999   8.034  0.0396  0.0999  0.2503
   78LIG    OT1 1169   6.087   2.932   7.949  0.7883  0.5627 -0.3293
   78LIG    OT2 1170   5.906   3.039   8.021 -0.0430  0.4026  0.6995
   79LIG      N 1171   8.032   7.029   8.468 -0.5719 -1.0353 -0.3626
   79LIG     H1 1172   8.115   6.986   8.423  1.4710  1.6737  0.5342
   79LIG     H2 1173   8.065   7.119   8.508 -1.3533 -0.8985  0.0024
   79LIG     H3 1174   7.990   6.974   8.546  0.7466 -1.3387  0.1649
   79LIG     CA 1175   7.933   7.061   8.359 -0.0122 -0.2579 -0.3373
   79LIG     HA 1176   7.985   7.069   8.265  2.3915  0.9567  1.0160
   79LIG     CB 1177   7.826   6.942   8.355 -0.6026 -0.2366 -0.1790
   79LIG    HB1 1178   7.727   6.979   8.323 -1.3842 -1.7324  0.4012
   79LIG    HB2 1179   7.813   6.909   8.461  2.2035 -1.5076 -0.1242
   79LIG     CG 1180   7.874   6.824   8.280  0.8609  0.4260 -0.1137
   79LIG    OD1 1181   7.814   6.717   8.297 -0.4025 -0.4000 -0.3850
   79LIG    OD2 1182   7.965   6.835   8.199 -0.4340 -0.6427  0.0953
   79LIG      C 1183   7.850   7.188   8.378 -0.5612  0.2026 -0.2922
   79LIG    OT1 1184   7.880   7.273   8.466  0.4322 -0.1944 -0.2914
   79LIG    OT2 1185   7.755   7.209   8.294 -0.2746  0.3025  0.1720
   80LIG      N 1186   6.350   6.258   0.004  0.1987 -0.0301 -0.5935
   80LIG     H1 1187   6.258   6.273   0.049  0.3491 -0.9888  0.0934
   80LIG     H2 1188   6.332   6.303  -0.087 -1.1121  0.5650 -0.0606
   80LIG     H3 1189   6.361   6.159  -0.025  0.1362 -0.0939 -0.4005
   80LIG     CA 1190   6.476   6.309   0.064 -0.2361 -0.4969  0.0537
   80LIG     HA 1191   6.471   6.417   0.062 -0.8952 -0.4840 -2.9159
   80LIG     CB 1192   6.507   6.279   0.211 -0.3526  0.1164  0.2139
   80LIG    HB1 1193   6.596   6.341   0.236 -0.0781  0.6713 -1.9150
   80LIG    HB2 1194   6.529   6.172   0.230 -2.5174  0.1239  3.5999
   80LIG     CG 1195   6.400   6.335   0.293  0.0733  0.1989  0.0729
   80LIG    OD1 1196   6.334   6.434   0.246  0.0570 -0.0128 -0.0837
   80LIG    OD2 1197   6.378   6.283   0.406  0.2556 -0.4763  0.3969
   80LIG      C 1198   6.602   6.289  -0.021  0.0888 -0.8663 -0.1216
   80LIG    OT1 1199   6.590   6.241  -0.135  0.1436 -0.1394  0.7820
   80LIG    OT2 1200   6.715   6.335   0.015 -0.0329  0.0123 -0.5833
   81LIG      N 1201   4.723   6.283   5.208 -0.3996  0.4298 -0.2198
   81LIG     H1 1202   4.634   6.337   5.200 -1.0970 -0.7360 -0.5273
   81LIG     H2 1203   4.793   6.339   5.260 -0.7774  1.2485 -0.5611
   81LIG     H3 1204   4.763   6.272   5.113 -2.3208 -0.3122 -0.9953
   81LIG     CA 1205   4.710   6.157   5.281  0.2318  0.1030 -0.1892
   81LIG     HA 1206   4.814   6.128   5.281 -0.0157 -0.9301  1.3408
   81LIG     CB 1207   4.648   6.174   5.418  0.4114  0.5584  0.1435
   81LIG    HB1 1208   4.617   6.078   5.464 -0.8912  1.0539  0.3408
   81LIG    HB2 1209   4.556   6.232   5.395 -0.4827 -1.1369 -0.7576
   81LIG     CG 1210   4.735   6.245   5.517  0.5750  0.5812 -1.0067
   81LIG    OD1 1211   4.691   6.311   5.616 -0.2636  0.3219  0.4471
   81LIG    OD2 1212   4.862   6.227   5.501  0.6428 -0.1609  0.7058
   81LIG      C 1213   4.640   6.048   5.200  0.6068  0.3044 -0.0169
   81LIG    OT1 1214   4.611   6.063   5.076  0.5119 -0.2131 -0.0198
   81LIG    OT2 1215   4.632   5.940   5.259 -0.3174  0.5723  0.0923
   82LIG      N 1216   5.891   2.004   9.537 -0.1932 -0.7713 -0.1870
   82LIG     H1 1217   5.846   2.098   9.533 -0.6926 -0.9230  1.0824
   82LIG     H2 1218   5.962   1.997   9.612  1.5486 -1.1579 -1.8107
   82LIG     H3 1219   5.925   1.989   9.440 -0.8275  1.8492 -0.9145
   82LIG     CA 1220   5.776   1.916   9.566 -0.9351  0.0308 -0.0545
   82LIG     HA 1221   5.749   1.928   9.670 -2.4481  2.1266 -0.6261
   82LIG     CB 1222   5.656   1.958   9.479  0.2445 -0.2196 -0.3393
   82LIG    HB1 1223   5.565   1.907   9.517  1.2264 -0.6597  1.5743
   82LIG    HB2 1224   5.670   1.932   9.372 -1.9923 -0.1553 -0.6850
   82LIG     CG 1225   5.618   2.110   9.483  0.1779 -0.2364  0.0669
   82LIG    OD1 1226   5.527   2.143   9.404  0.1785 -0.4759  0.1335
   82LIG    OD2 1227   5.677   2.190   9.560  0.9807 -0.3064  0.5148
   82LIG      C 1228   5.807   1.766   9.560  0.8660 -0.2465  0.5102
   82LIG    OT1 1229   5.919   1.720   9.525  0.2091  0.2246 -0.1269
   82LIG    OT2 1230   5.714   1.686   9.578 -0.3673  0.3190 -0.2295
   83LIG      N 1231   2.903   3.604   1.447 -0.7757  0.2164 -0.5466
   83LIG     H1 1232   2.966   3.543   1.390  1.5435  0.9911  1.0356
   83LIG     H2 1233   2.823   3.554   1.490  0.5171 -1.1744  0.3663
   83LIG     H3 1234   2.872   3.686   1.391  3.2796  0.4986 -2.7376
   83LIG     CA 1235   2.974   3.680   1.566  1.0728 -0.1285  0.3628
   83LIG     HA 1236   2.972   3.604   1.643  1.1760 -2.3249 -1.6673
   83LIG     CB 1237   3.110   3.716   1.524  0.3786  0.1166  0.1097
   83LIG    HB1 1238   3.146   3.776   1.610  1.6290  0.0016 -0.3163
   83LIG    HB2 1239   3.112   3.784   1.436 -2.5818 -2.7615 -2.4346
   83LIG     CG 1240   3.206   3.599   1.504  0.5150 -0.8129  0.2181
   83LIG    OD1 1241   3.174   3.486   1.539  0.9242  0.8222  0.3553
   83LIG    OD2 1242   3.316   3.636   1.457  0.1224  0.6016  0.1859
   83LIG      C 1243   2.889   3.797   1.627 -0.8785 -0.0311 -0.2408
   83LIG    OT1 1244   2.790   3.837   1.568 -0.0541  0.0755  0.1627
   83LIG    OT2 1245   2.922   3.842   1.738  0.0797 -0.2233 -0.1790
   84LIG      N 1246   3.353   3.391   8.838  0.2720 -0.5136  0.3203
   84LIG     H1 1247   3.375   3.316   8.770 -1.4586  0.5070 -1.4489
   84LIG     H2 1248   3.322   3.332   8.918 -0.9240 -1.1473 -0.5951
   84LIG     H3 1249   3.271   3.438   8.796  1.0398  0.0762 -0.5524
   84LIG     CA 1250   3.455   3.498   8.879  0.2542  0.4428  0.0038
   84LIG     HA 1251   3.553   3.455   8.866  0.4652  0.8042  0.3916
   84LIG     CB 1252   3.422   3.634   8.805 -0.2895 -0.0177 -0.0399
   84LIG    HB1 1253   3.481   3.716   8.850  0.2788 -0.6096  0.3073
   84LIG    HB2 1254   3.315   3.662   8.812  0.3425  2.2842  1.5194
   84LIG     CG 1255   3.476   3.629   8.664 -0.6912 -0.5365  0.5232
   84LIG    OD1 1256   3.467   3.722   8.580  0.3187 -0.0562  0.1966
   84LIG    OD2 1257   3.550   3.529   8.635  0.2386  0.4929  0.4712
   84LIG      C 1258   3.444   3.518   9.027  0.2217 -0.0611 -0.5545
   84LIG    OT1 1259   3.367   3.452   9.099  0.2629  0.7893 -0.3238
   84LIG    OT2 1260   3.520   3.610   9.079 -0.2575  0.6768 -1.2737
   85LIG      N 1261   7.274   1.084   3.275  0.3106  0.3814  0.3216
   85LIG     H1 1262   7.250   0.999   3.331 -1.6028  0.9198  0.3554
   85LIG     H2 1263   7.197   1.152   3.267 -0.0557 -0.2770 -4.5911
   85LIG     H3 1264   7.278   1.044   3.179  2.6235  0.1012  0.4702
   85LIG     CA 1265   7.396   1.143   3.309  0.2463 -0.0696 -0.1415
   85LIG     HA 1266   7.389   1.171   3.413 -2.2349  0.6226 -0.4408
   85LIG     CB 1267   7.515   1.039   3.299 -0.0311  0.5318 -0.5227
   85LIG    HB1 1268   7.611   1.083   3.334  1.7196 -2.6421 -0.9983
   85LIG    HB2 1269   7.522   0.994   3.198 -2.2599 -0.5391 -0.2676
   85LIG     CG 1270   7.499   0.919   3.406 -0.0453 -0.4161 -0.5712
   85LIG    OD1 1271   7.393   0.908   3.471  0.2119  0.0451  0.3645
   85LIG    OD2 1272   7.591   0.835   3.413 -0.4163 -0.6943 -0.3585
   85LIG      C 1273   7.441   1.262   3.223  1.5075 -0.1779 -0.6735
   85LIG    OT1 1274   7.376   1.292   3.120 -0.0513 -1.0048  0.0780
   85LIG    OT2 1275   7.535   1.334   3.267  0.0591  0.0188 -0.0846
   86LIG      N 1276   3.268   1.759   7.911 -0.0243 -0.3258  0.1368
   86LIG     H1 1277   3.201   1.696   7.959  1.3371 -2.5588 -0.7305
   86LIG     H2 1278   3.226   1.769   7.817  0.0264  0.4464  0.1887
   86LIG     H3 1279   3.351   1.696   7.901 -2.1928 -3.2367 -0.7494
   86LIG     CA 1280   3.282   1.890   7.980 -0.5976 -0.1416 -0.3802
   86LIG     HA 1281   3.193   1.941   7.948 -0.9097 -2.1667 -3.0342
   86LIG     CB 1282   3.310   1.869   8.126  0.2764 -0.0808 -0.7570
   86LIG    HB1 1283   3.348   1.964   8.171  0.9986 -0.8220  0.2375
   86LIG    HB2 1284   3.399   1.806   8.147 -0.4452 -0.8022  0.2133
   86LIG     CG 1285   3.195   1.824   8.215  0.3515 -0.1645 -0.0846
   86LIG    OD1 1286   3.083   1.821   8.157 -0.0768  0.2268  0.1237
   86LIG    OD2 1287   3.211   1.806   8.339  0.3879  0.7295  0.2679
   86LIG      C 1288   3.393   1.984   7.916  0.4128 -0.0807  0.3197
   86LIG    OT1 1289   3.461   1.932   7.822  0.1038 -0.4388 -0.3916
   86LIG    OT2 1290   3.417   2.104   7.947  0.3781 -0.0690 -0.1932
   87LIG      N 1291   4.825   3.778   3.622 -0.1115  0.6139 -0.0732
   87LIG     H1 1292   4.735   3.813   3.583 -0.7819 -1.6799 -0.7631
   87LIG     H2 1293   4.823   3.801   3.724  0.5396  0.0447  0.0736
   87LIG     H3 1294   4.902   3.817   3.565  0.9763 -1.3456 -0.0220
   87LIG     CA 1295   4.828   3.632   3.625 -0.3436 -0.5073  0.4386
   87LIG     HA 1296   4.742   3.601   3.683  0.7660 -0.2800  2.3050
   87LIG     CB 1297   4.809   3.581   3.475 -0.2403  0.1794  0.0671
   87LIG    HB1 1298   4.809   3.470   3.474 -1.9536  0.1565 -0.3314
   87LIG    HB2 1299   4.898   3.612   3.416  0.9588 -1.4059  0.9539
   87LIG     CG 1300   4.672   3.619   3.425 -0.0662 -0.4625 -0.3979
   87LIG    OD1 1301   4.594   3.691   3.497 -0.4799  0.8740 -0.0733
   87LIG    OD2 1302   4.634   3.598   3.309 -0.0518  0.4230 -0.2662
   87LIG      C 1303   4.947   3.588   3.703 -0.3600  0.1241 -0.2528
   87LIG    OT1 1304   5.030   3.663   3.762  0.6305  0.8277  0.3240
   87LIG    OT2 1305   4.972   3.463   3.710 -0.2980  0.3668 -0.8246
   88LIG      N 1306   7.162   1.397   2.995  0.2536  0.5383  0.3201
   88LIG     H1 1307   7.064   1.398   3.029 -0.6114  0.5616 -1.9695
   88LIG     H2 1308   7.166   1.343   2.906  0.1339 -1.4051  1.4509
   88LIG     H3 1309   7.219   1.343   3.063 -2.7554 -1.3930  1.5239
   88LIG     CA 1310   7.205   1.542   2.991  0.1271  0.1060  0.2982
   88LIG     HA 1311   7.303   1.547   2.947 -0.6992  0.1559 -1.6054
   88LIG     CB 1312   7.100   1.623   2.908  0.1014 -0.3340  0.6458
   88LIG    HB1 1313   7.122   1.732   2.917  0.1724 -0.3736  0.9373
   88LIG    HB2 1314   6.992   1.617   2.934 -0.2285 -0.3609 -0.6254
   88LIG     CG 1315   7.119   1.581   2.758 -1.2152 -0.1117 -0.2926
   88LIG    OD1 1316   7.221   1.511   2.728 -0.0133  0.1770 -0.1015
   88LIG    OD2 1317   7.044   1.624   2.671  0.3628 -0.2443  1.0884
   88LIG      C 1318   7.220   1.614   3.125 -0.2100  0.1011  0.3503
   88LIG    OT1 1319   7.176   1.561   3.224 -0.1936 -0.3722 -0.5520
   88LIG    OT2 1320   7.269   1.733   3.124 -0.0673  0.1226 -0.8004
   89LIG      N 1321   8.131   5.608   4.517  0.0838  0.1602 -0.5077
   89LIG     H1 1322   8.103   5.590   4.419  1.3623  0.3213 -0.9172
   89LIG     H2 1323   8.191   5.533   4.555  0.8611  2.3281  3.0675
   89LIG     H3 1324   8.043   5.625   4.571 -0.0745 -1.1520 -0.3178
   89LIG     CA 1325   8.237   5.719   4.501  0.1795 -0.2543  0.0866
   89LIG     HA 1326   8.238   5.769   4.597  1.5453  1.0067 -0.5555
   89LIG     CB 1327   8.367   5.652   4.478  0.1229 -0.2239 -0.0163
   89LIG    HB1 1328   8.444   5.728   4.453  1.3541 -0.6077  2.3636
   89LIG    HB2 1329   8.370   5.582   4.392  1.6788 -2.3579  1.6484
   89LIG     CG 1330   8.415   5.571   4.601  0.7017  0.2027  0.8043
   89LIG    OD1 1331   8.529   5.523   4.599  0.0352  0.2986  0.0885
   89LIG    OD2 1332   8.331   5.559   4.699  0.0559  0.0468  0.0056
   89LIG      C 1333   8.200   5.819   4.384  0.2010  0.3787 -0.2764
   89LIG    OT1 1334   8.087   5.801   4.328 -0.0913 -0.2386 -0.4723
   89LIG    OT2 1335   8.277   5.916   4.356  0.3421  0.1137  0.0519
   90LIG      N 1336   6.736   5.707   7.799  0.2246 -0.2220  0.3454
   90LIG     H1 1337   6.760   5.807   7.813  0.2135 -0.0089 -0.9755
   90LIG     H2 1338   6.692   5.655   7.877 -1.9058  0.0138 -0.6119
   90LIG     H3 1339   6.829   5.666   7.778  0.8769  0.0119  2.5844
   90LIG     CA 1340   6.636   5.681   7.688  0.0838  0.8197 -0.4370
   90LIG     HA 1341   6.541   5.729   7.707  0.2067  0.6803  0.5609
   90LIG     CB 1342   6.696   5.737   7.555  0.1231 -0.1294  0.3447
   90LIG    HB1 1343   6.633   5.698   7.472 -2.3649  2.2179  0.9593
   90LIG    HB2 1344   6.800   5.699   7.550  0.1768  0.1556 -1.7563
   90LIG     CG 1345   6.677   5.885   7.536  0.5772 -0.1801 -0.0179
   90LIG    OD1 1346   6.701   5.935   7.420 -0.0489 -0.4089 -0.2921
   90LIG    OD2 1347   6.634   5.952   7.633 -0.0499 -0.6592  0.0938
   90LIG      C 1348   6.609   5.529   7.688 -0.0229  0.6463 -0.2431
   90LIG    OT1 1349   6.671   5.448   7.762  0.2655 -0.7041  0.2253
   90LIG    OT2 1350   6.519   5.486   7.610 -0.7079 -0.0338 -0.1719
   91LIG      N 1351   2.314   1.547   3.761 -1.0026 -0.2193 -0.0427
   91LIG     H1 1352   2.320   1.483   3.679 -1.3174  0.4518 -0.6008
   91LIG     H2 1353   2.315   1.647   3.733  1.6156 -0.4780 -1.1485
   91LIG     H3 1354   2.405   1.543   3.811  0.0478  2.3565 -1.5681
   91LIG     CA 1355   2.202   1.510   3.853 -0.6679  0.2695  0.8513
   91LIG     HA 1356   2.111   1.553   3.815 -0.4376  1.1660  1.3009
   91LIG     CB 1357   2.189   1.357   3.857  0.5116  0.7527  0.7886
   91LIG    HB1 1358   2.121   1.321   3.938 -0.8207  1.1711 -0.1053
   91LIG    HB2 1359   2.289   1.311   3.869  1.3303  1.9907 -0.8522
   91LIG     CG 1360   2.124   1.293   3.737 -0.5859  0.1989  0.0538
   91LIG    OD1 1361   2.081   1.361   3.642  0.8911 -0.4160  0.5582
   91LIG    OD2 1362   2.108   1.167   3.742  0.7371 -0.3627  0.1657
   91LIG      C 1363   2.224   1.548   3.994  0.5575 -0.1681 -0.4435
   91LIG    OT1 1364   2.335   1.593   4.026  0.3904  0.0546 -0.6661
   91LIG    OT2 1365   2.128   1.531   4.073 -0.3357  0.4749 -0.2677
   92LIG      N 1366   2.949   5.962   3.994  0.0153 -1.0794  0.1572
   92LIG     H1 1367   2.951   5.872   3.942  0.6441 -0.8236 -0.2728
   92LIG     H2 1368   3.007   6.033   3.946 -0.3641 -0.0580  1.1612
   92LIG     H3 1369   2.984   5.946   4.091 -0.1742 -1.3058  0.1898
   92LIG     CA 1370   2.804   6.002   3.994  0.1164 -0.1124  0.5457
   92LIG     HA 1371   2.750   5.914   4.025  0.8063 -1.2843 -1.3586
   92LIG     CB 1372   2.781   6.126   4.083 -0.5456 -0.3118 -0.2543
   92LIG    HB1 1373   2.679   6.171   4.079  0.5588  2.5366  0.9766
   92LIG    HB2 1374   2.845   6.212   4.055  0.8573 -1.1246  0.3912
   92LIG     CG 1375   2.811   6.100   4.228 -0.4262  0.1241 -0.5012
   92LIG    OD1 1376   2.843   5.983   4.267 -0.0796  0.4228 -0.2841
   92LIG    OD2 1377   2.802   6.198   4.307 -0.2814  0.3582 -0.0074
   92LIG      C 1378   2.744   6.022   3.842  0.6384  0.0475 -0.3955
   92LIG    OT1 1379   2.813   6.024   3.737  0.0663 -0.0127 -0.4306
   92LIG    OT2 1380   2.619   6.016   3.834 -0.2976 -0.1637  0.2381
   93LIG      N 1381   3.509   4.063   5.241  0.1498 -0.0850  0.9956
   93LIG     H1 1382   3.602   4.106   5.256  0.8520 -1.5880  1.1454
   93LIG     H2 1383   3.521   3.985   5.173 -2.1411 -1.1360  1.6737
   93LIG     H3 1384   3.447   4.132   5.194  2.5243  1.0432 -0.6158
   93LIG     CA 1385   3.460   4.012   5.372 -0.2026 -0.6909  0.1698
   93LIG     HA 1386   3.358   3.980   5.359 -0.6399  1.3176 -2.2022
   93LIG     CB 1387   3.554   3.892   5.421 -0.1658 -0.1555  0.0816
   93LIG    HB1 1388   3.545   3.884   5.531  0.8839  3.6468  0.5856
   93LIG    HB2 1389   3.662   3.908   5.404 -0.0090 -2.3566 -1.3529
   93LIG     CG 1390   3.527   3.761   5.360  0.0805  0.8009  0.9604
   93LIG    OD1 1391   3.608   3.666   5.379 -0.7271 -0.1846  0.5116
   93LIG    OD2 1392   3.413   3.734   5.307  0.3285  0.0264  0.4153
   93LIG      C 1393   3.446   4.118   5.483  0.3197 -0.4916 -0.8572
   93LIG    OT1 1394   3.476   4.239   5.455  0.0455  0.2920  0.1159
   93LIG    OT2 1395   3.414   4.082   5.601  0.4085 -0.2248 -0.2229
   94LIG      N 1396   1.492   3.112   0.613  0.4470 -0.3946  0.2513
   94LIG     H1 1397   1.433   3.176   0.556 -0.9881 -0.8800  1.1192
   94LIG     H2 1398   1.574   3.086   0.555  0.5307  0.3538  0.0248
   94LIG     H3 1399   1.425   3.037   0.642 -3.1631  2.6216  0.4787
   94LIG     CA 1400   1.540   3.185   0.737  0.7583 -0.8840  0.0564
   94LIG     HA 1401   1.456   3.209   0.799  0.5286  0.5389 -0.7617
   94LIG     CB 1402   1.649   3.087   0.795  0.3942  0.1063 -0.2718
   94LIG    HB1 1403   1.726   3.137   0.857 -1.0158  3.4327 -1.0023
   94LIG    HB2 1404   1.713   3.038   0.719  1.3932 -0.0616  0.6581
   94LIG     CG 1405   1.594   2.974   0.874  0.6998  0.5719  0.1829
   94LIG    OD1 1406   1.675   2.920   0.950  0.1157  0.2556 -0.3753
   94LIG    OD2 1407   1.481   2.921   0.839  0.4944 -0.0208  0.1215
   94LIG      C 1408   1.602   3.321   0.707  0.0153  0.2862 -0.2726
   94LIG    OT1 1409   1.592   3.370   0.589 -0.0691 -0.0346  0.3383
   94LIG    OT2 1410   1.663   3.379   0.800  0.5267 -0.1188  0.3111
   95LIG      N 1411   5.122   5.610   4.880 -0.6246 -0.0102  0.2130
   95LIG     H1 1412   5.060   5.550   4.821 -0.7352 -0.2609  0.5835
   95LIG     H2 1413   5.158   5.701   4.844 -0.5342 -0.8485 -2.0050
   95LIG     H3 1414   5.193   5.554   4.930 -0.2914  1.9142  2.0168
   95LIG     CA 1415   5.035   5.665   4.990 -0.5327 -0.0949 -0.9287
   95LIG     HA 1416   5.100   5.687   5.073  1.0690 -5.7985 -0.2698
   95LIG     CB 1417   4.949   5.784   4.945  0.0927  0.2739 -0.2018
   95LIG    HB1 1418   4.900   5.836   5.030 -1.4705 -1.2270 -0.1538
   95LIG    HB2 1419   4.870   5.749   4.876 -0.7521 -2.8461  2.1325
   95LIG     CG 1420   5.037   5.888   4.870  0.6515  0.6819  0.0505
   95LIG    OD1 1421   5.150   5.867   4.839 -0.2695  0.2496  0.3127
   95LIG    OD2 1422   4.973   5.988   4.830  0.1237  0.2487 -0.1757
   95LIG      C 1423   4.935   5.554   5.033  0.1724  0.4420 -0.7577
   95LIG    OT1 1424   4.945   5.438   4.980 -0.4106  0.1458 -0.6922
   95LIG    OT2 1425   4.854   5.583   5.125 -1.0612 -0.0953  0.6494
   96LIG      N 1426   0.370   9.450   9.571  0.2883  0.0945 -0.0959
   96LIG     H1 1427   0.454   9.436   9.512 -1.1334 -2.1979 -1.7033
   96LIG     H2 1428   0.372   9.401   9.663 -0.6826 -0.1741 -0.2093
   96LIG     H3 1429   0.288   9.402   9.530 -0.7447  1.8454 -0.2115
   96LIG     CA 1430   0.340   9.593   9.598  0.0857 -0.1950 -0.6662
   96LIG     HA 1431   0.232   9.589   9.597  0.0236  1.0795 -1.6230
   96LIG     CB 1432   0.414   9.629   9.733  0.1514  0.7504 -0.2090
   96LIG    HB1 1433   0.395   9.737   9.753  0.7907  1.2057 -1.9116
   96LIG    HB2 1434   0.525   9.635   9.728  0.3928  1.9522  3.4122
   96LIG     CG 1435   0.374   9.543   9.850  0.1663  0.6636 -0.1032
   96LIG    OD1 1436   0.335   9.423   9.833 -0.2532 -0.4132 -0.2570
   96LIG    OD2 1437   0.393   9.590   9.965  0.0740 -0.1455 -0.2815
   96LIG      C 1438   0.392   9.691   9.489  0.5055 -0.6984 -0.6899
   96LIG    OT1 1439   0.441   9.635   9.385 -0.4201  0.2212  0.8514
   96LIG    OT2 1440   0.396   9.818   9.510 -0.0225  0.2216 -0.5766
   97LIG      N 1441   1.985   2.487   0.052  0.1032 -0.2698  0.1484
   97LIG     H1 1442   1.909   2.557   0.037 -0.0198 -0.3676  0.3060
   97LIG     H2 1443   1.947   2.395   0.021 -0.8941  0.3904 -0.6578
   97LIG     H3 1444   1.989   2.479   0.156 -0.3755 -2.1002  0.0606
   97LIG     CA 1445   2.102   2.523  -0.022 -1.1391  0.6209 -1.4799
   97LIG     HA 1446   2.137   2.620   0.009  2.7708 -0.6454 -1.3403
   97LIG     CB 1447   2.218   2.414   0.010  0.5906  0.2758 -0.1624
   97LIG    HB1 1448   2.308   2.432  -0.052  0.9922 -0.7051  0.1115
   97LIG    HB2 1449   2.178   2.310   0.003 -0.4415  0.5596  1.0790
   97LIG     CG 1450   2.265   2.431   0.154 -0.3195 -0.0512 -0.1833
   97LIG    OD1 1451   2.373   2.372   0.188  0.3848  0.1073 -0.1708
   97LIG    OD2 1452   2.198   2.495   0.238  0.1608  0.5807  0.3841
   97LIG      C 1453   2.082   2.534  -0.176 -0.2501  1.0517  0.3810
   97LIG    OT1 1454   1.967   2.539  -0.228  0.0509 -0.5859  0.2097
   97LIG    OT2 1455   2.187   2.542  -0.251  0.3652 -0.2725  0.0254
   98LIG      N 1456   7.681   2.715   4.393 -0.1967 -0.3669 -0.7976
   98LIG     H1 1457   7.753   2.641   4.377  0.6132 -0.5473  2.7956
   98LIG     H2 1458   7.590   2.679   4.429 -0.1738 -0.0711 -0.4342
   98LIG     H3 1459   7.652   2.742   4.297  2.1256 -1.6149 -1.9406
   98LIG     CA 1460   7.734   2.820   4.487  0.0329  0.4325  0.2301
   98LIG     HA 1461   7.830   2.856   4.452  1.0334 -1.7152  0.5749
   98LIG     CB 1462   7.620   2.925   4.497  0.9253  0.1420 -0.8129
   98LIG    HB1 1463   7.639   2.998   4.579 -1.6062 -0.7070  0.6473
   98LIG    HB2 1464   7.524   2.873   4.517  1.0338  0.6115  1.1901
   98LIG     CG 1465   7.598   3.000   4.373 -0.3027 -0.7149  0.3125
   98LIG    OD1 1466   7.497   3.071   4.359 -0.2152 -0.7804 -0.6995
   98LIG    OD2 1467   7.681   2.982   4.282  0.4301 -0.2486 -0.1161
   98LIG      C 1468   7.753   2.756   4.627  0.4465  0.6125 -1.0220
   98LIG    OT1 1469   7.730   2.631   4.648 -0.5582  0.1055  0.3434
   98LIG    OT2 1470   7.788   2.833   4.722  0.0416  0.2836  0.5149
   99LIG      N 1471   6.516   7.736   7.086 -0.2649 -0.3639 -0.0535
   99LIG     H1 1472   6.603   7.746   7.142 -0.9381  2.0787  0.6815
   99LIG     H2 1473   6.534   7.777   6.992  1.8973 -1.0375 -0.0014
   99LIG     H3 1474   6.438   7.780   7.138  0.1764  0.3562  0.0110
   99LIG     CA 1475   6.492   7.596   7.058  0.0557  0.5013  0.1955
   99LIG     HA 1476   6.540   7.535   7.134 -0.2978  0.3686  0.3149
   99LIG     CB 1477   6.337   7.561   7.044  0.0932  0.6725 -0.3409
   99LIG    HB1 1478   6.322   7.454   7.021  0.7255  0.5853 -0.3463
   99LIG    HB2 1479   6.285   7.624   6.967 -2.9916  0.2051  1.2061
   99LIG     CG 1480   6.261   7.589   7.173  0.9807 -0.6244  0.0570
   99LIG    OD1 1481   6.137   7.569   7.178 -0.3744 -0.6769  0.2885
   99LIG    OD2 1482   6.317   7.637   7.275  0.4431  0.6482 -0.2888
   99LIG      C 1483   6.554   7.561   6.923  0.2127 -0.3075  0.1327
   99LIG    OT1 1484   6.586   7.651   6.845  0.1907  0.0992  0.4252
   99LIG    OT2 1485   6.581   7.437   6.895  0.0327 -0.0957  0.8081
  100LIG      N 1486   2.928   5.433   9.435 -0.4442  0.7415 -0.2291
  100LIG     H1 1487   2.872   5.513   9.398 -0.5120  0.7665 -0.0739
  100LIG     H2 1488   2.954   5.372   9.356  1.0733  0.4645  0.4628
  100LIG     H3 1489   2.857   5.382   9.492  0.8835  0.4485  1.2120
  100LIG     CA 1490   3.027   5.487   9.529  0.2454 -0.1352 -0.3804
  100LIG     HA 1491   3.007   5.450   9.629  0.0240 -0.9443 -0.7128
  100LIG     CB 1492   3.171   5.425   9.498  0.2524  0.5986  0.2524
  100LIG    HB1 1493   3.243   5.448   9.579 -2.3384 -1.2275  3.3450
  100LIG    HB2 1494   3.204   5.462   9.398  2.2556  0.2333  0.7568
  100LIG     CG 1495   3.174   5.280   9.493  0.2519 -0.0812 -0.5088
  100LIG    OD1 1496   3.089   5.204   9.539 -0.3706  0.2260 -0.5354
  100LIG    OD2 1497   3.279   5.228   9.447  0.2652 -0.2607  0.2078
  100LIG      C 1498   3.027   5.644   9.536 -1.4791  0.1494 -0.0899
  100LIG    OT1 1499   2.972   5.712   9.445 -0.5311 -0.0435 -0.0214
  100LIG    OT2 1500   3.098   5.692   9.628  0.0298  0.1784 -0.1016
  101LIG      N 1501   8.412   4.005   7.918 -0.8082  0.3073  0.2907
  101LIG     H1 1502   8.516   4.013   7.914 -0.9289  1.5035 -0.7749
  101LIG     H2 1503   8.362   3.957   7.840 -1.5163  1.8187 -0.2171
  101LIG     H3 1504   8.375   4.102   7.926 -1.1868  0.1214  0.9243
  101LIG     CA 1505   8.370   3.936   8.047 -0.8934  0.2292  0.2347
  101LIG     HA 1506   8.453   3.876   8.082 -0.8978  0.0168 -0.1147
  101LIG     CB 1507   8.319   4.034   8.152  0.5046 -0.4876 -0.5724
  101LIG    HB1 1508   8.280   3.967   8.231 -2.6906  1.3264 -0.4309
  101LIG    HB2 1509   8.228   4.091   8.124 -0.8717 -1.0230  2.4529
  101LIG     CG 1510   8.432   4.112   8.201 -0.0864 -0.1013 -0.7950
  101LIG    OD1 1511   8.546   4.127   8.146  0.1036 -0.8049 -0.3267
  101LIG    OD2 1512   8.408   4.190   8.301 -0.4761 -0.5710  0.9391
  101LIG      C 1513   8.256   3.836   8.007  0.4336 -0.1018  0.6346
  101LIG    OT1 1514   8.198   3.844   7.891  0.1536  0.1380  0.4022
  101LIG    OT2 1515   8.225   3.741   8.081 -0.2629  0.8942  0.1350
  102LIG      N 1516   1.330   0.874   2.025 -0.3511  0.0943 -0.5703
  102LIG     H1 1517   1.404   0.850   1.957 -1.3242 -2.0439 -0.9668
  102LIG     H2 1518   1.346   0.809   2.105 -2.6608 -0.9192 -0.8255
  102LIG     H3 1519   1.243   0.838   1.981 -0.5048 -0.9510  0.5100
  102LIG     CA 1520   1.319   1.018   2.047 -0.5015  0.9129 -0.0638
  102LIG     HA 1521   1.417   1.047   2.080 -0.0920  0.5880 -0.9486
  102LIG     CB 1522   1.263   1.082   1.920 -0.0686  0.1432  0.2296
  102LIG    HB1 1523   1.229   1.186   1.941 -1.8484  0.0660 -1.8806
  102LIG    HB2 1524   1.176   1.025   1.880  0.2434 -0.7862  0.8525
  102LIG     CG 1525   1.373   1.079   1.815 -0.5909  0.4098 -1.1388
  102LIG    OD1 1526   1.342   1.117   1.704 -0.2843  0.7323  0.1850
  102LIG    OD2 1527   1.486   1.038   1.847 -0.2680  0.0006 -0.0687
  102LIG      C 1528   1.218   1.046   2.168  0.3438  0.3603 -0.6014
  102LIG    OT1 1529   1.169   0.958   2.243 -0.3690 -0.4510 -0.4550
  102LIG    OT2 1530   1.195   1.172   2.189 -0.4320  0.1529  0.1903
  103LIG      N 1531   3.315   5.935   7.579 -0.2584 -0.3894 -0.4401
  103LIG     H1 1532   3.221   5.922   7.621 -0.1369 -0.7389 -0.2752
  103LIG     H2 1533   3.381   5.910   7.655 -1.5965 -1.1468  0.4995
  103LIG     H3 1534   3.327   6.034   7.547 -0.0451 -0.7825 -1.6274
  103LIG     CA 1535   3.342   5.847   7.468  0.4440  0.0537  0.1066
  103LIG     HA 1536   3.446   5.837   7.441  0.0522  1.1214 -2.0837
  103LIG     CB 1537   3.303   5.703   7.515 -0.3195 -0.9164 -0.4755
  103LIG    HB1 1538   3.323   5.631   7.433  0.4783 -1.5000  0.2131
  103LIG    HB2 1539   3.197   5.704   7.546 -0.0722  4.6480  1.3869
  103LIG     CG 1540   3.401   5.671   7.627  0.5812  0.4424 -0.8003
  103LIG    OD1 1541   3.393   5.551   7.661  0.4319  0.2689 -0.0189
  103LIG    OD2 1542   3.485   5.750   7.683  0.1046  0.1198 -0.6905
  103LIG      C 1543   3.269   5.873   7.334  1.1228 -0.7402 -0.5205
  103LIG    OT1 1544   3.188   5.970   7.331  0.0646  0.0314 -0.0366
  103LIG    OT2 1545   3.289   5.793   7.241  0.3925 -0.2236  0.3845
  104LIG      N 1546   1.244   0.042   6.015  0.4074  0.5562  0.6820
  104LIG     H1 1547   1.324   0.007   5.959  0.5998  3.1885 -0.8297
  104LIG     H2 1548   1.219  -0.017   6.096 -1.4504  0.1413 -0.1431
  104LIG     H3 1549   1.163   0.043   5.949  0.4224 -0.7996  0.6201
  104LIG     CA 1550   1.264   0.190   6.057 -0.9210  0.1774  0.0786
  104LIG     HA 1551   1.287   0.243   5.966 -0.9203 -0.4556 -0.2944
  104LIG     CB 1552   1.136   0.246   6.130 -0.1070 -0.2317 -0.7324
  104LIG    HB1 1553   1.149   0.352   6.161  1.4615 -0.5655 -0.1805
  104LIG    HB2 1554   1.124   0.180   6.218  2.5767  2.2137  1.6443
  104LIG     CG 1555   1.014   0.252   6.038  0.1189  0.2559  0.2197
  104LIG    OD1 1556   0.913   0.281   6.095  0.1290 -0.0303  0.5197
  104LIG    OD2 1557   1.023   0.231   5.916 -0.0239  0.5238  0.1191
  104LIG      C 1558   1.385   0.212   6.155 -0.0896 -0.2139 -0.2570
  104LIG    OT1 1559   1.447   0.107   6.192 -0.2914 -0.6671 -0.3444
  104LIG    OT2 1560   1.426   0.329   6.180  0.2852  0.3739 -0.2451
  105LIG      N 1561   0.181   7.810   4.640  0.6006 -0.3901  0.0142
  105LIG     H1 1562   0.276   7.773   4.619 -0.0568 -3.6363  2.0379
  105LIG     H2 1563   0.191   7.913   4.632  1.6162 -0.3537  1.4856
  105LIG     H3 1564   0.155   7.778   4.735  0.1958 -1.3697 -0.4046
  105LIG     CA 1565   0.086   7.763   4.526 -0.0061 -0.7386 -0.2843
  105LIG     HA 1566   0.112   7.661   4.503  2.2187  0.0048 -1.2797
  105LIG     CB 1567  -0.063   7.790   4.577 -0.8047 -0.0575  0.0892
  105LIG    HB1 1568  -0.138   7.812   4.498  0.6455 -3.0870 -2.3474
  105LIG    HB2 1569  -0.073   7.866   4.657  0.0757  1.2273 -0.9815
  105LIG     CG 1570  -0.114   7.659   4.630 -0.4876 -1.0283 -0.0212
  105LIG    OD1 1571  -0.034   7.571   4.678  0.1048 -0.2055  0.2311
  105LIG    OD2 1572  -0.237   7.637   4.635 -0.5729 -0.1056  0.1733
  105LIG      C 1573   0.101   7.845   4.389  0.6464 -0.3055  0.8841
  105LIG    OT1 1574   0.148   7.961   4.394  0.1608 -0.1989  0.3840
  105LIG    OT2 1575   0.048   7.797   4.284  0.4554  0.9632  0.2171
  106LIG      N 1576   5.954   8.361   5.957 -0.3921  0.0894  0.4567
  106LIG     H1 1577   5.922   8.291   5.887  1.3501 -1.4686  1.1306
  106LIG     H2 1578   6.050   8.400   5.948 -0.2989  0.1545  1.5720
  106LIG     H3 1579   5.948   8.316   6.051  1.5557  1.8556  1.5279
  106LIG     CA 1580   5.852   8.479   5.943 -0.2316  0.0854  0.4159
  106LIG     HA 1581   5.858   8.536   6.035 -2.0113  0.3061  0.4293
  106LIG     CB 1582   5.878   8.572   5.818  0.5342  0.5128  0.0935
  106LIG    HB1 1583   5.792   8.635   5.787 -0.5676 -0.1316  1.6874
  106LIG    HB2 1584   5.875   8.495   5.738 -2.1089 -1.8585  2.2661
  106LIG     CG 1585   6.011   8.643   5.825 -0.0309  0.0582  0.5892
  106LIG    OD1 1586   6.085   8.647   5.925 -0.4200 -0.2522 -0.1490
  106LIG    OD2 1587   6.038   8.709   5.720  0.1421 -0.0850 -0.1936
  106LIG      C 1588   5.711   8.410   5.937 -0.7959  0.0933  0.0542
  106LIG    OT1 1589   5.708   8.286   5.927  0.0620  0.3369 -0.0495
  106LIG    OT2 1590   5.606   8.477   5.954 -0.3718 -0.6376 -0.3359
  107LIG      N 1591   1.168   1.273   0.198  0.1616  0.0018  0.8700
  107LIG     H1 1592   1.108   1.350   0.233 -0.4494  0.5000 -1.1561
  107LIG     H2 1593   1.260   1.283   0.245  0.6819 -0.8317  0.0556
  107LIG     H3 1594   1.177   1.288   0.096 -1.9035 -1.8423  0.3424
  107LIG     CA 1595   1.107   1.141   0.223  0.3848  0.3637  0.3998
  107LIG     HA 1596   1.009   1.138   0.179  0.9982  2.1193 -1.2102
  107LIG     CB 1597   1.186   1.027   0.155 -0.5585  0.1660  0.5235
  107LIG    HB1 1598   1.133   0.932   0.178 -0.4410 -0.1105 -0.3162
  107LIG    HB2 1599   1.294   1.024   0.182 -0.7499  0.6120  1.3528
  107LIG     CG 1600   1.184   1.048   0.005 -0.2183  0.0280 -0.0197
  107LIG    OD1 1601   1.152   1.157  -0.047  0.0268 -0.0609 -0.0284
  107LIG    OD2 1602   1.208   0.945  -0.060  0.2220 -0.2416  0.3935
  107LIG      C 1603   1.095   1.107   0.367  0.9931  0.2252 -0.2543
  107LIG    OT1 1604   1.152   1.183   0.445  0.1256 -0.0234 -0.0740
  107LIG    OT2 1605   1.022   1.013   0.412 -0.6205 -0.6203 -0.3333
  108LIG      N 1606   2.930   4.523   2.549  0.6787  0.1744  0.3849
  108LIG     H1 1607   2.972   4.572   2.630  0.6868 -0.2004  0.6088
  108LIG     H2 1608   2.957   4.572   2.462  0.7283  1.1413  0.9307
  108LIG     H3 1609   2.830   4.551   2.554  1.1357  1.7384  1.5839
  108LIG     CA 1610   2.962   4.372   2.540 -0.3588 -0.0715 -0.2310
  108LIG     HA 1611   3.069   4.363   2.553 -0.1137  0.8903 -1.3858
  108LIG     CB 1612   2.883   4.292   2.643  0.6710  0.4211 -0.2622
  108LIG    HB1 1613   2.892   4.182   2.636 -1.0698  0.3204 -1.6801
  108LIG    HB2 1614   2.775   4.296   2.614  0.8773 -0.1155 -1.1414
  108LIG     CG 1615   2.916   4.326   2.787 -0.2312  0.1162 -0.0183
  108LIG    OD1 1616   3.020   4.396   2.807  0.1594  0.1040  0.0305
  108LIG    OD2 1617   2.846   4.278   2.879  0.3836 -0.4578 -0.7891
  108LIG      C 1618   2.929   4.326   2.396 -0.2635  0.3959  0.1243
  108LIG    OT1 1619   2.887   4.402   2.309 -0.1853 -0.0276  0.2398
  108LIG    OT2 1620   2.946   4.202   2.375 -0.3466  0.3788  0.0082
  109LIG      N 1621   2.228   0.445   0.668  0.4138  0.4175 -0.5924
  109LIG     H1 1622   2.193   0.347   0.676  0.4537  0.5381  1.6055
  109LIG     H2 1623   2.200   0.502   0.585  0.4700  1.1034 -0.1414
  109LIG     H3 1624   2.331   0.434   0.675  0.3907  0.1224 -0.6667
  109LIG     CA 1625   2.172   0.501   0.798 -0.0309  1.1876  0.5038
  109LIG     HA 1626   2.213   0.600   0.809  2.7335  0.2050 -0.1162
  109LIG     CB 1627   2.012   0.493   0.779 -0.0962 -0.2829  0.7968
  109LIG    HB1 1628   1.972   0.541   0.870 -1.4869  1.4097 -0.6415
  109LIG    HB2 1629   1.976   0.388   0.773  3.9213 -1.7999 -0.5344
  109LIG     CG 1630   1.962   0.566   0.658 -0.9564  0.1705  0.0848
  109LIG    OD1 1631   1.838   0.560   0.642 -0.3157  0.2656 -0.1191
  109LIG    OD2 1632   2.042   0.624   0.582 -0.2616 -0.4056 -0.3886
  109LIG      C 1633   2.211   0.422   0.920  0.0205  0.7168 -0.0339
  109LIG    OT1 1634   2.281   0.315   0.905 -0.3874 -0.3729  0.1779
  109LIG    OT2 1635   2.179   0.474   1.035 -0.0918 -0.6890  0.6511
  110LIG      N 1636   9.194   7.252   7.401  0.8259 -0.9311 -0.1548
  110LIG     H1 1637   9.294   7.271   7.420  0.1499  1.9136  0.8834
  110LIG     H2 1638   9.198   7.155   7.363  3.0917 -1.7062  1.8119
  110LIG     H3 1639   9.159   7.317   7.328 -0.8454  0.9190  2.1737
  110LIG     CA 1640   9.116   7.267   7.525  0.0496 -0.9217 -0.0004
  110LIG     HA 1641   9.013   7.255   7.495  0.1030 -0.2640 -0.4818
  110LIG     CB 1642   9.170   7.166   7.626 -0.8331 -0.2470 -0.3821
  110LIG    HB1 1643   9.123   7.181   7.726  3.2750 -2.3579  2.1321
  110LIG    HB2 1644   9.278   7.161   7.652 -0.4421 -0.5823 -1.9293
  110LIG     CG 1645   9.118   7.030   7.577 -0.8670 -0.2935 -0.0026
  110LIG    OD1 1646   9.080   7.003   7.460 -0.2436  0.1475 -0.0364
  110LIG    OD2 1647   9.123   6.940   7.666 -0.3900  0.3607  0.5412
  110LIG      C 1648   9.120   7.415   7.595  0.1564  0.3197  0.4098
  110LIG    OT1 1649   9.179   7.512   7.545  0.2513 -0.1706  0.0809
  110LIG    OT2 1650   9.055   7.428   7.702  0.3289  0.0131  0.3602
  111LIG      N 1651   1.772   5.652   2.068 -0.8699 -0.0035  0.3341
  111LIG     H1 1652   1.732   5.707   2.147  0.6171  0.4218  0.8144
  111LIG     H2 1653   1.773   5.703   1.977 -2.0089  0.5122  0.5873
  111LIG     H3 1654   1.702   5.577   2.055  0.3452 -0.7560 -2.9362
  111LIG     CA 1655   1.892   5.604   2.126 -0.4901  0.4235 -0.3893
  111LIG     HA 1656   1.861   5.526   2.194 -0.7083  1.8479  1.2154
  111LIG     CB 1657   1.981   5.540   2.008 -1.0218  0.5830 -0.7058
  111LIG    HB1 1658   2.072   5.496   2.054 -0.5072  2.3114  0.0341
  111LIG    HB2 1659   2.009   5.624   1.940  0.7972 -0.2314 -1.0194
  111LIG     CG 1660   1.915   5.429   1.934  0.2177 -0.4743  0.0772
  111LIG    OD1 1661   1.795   5.407   1.960 -0.2220 -0.3735  0.9952
  111LIG    OD2 1662   1.973   5.361   1.845  0.3778  0.3449 -0.0447
  111LIG      C 1663   1.954   5.701   2.233  0.1707  0.3221  0.7780
  111LIG    OT1 1664   1.885   5.796   2.272  0.2942  0.1716 -0.0399
  111LIG    OT2 1665   2.069   5.678   2.274 -0.0565  0.2212  0.2447
  112LIG      N 1666   8.595   1.410   9.168  0.4898 -0.1625 -0.0585
  112LIG     H1 1667   8.637   1.491   9.219  1.4047 -0.1354 -0.8185
  112LIG     H2 1668   8.670   1.344   9.139 -1.5135 -2.0524 -1.2035
  112LIG     H3 1669   8.542   1.440   9.084  2.1398 -1.0353 -1.4752
  112LIG     CA 1670   8.516   1.331   9.262 -0.0878  0.1914  0.3103
  112LIG     HA 1671   8.467   1.248   9.214 -1.3693 -0.4854  2.6189
  112LIG     CB 1672   8.603   1.270   9.376 -0.3988 -0.0079 -0.6873
  112LIG    HB1 1673   8.544   1.199   9.438 -1.3567  1.4893  0.1820
  112LIG    HB2 1674   8.636   1.348   9.447  2.7791 -0.9120 -1.0339
  112LIG     CG 1675   8.726   1.200   9.337  0.1476  0.1071  0.2340
  112LIG    OD1 1676   8.736   1.170   9.215 -0.1751 -0.1162  0.0659
  112LIG    OD2 1677   8.812   1.165   9.423 -0.1544  0.1510  0.1305
  112LIG      C 1678   8.407   1.420   9.324 -0.8281 -0.3156  0.0126
  112LIG    OT1 1679   8.381   1.536   9.303 -0.4909 -0.3444 -1.2619
  112LIG    OT2 1680   8.332   1.353   9.406  0.0856 -0.3107  0.1018
  113LIG      N 1681   5.240   2.579   5.759 -0.6048 -0.3283 -0.2269
  113LIG     H1 1682   5.232   2.529   5.669  1.8657 -3.0619  0.8838
  113LIG     H2 1683   5.308   2.657   5.745 -1.3387  0.0476 -1.9212
  113LIG     H3 1684   5.278   2.502   5.818  1.0638 -0.7536 -1.7525
  113LIG     CA 1685   5.114   2.644   5.817 -0.5929  0.1011  0.9563
  113LIG     HA 1686   5.139   2.689   5.912  3.5733  1.5637 -0.6312
  113LIG     CB 1687   5.063   2.752   5.718  0.3948  0.0669 -0.4214
  113LIG    HB1 1688   4.964   2.777   5.763  0.6295  2.7367 -1.2274
  113LIG    HB2 1689   5.052   2.710   5.616  0.1747  0.2224 -0.4613
  113LIG     CG 1690   5.151   2.870   5.724  0.0643 -0.4293 -0.2520
  113LIG    OD1 1691   5.123   2.970   5.659  0.0338  0.5619 -0.7538
  113LIG    OD2 1692   5.268   2.869   5.785  0.3829  0.0292  0.3466
  113LIG      C 1693   5.004   2.538   5.845 -0.0971  0.0296 -0.5919
  113LIG    OT1 1694   5.007   2.417   5.809 -0.5181  0.0563 -0.2693
  113LIG    OT2 1695   4.906   2.576   5.920 -0.4865  0.3550  0.4643
  114LIG      N 1696   7.646   1.089   2.421  0.0492 -0.1428  0.3025
  114LIG     H1 1697   7.634   0.986   2.406 -1.6455 -0.3322  2.5081
  114LIG     H2 1698   7.749   1.105   2.413  0.8107 -2.1188  3.8500
  114LIG     H3 1699   7.633   1.102   2.523 -1.6827  0.1631  0.0627
  114LIG     CA 1700   7.550   1.162   2.326 -0.8508  0.1501 -0.3307
  114LIG     HA 1701   7.561   1.126   2.225 -0.2321  0.6617 -0.4479
  114LIG     CB 1702   7.409   1.130   2.400 -0.6420 -0.9348  0.0130
  114LIG    HB1 1703   7.337   1.197   2.349  2.5036  2.2050 -0.6407
  114LIG    HB2 1704   7.418   1.147   2.510  1.2262  0.7296 -0.3646
  114LIG     CG 1705   7.360   0.990   2.383  0.1409 -0.0592 -0.8098
  114LIG    OD1 1706   7.238   0.968   2.407  0.1946 -0.5094  0.2169
  114LIG    OD2 1707   7.443   0.898   2.347  0.5637  0.0709  0.6512
  114LIG      C 1708   7.577   1.313   2.316  0.8396 -0.0811  0.1230
  114LIG    OT1 1709   7.678   1.367   2.368 -0.5511 -1.1675 -0.3244
  114LIG    OT2 1710   7.500   1.387   2.245 -0.2468 -0.1447  0.5478
  115LIG      N 1711   1.116   3.098   9.157  0.1998  0.4950 -0.2409
  115LIG     H1 1712   1.141   3.029   9.230  0.8931  0.7042 -0.2811
  115LIG     H2 1713   1.182   3.174   9.133 -1.3929  1.9542 -0.2153
  115LIG     H3 1714   1.034   3.154   9.188 -0.3612 -0.6752  0.4528
  115LIG     CA 1715   1.077   3.018   9.039  0.6209  0.0629  0.3598
  115LIG     HA 1716   1.059   3.086   8.957 -0.6140  2.1159  2.2084
  115LIG     CB 1717   1.190   2.913   9.007 -0.3972  0.6459 -0.3928
  115LIG    HB1 1718   1.161   2.836   8.932  0.0748 -0.0682  0.1512
  115LIG    HB2 1719   1.204   2.857   9.102 -0.8349  0.8858 -0.1865
  115LIG     CG 1720   1.321   2.977   8.967 -0.5412  0.2438 -0.4639
  115LIG    OD1 1721   1.430   2.909   8.963  0.4818  0.2273  0.6460
  115LIG    OD2 1722   1.320   3.100   8.948  0.4674 -0.5627 -0.0290
  115LIG      C 1723   0.940   2.949   9.068  0.0113 -0.1299  0.4155
  115LIG    OT1 1724   0.882   2.964   9.181 -0.2000  0.8707 -0.1573
  115LIG    OT2 1725   0.888   2.882   8.976 -0.5022  0.3539  0.0786
  116LIG      N 1726   8.556   0.306   1.537 -0.3060 -0.3811  1.0745
  116LIG     H1 1727   8.516   0.385   1.483 -0.6657 -0.2402  1.5358
  116LIG     H2 1728   8.521   0.311   1.635 -0.2634 -0.3919  1.0898
  116LIG     H3 1729   8.659   0.310   1.526 -0.3932  0.2123  0.3629
  116LIG     CA 1730   8.505   0.188   1.457  0.0218 -0.1135 -0.6131
  116LIG     HA 1731   8.548   0.191   1.358  1.8962 -0.6611  0.1553
  116LIG     CB 1732   8.543   0.053   1.526 -0.7650  0.1816  0.4331
  116LIG    HB1 1733   8.498  -0.030   1.468  2.3341 -0.2655 -1.6200
  116LIG    HB2 1734   8.511   0.059   1.632 -1.8451  0.2428  0.1081
  116LIG     CG 1735   8.687   0.028   1.511 -0.4358  0.1659  0.1739
  116LIG    OD1 1736   8.763   0.125   1.470 -0.5814 -0.5025 -0.3182
  116LIG    OD2 1737   8.731  -0.085   1.543  0.4648  0.2628  0.1313
  116LIG      C 1738   8.350   0.187   1.437 -0.0888 -0.1869  0.1375
  116LIG    OT1 1739   8.278   0.267   1.494 -0.0173 -0.8358  0.4532
  116LIG    OT2 1740   8.300   0.108   1.356 -0.1269  0.2059  0.2756
  117LIG      N 1741   1.813   1.671   6.671  0.1561 -0.1146 -0.0978
  117LIG     H1 1742   1.768   1.650   6.762  3.3252 -2.5901  1.0692
  117LIG     H2 1743   1.864   1.760   6.687  1.3317 -0.5631 -1.1817
  117LIG     H3 1744   1.740   1.677   6.597 -0.3710 -1.3884  0.2879
  117LIG     CA 1745   1.899   1.555   6.635  0.6758  0.1643 -0.2073
  117LIG     HA 1746   1.961   1.580   6.551  0.3848  2.4004  0.1803
  117LIG     CB 1747   1.991   1.533   6.759 -0.2140 -0.5798 -0.4171
  117LIG    HB1 1748   2.047   1.437   6.758  0.8657  0.0183  0.4096
  117LIG    HB2 1749   1.917   1.539   6.841 -0.5046 -0.5545 -0.6788
  117LIG     CG 1750   2.096   1.645   6.782  0.0118 -0.0423 -0.2324
  117LIG    OD1 1751   2.142   1.659   6.898 -0.1925  0.2075 -0.5318
  117LIG    OD2 1752   2.134   1.713   6.691 -0.0498  0.4005  1.1431
  117LIG      C 1753   1.822   1.430   6.595  0.4821 -0.8858 -0.0214
  117LIG    OT1 1754   1.694   1.426   6.589  0.2278  0.2077 -0.2246
  117LIG    OT2 1755   1.890   1.330   6.565 -0.3319 -0.2699  0.4136
  118LIG      N 1756   1.837   2.605   3.111  0.1584 -0.3031  0.4072
  118LIG     H1 1757   1.871   2.530   3.174  0.2589  0.0407  0.7704
  118LIG     H2 1758   1.738   2.582   3.087  0.3937  2.0000 -3.7054
  118LIG     H3 1759   1.906   2.609   3.033  1.0982  1.9386  1.2531
  118LIG     CA 1760   1.840   2.738   3.176 -0.4210 -0.7547 -0.4207
  118LIG     HA 1761   1.946   2.753   3.191 -0.3922 -0.7054 -0.6598
  118LIG     CB 1762   1.806   2.850   3.070 -0.3797  0.5324  0.1230
  118LIG    HB1 1763   1.884   2.857   2.991 -1.4867 -0.6294 -1.1287
  118LIG    HB2 1764   1.795   2.943   3.129 -2.6509 -0.6560  1.7145
  118LIG     CG 1765   1.682   2.829   2.983 -0.5797  0.4160  0.4957
  118LIG    OD1 1766   1.651   2.927   2.903  0.3171  0.7479 -0.1238
  118LIG    OD2 1767   1.615   2.723   2.987  1.0374 -0.2398  0.0452
  118LIG      C 1768   1.751   2.756   3.298  0.2733  0.3292 -0.1354
  118LIG    OT1 1769   1.690   2.651   3.340 -0.2127  0.1548  0.4471
  118LIG    OT2 1770   1.729   2.867   3.357 -1.2392 -0.2827  0.1101
  119LIG      N 1771   5.631   5.823   9.393  0.9898  0.0396  0.8270
  119LIG     H1 1772   5.676   5.854   9.481  1.7680  1.4374 -0.0259
  119LIG     H2 1773   5.559   5.754   9.425 -0.4375  1.4457  0.7835
  119LIG     H3 1774   5.699   5.781   9.326  1.6241 -0.0881  1.5412
  119LIG     CA 1775   5.554   5.942   9.340  0.0134 -0.5046 -0.1230
  119LIG     HA 1776   5.479   5.906   9.272  0.2212  0.8471 -1.1152
  119LIG     CB 1777   5.470   6.012   9.449 -0.3299 -1.2208 -0.1987
  119LIG    HB1 1778   5.423   6.102   9.404  0.7501 -0.4668  0.1488
  119LIG    HB2 1779   5.541   6.050   9.525  1.4177 -0.1630 -2.2728
  119LIG     CG 1780   5.373   5.921   9.513 -0.4171  0.0668  0.1260
  119LIG    OD1 1781   5.362   5.796   9.484 -0.0608 -0.3342  0.4858
  119LIG    OD2 1782   5.298   5.971   9.599 -0.2283 -0.1092  0.0669
  119LIG      C 1783   5.626   6.051   9.255 -0.7183 -0.1775  0.7604
  119LIG    OT1 1784   5.753   6.052   9.241  0.1199 -0.0353 -0.1591
  119LIG    OT2 1785   5.560   6.133   9.188 -0.0085 -0.0279 -0.4230
  120LIG      N 1786   5.724   3.766   8.332  0.6891 -0.0688 -0.3441
  120LIG     H1 1787   5.734   3.762   8.229  1.0497 -2.0622 -0.2651
  120LIG     H2 1788   5.679   3.857   8.354  2.0481  1.0110 -1.8026
  120LIG     H3 1789   5.820   3.776   8.371  0.5491  0.0087 -0.0091
  120LIG     CA 1790   5.654   3.645   8.376 -0.4709 -0.1017  1.0581
  120LIG     HA 1791   5.570   3.635   8.309 -1.0415  0.6885  1.6396
  120LIG     CB 1792   5.747   3.516   8.355  0.0723 -0.0172 -0.1307
  120LIG    HB1 1793   5.691   3.427   8.391 -2.1407 -0.4938 -4.1661
  120LIG    HB2 1794   5.844   3.527   8.408 -0.9183 -0.1092  1.7479
  120LIG     CG 1795   5.769   3.489   8.205  0.0836  0.3791 -0.3741
  120LIG    OD1 1796   5.728   3.572   8.125 -0.5211  0.0222  0.0206
  120LIG    OD2 1797   5.820   3.379   8.174 -0.2518 -0.5848  0.1061
  120LIG      C 1798   5.592   3.641   8.520  0.2058 -0.3910  0.5007
  120LIG    OT1 1799   5.590   3.751   8.583  0.0124  0.2690  0.2226
  120LIG    OT2 1800   5.551   3.531   8.564  0.8543 -0.1691 -0.4429
  121LIG      N 1801   3.478   6.827   9.686 -0.3179 -0.6818  0.2453
  121LIG     H1 1802   3.433   6.737   9.657 -0.4021 -0.9198  1.0964
  121LIG     H2 1803   3.554   6.813   9.755  1.1672 -1.5911 -1.4900
  121LIG     H3 1804   3.413   6.907   9.701  1.1666  1.1672 -2.3945
  121LIG     CA 1805   3.560   6.874   9.566  0.5868  0.5716  0.0808
  121LIG     HA 1806   3.501   6.845   9.481 -2.9208  0.0579  2.4573
  121LIG     CB 1807   3.576   7.027   9.566 -0.0583 -0.4357 -0.1713
  121LIG    HB1 1808   3.634   7.054   9.475  0.3556 -0.9067 -0.0527
  121LIG    HB2 1809   3.627   7.040   9.664 -0.0283 -2.7101  0.1717
  121LIG     CG 1810   3.441   7.099   9.563 -0.7579 -0.1697 -0.6354
  121LIG    OD1 1811   3.340   7.036   9.589 -0.4501 -0.0912 -0.1780
  121LIG    OD2 1812   3.433   7.216   9.521 -0.4150  0.4046 -0.7747
  121LIG      C 1813   3.704   6.803   9.558  0.2568 -0.1369 -0.0050
  121LIG    OT1 1814   3.738   6.719   9.642 -0.2892 -0.0789 -0.1026
  121LIG    OT2 1815   3.782   6.833   9.465 -0.7659 -0.5367 -0.3882
  122LIG      N 1816   4.756   8.679   7.106  0.6083  0.2071  0.2614
  122LIG     H1 1817   4.765   8.577   7.127  1.5568  0.2363  0.0664
  122LIG     H2 1818   4.849   8.725   7.103  0.4703  0.4630 -0.2963
  122LIG     H3 1819   4.692   8.720   7.176 -1.5057 -2.4058  0.0045
  122LIG     CA 1820   4.691   8.686   6.975  0.0731  1.0094  0.2055
  122LIG     HA 1821   4.601   8.628   6.990  1.6236 -1.5358  0.1867
  122LIG     CB 1822   4.682   8.831   6.942  0.0339 -0.2328  0.7937
  122LIG    HB1 1823   4.679   8.853   6.833 -3.3384  3.5057  1.3886
  122LIG    HB2 1824   4.768   8.893   6.973 -0.3960  0.3233  0.8811
  122LIG     CG 1825   4.549   8.889   6.996 -0.0375 -0.4517 -0.1785
  122LIG    OD1 1826   4.503   8.996   6.949  0.6757 -0.0051  0.3001
  122LIG    OD2 1827   4.487   8.829   7.085  0.1267  0.1584  0.0517
  122LIG      C 1828   4.770   8.619   6.864  0.0795 -0.2270  0.3909
  122LIG    OT1 1829   4.896   8.629   6.863 -0.6183  0.1077 -0.0609
  122LIG    OT2 1830   4.702   8.571   6.770  0.2612 -0.1682 -0.0273
  123LIG      N 1831   3.279   6.305   9.670  0.0668 -0.5135  0.1100
  123LIG     H1 1832   3.371   6.299   9.718  0.7846 -2.1207 -1.3602
  123LIG     H2 1833   3.209   6.232   9.693 -0.5718  0.7362  2.4098
  123LIG     H3 1834   3.302   6.298   9.568 -1.5118  0.1171 -0.3167
  123LIG     CA 1835   3.216   6.435   9.710 -0.2570 -0.7695  0.6713
  123LIG     HA 1836   3.125   6.437   9.652  1.0527  0.0032 -1.4716
  123LIG     CB 1837   3.175   6.438   9.861 -0.3009  0.0837  0.8312
  123LIG    HB1 1838   3.150   6.540   9.898  0.5784 -0.7693  4.1632
  123LIG    HB2 1839   3.257   6.403   9.928 -0.8730 -1.2852  0.8505
  123LIG     CG 1840   3.060   6.340   9.891 -0.2104 -0.1249  0.0692
  123LIG    OD1 1841   2.992   6.373   9.991  0.2656 -0.1615  0.6176
  123LIG    OD2 1842   3.051   6.235   9.825 -0.1268  0.2075 -0.3257
  123LIG      C 1843   3.306   6.564   9.678 -0.4511 -0.0760  0.7766
  123LIG    OT1 1844   3.430   6.549   9.646 -0.1285  0.5729  0.0625
  123LIG    OT2 1845   3.257   6.675   9.680 -0.4642  0.1406 -0.2949
  124LIG      N 1846   5.505   0.385   3.464 -0.0104  0.0008 -0.4792
  124LIG     H1 1847   5.433   0.451   3.428 -0.1724  0.0821 -0.0105
  124LIG     H2 1848   5.601   0.422   3.452 -0.4089  1.5189  0.6875
  124LIG     H3 1849   5.513   0.301   3.403 -0.2142  0.4150 -1.0833
  124LIG     CA 1850   5.482   0.347   3.609 -1.5520  0.3586 -0.5486
  124LIG     HA 1851   5.387   0.296   3.613 -0.4229 -1.8372  0.0727
  124LIG     CB 1852   5.602   0.251   3.651 -0.4695  0.1679 -0.0466
  124LIG    HB1 1853   5.578   0.218   3.754 -4.4639  1.7465 -0.2550
  124LIG    HB2 1854   5.700   0.303   3.648  0.4938 -1.4932  0.9551
  124LIG     CG 1855   5.604   0.122   3.571  0.3103 -0.0372 -0.1379
  124LIG    OD1 1856   5.710   0.054   3.579 -0.8057  0.1311  0.3709
  124LIG    OD2 1857   5.497   0.082   3.510 -0.1822 -0.0200  0.4533
  124LIG      C 1858   5.463   0.466   3.704  0.4560  0.3492 -0.9415
  124LIG    OT1 1859   5.461   0.581   3.657 -0.5585  0.1219 -0.3442
  124LIG    OT2 1860   5.449   0.441   3.828 -0.2856 -0.8953  0.2866
  125LIG      N 1861   2.285   8.109   2.335 -0.1072 -0.0810 -0.4270
  125LIG     H1 1862   2.327   8.041   2.268  0.2622 -0.1287 -0.1486
  125LIG     H2 1863   2.186   8.077   2.339  0.1955 -1.2231 -1.4768
  125LIG     H3 1864   2.297   8.204   2.294 -0.2843 -0.8953 -2.5018
  125LIG     CA 1865   2.345   8.086   2.472 -0.7307  0.2984 -0.3886
  125LIG     HA 1866   2.356   7.981   2.491  1.9398  0.3829 -1.0555
  125LIG     CB 1867   2.490   8.143   2.462 -0.1158  0.3535  0.5294
  125LIG    HB1 1868   2.489   8.254   2.451  0.1828  0.6799  3.0100
  125LIG    HB2 1869   2.544   8.111   2.370 -1.0545 -0.8632  0.3879
  125LIG     CG 1870   2.572   8.096   2.563  0.1226  0.0837 -0.1392
  125LIG    OD1 1871   2.654   8.174   2.616  0.6018  0.6269  0.3648
  125LIG    OD2 1872   2.573   7.973   2.587  0.2390 -0.3042  0.1522
  125LIG      C 1873   2.270   8.153   2.590  0.3084  0.1412 -0.0246
  125LIG    OT1 1874   2.174   8.231   2.569 -0.0918  0.3070  0.3062
  125LIG    OT2 1875   2.307   8.128   2.706  0.3869 -0.3796 -0.4877
  126LIG      N 1876   7.500   5.233   5.855 -0.3453  0.1773  0.2242
  126LIG     H1 1877   7.531   5.215   5.758 -0.5299  1.5310 -0.1088
  126LIG     H2 1878   7.563   5.301   5.904  0.9285 -2.0998  1.9698
  126LIG     H3 1879   7.482   5.149   5.914 -1.8695  1.9092  2.4276
  126LIG     CA 1880   7.369   5.300   5.826  0.2578 -0.3759  0.0450
  126LIG     HA 1881   7.392   5.389   5.768  0.4357 -0.3276  0.1892
  126LIG     CB 1882   7.276   5.212   5.736  0.4864 -0.2778  0.4455
  126LIG    HB1 1883   7.189   5.276   5.707  0.9622  0.7290  1.1677
  126LIG    HB2 1884   7.243   5.119   5.787  0.7079 -0.6275 -0.0414
  126LIG     CG 1885   7.343   5.182   5.607 -0.2505 -0.1076  0.0300
  126LIG    OD1 1886   7.281   5.128   5.516  0.3240 -0.3796  0.4982
  126LIG    OD2 1887   7.459   5.219   5.594 -0.5491 -0.6284  0.3381
  126LIG      C 1888   7.296   5.347   5.955 -0.3108  0.4126 -0.2042
  126LIG    OT1 1889   7.351   5.338   6.072  0.1095 -0.2157  0.3054
  126LIG    OT2 1890   7.183   5.400   5.944 -0.2814  0.0999  0.0012
  127LIG      N 1891   0.206   7.811   5.513  0.7994 -0.5711 -0.1089
  127LIG     H1 1892   0.285   7.746   5.532  0.8616 -0.4358  0.0900
  127LIG     H2 1893   0.236   7.851   5.422  0.1062 -1.3450 -0.6986
  127LIG     H3 1894   0.211   7.885   5.586  0.9730 -1.6798  1.0303
  127LIG     CA 1895   0.069   7.743   5.499  0.1827 -0.0830 -0.0172
  127LIG     HA 1896  -0.007   7.814   5.529 -1.0041 -1.6996  0.9496
  127LIG     CB 1897   0.043   7.692   5.352 -0.4495 -1.2863 -0.3142
  127LIG    HB1 1898  -0.049   7.630   5.348 -2.1001  0.9674  0.5386
  127LIG    HB2 1899   0.133   7.642   5.310  0.5665 -1.3210  1.7251
  127LIG     CG 1900   0.010   7.806   5.260  0.1128  0.1058 -0.1206
  127LIG    OD1 1901   0.014   7.923   5.304  0.2848  0.5678 -0.0645
  127LIG    OD2 1902  -0.008   7.780   5.140  0.7290  0.0164  0.3256
  127LIG      C 1903   0.052   7.623   5.600 -0.5396  0.0708  0.4253
  127LIG    OT1 1904   0.138   7.607   5.690  0.2107 -0.9939  1.1997
  127LIG    OT2 1905  -0.050   7.554   5.605  0.5721  0.1714  0.0570
  128LIG      N 1906   3.780   3.578   3.712 -0.1716 -0.1256  0.1764
  128LIG     H1 1907   3.758   3.505   3.782  1.0986 -1.2572 -0.5567
  128LIG     H2 1908   3.836   3.653   3.757  1.3833 -2.1282  1.7438
  128LIG     H3 1909   3.696   3.623   3.670  0.4526  2.9266  1.9447
  128LIG     CA 1910   3.853   3.519   3.599  0.8828  0.2099 -0.1710
  128LIG     HA 1911   3.956   3.507   3.627  0.2996 -0.8941  1.7239
  128LIG     CB 1912   3.792   3.382   3.556 -0.2290 -0.2548 -0.1662
  128LIG    HB1 1913   3.867   3.349   3.481  1.1889  0.5679  0.8196
  128LIG    HB2 1914   3.691   3.397   3.513 -0.3852 -0.3184  0.1753
  128LIG     CG 1915   3.782   3.271   3.654  0.1667  0.1899 -0.7154
  128LIG    OD1 1916   3.829   3.294   3.770 -0.2438 -0.8063  0.2518
  128LIG    OD2 1917   3.732   3.159   3.630 -0.1758  1.1246  0.4965
  128LIG      C 1918   3.862   3.619   3.476 -0.2009  0.3889  0.1837
  128LIG    OT1 1919   3.813   3.735   3.485 -0.5257  0.0899  0.3211
  128LIG    OT2 1920   3.904   3.575   3.364  0.0245 -0.2732 -0.0781
  129LIG      N 1921   5.840   5.588   1.039  1.3652 -0.1906 -0.4842
  129LIG     H1 1922   5.878   5.510   1.096 -0.1528 -1.7275 -1.4643
  129LIG     H2 1923   5.831   5.562   0.938 -3.9718  0.3442 -0.4283
  129LIG     H3 1924   5.906   5.667   1.045  3.4659 -1.7215 -1.8005
  129LIG     CA 1925   5.704   5.623   1.084  0.1562 -0.1178  0.4701
  129LIG     HA 1926   5.676   5.703   1.017 -0.4376  0.5873  1.5210
  129LIG     CB 1927   5.612   5.497   1.061 -0.1355  0.4153 -0.2897
  129LIG    HB1 1928   5.514   5.529   1.101  0.5228  3.4254 -0.8640
  129LIG    HB2 1929   5.648   5.403   1.111  1.9136  0.0146 -2.3338
  129LIG     CG 1930   5.599   5.445   0.921  0.9853  0.2143  0.4251
  129LIG    OD1 1931   5.688   5.474   0.834 -0.4884  0.8768  0.1522
  129LIG    OD2 1932   5.509   5.362   0.890 -0.0541 -0.0633  0.2149
  129LIG      C 1933   5.696   5.686   1.229  0.5528  0.3757 -0.3049
  129LIG    OT1 1934   5.801   5.718   1.287 -0.3448 -0.1437 -0.1152
  129LIG    OT2 1935   5.578   5.708   1.273 -0.1483  0.2783 -0.7808
  130LIG      N 1936   0.591   7.652   7.794 -0.1617 -0.2948  0.3430
  130LIG     H1 1937   0.680   7.611   7.760 -0.0986 -0.9341  1.2613
  130LIG     H2 1938   0.549   7.714   7.722 -0.8416 -0.5633  0.4962
  130LIG     H3 1939   0.616   7.707   7.879  1.3201  0.2129 -0.3887
  130LIG     CA 1940   0.488   7.542   7.825 -0.3173  0.3063 -0.6226
  130LIG     HA 1941   0.402   7.585   7.874  0.4064  0.3348  0.6707
  130LIG     CB 1942   0.428   7.503   7.691 -0.1057  0.0390 -0.5931
  130LIG    HB1 1943   0.349   7.428   7.712 -0.0683  0.2123  0.2244
  130LIG    HB2 1944   0.505   7.454   7.628  1.7727 -0.0432  1.6115
  130LIG     CG 1945   0.355   7.608   7.611  0.0301 -0.3743 -0.1310
  130LIG    OD1 1946   0.298   7.576   7.506 -0.5699  0.3207 -0.3091
  130LIG    OD2 1947   0.366   7.726   7.645  0.4518 -0.5915 -0.0645
  130LIG      C 1948   0.538   7.423   7.917 -0.0852 -0.0251  0.5922
  130LIG    OT1 1949   0.654   7.431   7.969 -0.0095  0.2617  0.5206
  130LIG    OT2 1950   0.460   7.328   7.938 -0.3030  0.0059 -0.5771
  131LIG      N 1951   9.414   5.183   3.237 -0.2610 -0.5254  0.1193
  131LIG     H1 1952   9.425   5.109   3.165  1.5074 -1.2904  1.1209
  131LIG     H2 1953   9.504   5.195   3.288 -0.7611  1.5208  0.6074
  131LIG     H3 1954   9.343   5.155   3.308  1.5744  0.0125  2.2797
  131LIG     CA 1955   9.387   5.317   3.181  0.6043  0.1562  0.3245
  131LIG     HA 1956   9.391   5.382   3.268 -1.9915 -0.6235  1.1286
  131LIG     CB 1957   9.494   5.361   3.079  0.1612 -0.4348 -0.2278
  131LIG    HB1 1958   9.471   5.459   3.030  0.5954  0.4056  1.1979
  131LIG    HB2 1959   9.501   5.282   3.001  1.5597 -0.6210  0.0525
  131LIG     CG 1960   9.632   5.361   3.147  0.4114 -0.5999  0.2417
  131LIG    OD1 1961   9.722   5.409   3.071  0.8872 -0.4753  0.0557
  131LIG    OD2 1962   9.657   5.310   3.255  0.3647  0.3101  0.3251
  131LIG      C 1963   9.247   5.341   3.126  0.4998 -0.0600  0.2813
  131LIG    OT1 1964   9.160   5.251   3.116  0.1777 -0.0452  1.0842
  131LIG    OT2 1965   9.223   5.456   3.078 -0.2700 -0.4266 -0.1049
  132LIG      N 1966   2.223   1.584   1.611 -0.3004  0.0820  0.2563
  132LIG     H1 1967   2.317   1.572   1.570  0.3265  0.3542  1.5672
  132LIG     H2 1968   2.242   1.628   1.703  0.3791 -0.3295  0.3182
  132LIG     H3 1969   2.182   1.489   1.624  1.5373 -1.1696 -2.1801
  132LIG     CA 1970   2.132   1.662   1.530  0.0951 -0.1289  0.4463
  132LIG     HA 1971   2.127   1.621   1.430  1.1036  1.8936 -0.4754
  132LIG     CB 1972   1.997   1.654   1.605  0.3446  0.3608  0.0087
  132LIG    HB1 1973   1.936   1.734   1.558 -1.3519 -0.7936  0.1556
  132LIG    HB2 1974   2.015   1.676   1.713 -0.4848 -2.8993  0.9353
  132LIG     CG 1975   1.923   1.519   1.595 -0.5144  0.4557  0.4206
  132LIG    OD1 1976   1.983   1.424   1.542  1.0032  0.0105 -0.5873
  132LIG    OD2 1977   1.804   1.508   1.639 -0.7064  0.1150  0.5274
  132LIG      C 1978   2.176   1.807   1.505  0.4211 -0.1153 -0.1339
  132LIG    OT1 1979   2.285   1.851   1.555  0.3165  0.1885  0.7331
  132LIG    OT2 1980   2.097   1.876   1.436 -0.4887  0.3637  0.2907
  133LIG      N 1981   2.950   4.968   2.769 -0.3459  0.0360 -0.1583
  133LIG     H1 1982   2.965   5.039   2.694  2.6776  0.2773  0.5697
  133LIG     H2 1983   2.895   4.887   2.734  0.3632 -0.4058 -0.2657
  133LIG     H3 1984   2.893   5.005   2.847 -1.8185 -2.7470  0.1992
  133LIG     CA 1985   3.077   4.932   2.835 -0.3016  0.1815 -1.0393
  133LIG     HA 1986   3.059   4.889   2.932  3.3693  1.8292  0.5571
  133LIG     CB 1987   3.162   4.856   2.739  0.1264  0.1428  0.0448
  133LIG    HB1 1988   3.263   4.835   2.780 -0.1559 -1.5330 -0.0537
  133LIG    HB2 1989   3.181   4.915   2.647 -0.2727  0.2738  0.0409
  133LIG     CG 1990   3.101   4.722   2.714  0.3663 -0.4017 -0.0120
  133LIG    OD1 1991   2.978   4.701   2.741  0.4934  0.1309 -0.9672
  133LIG    OD2 1992   3.166   4.643   2.649 -0.1265  0.5433  0.5322
  133LIG      C 1993   3.162   5.054   2.869  0.3947 -0.7590 -0.1711
  133LIG    OT1 1994   3.114   5.170   2.848 -0.0532 -0.1243 -0.4403
  133LIG    OT2 1995   3.271   5.034   2.933  0.3248 -0.4525  0.2123
  134LIG      N 1996   0.642   6.629   5.812  0.9284 -0.2297 -0.2672
  134LIG     H1 1997   0.620   6.534   5.849 -0.1775  1.0395  2.5839
  134LIG     H2 1998   0.560   6.691   5.798  1.6719  0.3567 -2.4447
  134LIG     H3 1999   0.670   6.607   5.714 -1.8620 -1.5247 -0.8670
  134LIG     CA 2000   0.758   6.661   5.898  0.0621  0.6804  0.4008
  134LIG     HA 2001   0.728   6.704   5.992  1.8572 -0.0171  1.3520
  134LIG     CB 2002   0.830   6.525   5.923  0.3705  0.0231  0.2918
  134LIG    HB1 2003   0.918   6.537   5.990 -0.3169 -1.2011  1.4974
  134LIG    HB2 2004   0.856   6.481   5.825  2.1676  4.0396 -1.2404
  134LIG     CG 2005   0.746   6.431   6.009 -0.8886  0.2215 -0.1027
  134LIG    OD1 2006   0.797   6.328   6.061  0.2099 -0.2677 -0.0111
  134LIG    OD2 2007   0.624   6.446   6.010  0.0574  0.6752 -0.4955
  134LIG      C 2008   0.844   6.759   5.815 -0.3580  0.1390 -0.3634
  134LIG    OT1 2009   0.823   6.768   5.687 -0.8986 -0.5027 -0.2659
  134LIG    OT2 2010   0.933   6.830   5.873  0.2227  0.3279 -0.0851
  135LIG      N 2011   4.191   1.146   6.043  0.2883  0.2221 -0.6004
  135LIG     H1 2012   4.241   1.117   5.956  0.7026  0.4274 -0.4323
  135LIG     H2 2013   4.088   1.147   6.032 -0.0333 -0.3664  1.8797
  135LIG     H3 2014   4.223   1.244   6.061  2.6742  0.0379 -3.0697
  135LIG     CA 2015   4.215   1.054   6.158 -0.0439 -0.9046 -0.2345
  135LIG     HA 2016   4.300   1.096   6.210 -2.6859  2.2858  1.9238
  135LIG     CB 2017   4.093   1.066   6.257 -0.2451  0.0751  0.7074
  135LIG    HB1 2018   4.010   1.001   6.222  0.4375 -0.4587  0.0562
  135LIG    HB2 2019   4.062   1.172   6.246  1.7196  0.5385 -1.0067
  135LIG     CG 2020   4.123   1.049   6.403 -0.3966 -0.1349  0.6123
  135LIG    OD1 2021   4.020   1.058   6.476  0.4403 -0.6911  0.1479
  135LIG    OD2 2022   4.241   1.032   6.441  0.0470  0.2341  0.3600
  135LIG      C 2023   4.228   0.901   6.111 -1.1598 -0.8902 -0.0435
  135LIG    OT1 2024   4.191   0.862   5.996 -0.4673 -0.1360 -0.4985
  135LIG    OT2 2025   4.260   0.820   6.199 -0.3523  0.6506 -0.0006
  136LIG      N 2026   2.342   2.032   1.353 -0.7062 -0.2276 -0.2567
  136LIG     H1 2027   2.291   1.987   1.274 -1.7948  0.7587 -0.1493
  136LIG     H2 2028   2.443   2.013   1.334 -0.2191 -1.5355  3.0057
  136LIG     H3 2029   2.318   1.982   1.441  2.8783  0.1872  1.1341
  136LIG     CA 2030   2.298   2.168   1.350 -0.2220  0.0537  0.8376
  136LIG     HA 2031   2.193   2.173   1.373 -0.4425 -2.2516  0.5550
  136LIG     CB 2032   2.372   2.247   1.455  0.5329 -0.3974 -1.0429
  136LIG    HB1 2033   2.336   2.352   1.455 -3.8620 -1.6721  0.8666
  136LIG    HB2 2034   2.480   2.263   1.438  0.7615 -1.7856 -1.0361
  136LIG     CG 2035   2.352   2.200   1.600 -0.9158  0.1027  0.7014
  136LIG    OD1 2036   2.232   2.169   1.634 -1.1087 -0.5316  0.0743
  136LIG    OD2 2037   2.446   2.218   1.689  0.4281 -0.0601  0.2265
  136LIG      C 2038   2.313   2.251   1.215  0.3219 -0.7373 -0.1603
  136LIG    OT1 2039   2.375   2.198   1.119 -0.0438 -0.2342 -1.1609
  136LIG    OT2 2040   2.265   2.368   1.201  0.6451  0.1149 -0.6445
  137LIG      N 2041   6.391   3.492   8.803 -0.0186  0.0847  0.2645
  137LIG     H1 2042   6.351   3.425   8.871  0.0805 -1.4648 -1.1321
  137LIG     H2 2043   6.327   3.478   8.722 -0.9449  0.1716  0.9657
  137LIG     H3 2044   6.488   3.467   8.776 -0.4775 -0.5236 -0.9267
  137LIG     CA 2045   6.371   3.633   8.832  0.5358 -0.4070 -0.2345
  137LIG     HA 2046   6.401   3.654   8.934  0.1492  0.6070 -0.3223
  137LIG     CB 2047   6.460   3.719   8.728  0.2159 -0.0458 -0.4770
  137LIG    HB1 2048   6.432   3.825   8.749  1.5041 -0.2621  3.1610
  137LIG    HB2 2049   6.446   3.690   8.622 -1.5487  2.3315 -0.9821
  137LIG     CG 2050   6.609   3.705   8.757  0.3212 -0.1297 -0.3620
  137LIG    OD1 2051   6.684   3.772   8.687 -0.0176 -0.4186 -0.6237
  137LIG    OD2 2052   6.650   3.637   8.854  0.0314 -0.5575  0.2446
  137LIG      C 2053   6.221   3.670   8.801  0.0220  0.6205 -1.3903
  137LIG    OT1 2054   6.142   3.580   8.755  0.0184  0.4043 -0.0988
  137LIG    OT2 2055   6.179   3.778   8.836 -0.0985 -0.3746 -0.3443
  138LIG      N 2056   7.784   7.974   0.717 -0.0468  0.2776 -0.1491
  138LIG     H1 2057   7.735   7.882   0.718  0.9725 -0.3047 -1.0856
  138LIG     H2 2058   7.767   8.026   0.628  0.7457  0.3309 -0.2773
  138LIG     H3 2059   7.886   7.955   0.717  0.1109  0.9803 -1.4885
  138LIG     CA 2060   7.745   8.052   0.831  0.5891 -0.8903 -0.1953
  138LIG     HA 2061   7.775   8.154   0.812 -0.3742 -0.8076 -1.4354
  138LIG     CB 2062   7.594   8.052   0.828 -0.0009 -0.0021 -0.9059
  138LIG    HB1 2063   7.542   7.965   0.873  0.5228 -0.3568 -0.9780
  138LIG    HB2 2064   7.552   8.079   0.729 -0.9226 -1.2855 -0.8857
  138LIG     CG 2065   7.537   8.169   0.913 -0.4382  0.0387  0.1915
  138LIG    OD1 2066   7.602   8.270   0.932  0.1487  0.0010 -0.0269
  138LIG    OD2 2067   7.423   8.153   0.971  0.3043 -0.3675 -0.9282
  138LIG      C 2068   7.806   8.001   0.968  0.0536 -0.3820  0.6136
  138LIG    OT1 2069   7.901   7.920   0.966 -0.0590  0.1950  0.0298
  138LIG    OT2 2070   7.771   8.047   1.077 -0.1133  0.4378 -0.0320
  139LIG      N 2071   7.151   6.184   2.624  0.4596  0.2361  0.1491
  139LIG     H1 2072   7.145   6.081   2.611  0.5996 -0.0403  1.9583
  139LIG     H2 2073   7.221   6.234   2.566  0.5333  0.0733  0.0980
  139LIG     H3 2074   7.173   6.193   2.726 -2.0833 -1.2421  0.9162
  139LIG     CA 2075   7.013   6.230   2.591 -0.4075 -0.1945 -0.5618
  139LIG     HA 2076   6.997   6.186   2.494  1.1008 -3.2047  0.4048
  139LIG     CB 2077   6.924   6.182   2.712 -1.2175  0.2197 -0.0914
  139LIG    HB1 2078   6.825   6.228   2.690 -0.3971  1.0145 -2.3021
  139LIG    HB2 2079   6.947   6.226   2.812  2.8409 -0.5350 -0.5291
  139LIG     CG 2080   6.916   6.030   2.720 -0.1644 -0.2929 -0.2112
  139LIG    OD1 2081   6.959   5.965   2.620 -0.1726  0.4864  0.3498
  139LIG    OD2 2082   6.858   5.971   2.815 -0.9074  0.6870 -0.1082
  139LIG      C 2083   7.011   6.383   2.563 -0.3437  0.4343  0.4463
  139LIG    OT1 2084   7.114   6.460   2.575 -0.1995  0.2957  0.0973
  139LIG    OT2 2085   6.903   6.435   2.524 -0.0018  0.1017  0.9524
  140LIG      N 2086   1.086   3.097   9.729 -0.1616  0.5697  0.5845
  140LIG     H1 2087   1.108   3.135   9.635  4.0355 -0.9556  0.7365
  140LIG     H2 2088   1.018   3.151   9.787 -0.4876  0.2289  0.5230
  140LIG     H3 2089   1.181   3.101   9.772  0.4296  2.0813 -0.7485
  140LIG     CA 2090   1.061   2.961   9.700 -0.1970 -0.3107  0.1080
  140LIG     HA 2091   0.960   2.949   9.663 -0.2261 -0.5242  0.2532
  140LIG     CB 2092   1.154   2.908   9.583 -0.6396  0.1513 -0.2221
  140LIG    HB1 2093   1.123   2.803   9.563  0.2005 -0.9812  3.4847
  140LIG    HB2 2094   1.260   2.909   9.617  0.2544 -1.0048 -2.7728
  140LIG     CG 2095   1.151   2.986   9.452 -0.2593  0.0627  0.7120
  140LIG    OD1 2096   1.198   2.936   9.348  0.1544  0.8344  0.0855
  140LIG    OD2 2097   1.106   3.105   9.455 -0.2418  0.6468  0.0260
  140LIG      C 2098   1.082   2.871   9.823  0.2185  0.1543 -0.3736
  140LIG    OT1 2099   1.090   2.918   9.937 -0.0569 -0.1020  0.1483
  140LIG    OT2 2100   1.074   2.743   9.803 -0.2493 -0.2939 -0.1864
  141LIG      N 2101   7.015   7.582   0.853 -0.8168  0.6920 -0.7135
  141LIG     H1 2102   6.951   7.573   0.772  2.8587 -1.5388 -3.6630
  141LIG     H2 2103   7.114   7.571   0.822 -0.5574  3.5000 -1.2066
  141LIG     H3 2104   6.981   7.515   0.925 -0.5861  0.8354 -0.4652
  141LIG     CA 2105   7.005   7.716   0.928  0.4480  0.0025 -0.6876
  141LIG     HA 2106   6.900   7.736   0.945  0.5558 -0.7083  0.9852
  141LIG     CB 2107   7.066   7.698   1.070 -0.1240 -0.4277  0.2098
  141LIG    HB1 2108   7.054   7.792   1.128 -0.7165  0.0016 -0.5829
  141LIG    HB2 2109   7.172   7.665   1.071  0.0177  0.0328  1.4105
  141LIG     CG 2110   6.991   7.594   1.150  0.6176 -1.1376 -0.1621
  141LIG    OD1 2111   7.015   7.592   1.277  0.3996  0.1859  0.5655
  141LIG    OD2 2112   6.922   7.505   1.097  0.0654  0.0729 -0.2662
  141LIG      C 2113   7.049   7.827   0.836 -0.4076  0.3948  1.1248
  141LIG    OT1 2114   7.058   7.801   0.708 -0.0767  0.1199  0.6089
  141LIG    OT2 2115   7.074   7.941   0.879  0.3971  0.0125 -0.5815
  142LIG      N 2116   4.734   8.440   8.331 -0.9319  0.3655 -0.6134
  142LIG     H1 2117   4.793   8.483   8.257 -0.7565 -0.9407 -1.2620
  142LIG     H2 2118   4.665   8.374   8.288 -0.1849  0.2860 -1.7435
  142LIG     H3 2119   4.690   8.516   8.386  1.9332  2.6206 -1.1884
  142LIG     CA 2120   4.833   8.364   8.411  0.2069  0.6946  0.1589
  142LIG     HA 2121   4.783   8.332   8.502 -1.5289  1.4563 -0.4732
  142LIG     CB 2122   4.897   8.243   8.328 -0.2032  0.5722  0.5553
  142LIG    HB1 2123   4.981   8.187   8.375 -1.8006 -1.6333  0.9375
  142LIG    HB2 2124   4.942   8.279   8.233  0.4324 -2.5858 -0.4405
  142LIG     CG 2125   4.785   8.139   8.287  0.4230 -0.2307 -0.0734
  142LIG    OD1 2126   4.820   8.023   8.264  1.0620 -0.3914  0.1274
  142LIG    OD2 2127   4.672   8.184   8.261 -0.1035  0.4518  0.1729
  142LIG      C 2128   4.957   8.441   8.459  0.5153  0.4598  0.4916
  142LIG    OT1 2129   4.978   8.561   8.425  0.3627  0.6585  0.0643
  142LIG    OT2 2130   5.037   8.374   8.531  0.2361  0.1611  0.2400
  143LIG      N 2131   9.746   6.768   0.941  0.4802 -0.0446 -0.8098
  143LIG     H1 2132   9.748   6.688   0.876 -0.3527 -0.7692  0.0172
  143LIG     H2 2133   9.704   6.847   0.888 -0.7630 -1.6139 -2.2891
  143LIG     H3 2134   9.846   6.787   0.961 -0.1741  0.4699  2.8578
  143LIG     CA 2135   9.664   6.728   1.061  0.4569  0.6768 -0.6692
  143LIG     HA 2136   9.685   6.625   1.085 -0.9850  0.6431  0.6326
  143LIG     CB 2137   9.700   6.818   1.178  0.2658 -0.2803  0.0424
  143LIG    HB1 2138   9.642   6.784   1.266 -0.1599  0.2893 -0.0093
  143LIG    HB2 2139   9.668   6.922   1.156  1.3412  0.2079  0.7134
  143LIG     CG 2140   9.840   6.822   1.216 -0.5146 -0.0497 -0.1199
  143LIG    OD1 2141   9.926   6.750   1.166 -0.4283 -0.3134 -0.4268
  143LIG    OD2 2142   9.872   6.893   1.310 -0.1329 -0.1108 -0.4568
  143LIG      C 2143   9.511   6.746   1.037 -0.5531  0.0170  0.2731
  143LIG    OT1 2144   9.476   6.786   0.924 -0.0399  0.2101 -0.6583
  143LIG    OT2 2145   9.430   6.702   1.126 -0.0487 -0.6571  0.6505
  144LIG      N 2146   3.494   5.025   7.114 -0.2126 -0.2346  0.1940
  144LIG     H1 2147   3.569   4.963   7.078  0.3010 -0.4084  1.5223
  144LIG     H2 2148   3.527   5.124   7.109 -1.3697  0.1115 -1.4390
  144LIG     H3 2149   3.443   4.994   7.199 -2.7057  0.3014 -1.0005
  144LIG     CA 2150   3.391   5.032   7.001 -0.2386  0.3117 -0.0596
  144LIG     HA 2151   3.308   5.087   7.043  0.0015  0.5333  0.1253
  144LIG     CB 2152   3.457   5.120   6.892 -0.5614 -0.9078  0.4881
  144LIG    HB1 2153   3.380   5.139   6.814 -0.8915  2.0985  1.4079
  144LIG    HB2 2154   3.548   5.071   6.851  0.2101  2.3215 -2.1468
  144LIG     CG 2155   3.493   5.259   6.936 -0.3620 -0.2933  0.2379
  144LIG    OD1 2156   3.505   5.346   6.846  0.3298 -0.3842 -0.6304
  144LIG    OD2 2157   3.518   5.273   7.056  0.1610 -0.1049 -0.5701
  144LIG      C 2158   3.343   4.895   6.943  0.2144 -0.7035 -0.3769
  144LIG    OT1 2159   3.410   4.798   6.988 -0.1213 -0.0407  0.6535
  144LIG    OT2 2160   3.253   4.882   6.870  0.5527 -0.2606  0.2984
  145LIG      N 2161   4.350   8.648   1.096 -0.0708 -0.0917  0.5358
  145LIG     H1 2162   4.293   8.696   1.024 -1.1560 -1.4417  0.4483
  145LIG     H2 2163   4.424   8.587   1.056  0.1877  0.6304 -0.1210
  145LIG     H3 2164   4.303   8.577   1.155 -0.0489 -1.3818 -0.9232
  145LIG     CA 2165   4.427   8.749   1.173  0.3062  0.0112  0.4327
  145LIG     HA 2166   4.509   8.696   1.218 -0.2680 -0.3513  1.0746
  145LIG     CB 2167   4.462   8.859   1.079 -1.3421  0.2435  0.3674
  145LIG    HB1 2168   4.537   8.925   1.128  0.8411 -1.4743 -0.5119
  145LIG    HB2 2169   4.371   8.915   1.049 -1.4663  0.7390  1.6065
  145LIG     CG 2170   4.545   8.823   0.952  0.4205  1.1584  0.5013
  145LIG    OD1 2171   4.549   8.706   0.902 -0.1453 -0.1107  0.0415
  145LIG    OD2 2172   4.588   8.923   0.896  0.2783  0.2449  0.0138
  145LIG      C 2173   4.346   8.816   1.289  0.1697  0.5715 -0.0681
  145LIG    OT1 2174   4.237   8.770   1.327  0.3982  0.4569 -0.5076
  145LIG    OT2 2175   4.399   8.907   1.355 -0.3349  0.0476  0.1257
  146LIG      N 2176   2.383   8.952   5.834  0.1480 -0.2098 -0.6238
  146LIG     H1 2177   2.386   9.017   5.753 -2.0846  0.6969 -0.0775
  146LIG     H2 2178   2.467   8.892   5.842  0.0390 -0.1670  1.4676
  146LIG     H3 2179   2.297   8.894   5.827 -0.8995  0.8422  1.9095
  146LIG     CA 2180   2.384   9.023   5.962  0.4783  0.2090 -0.9856
  146LIG     HA 2181   2.292   9.081   5.962 -0.8851 -1.6637  2.2991
  146LIG     CB 2182   2.367   8.932   6.077 -0.1319 -0.2378 -0.3347
  146LIG    HB1 2183   2.369   8.985   6.175 -1.1401 -0.7629 -0.0130
  146LIG    HB2 2184   2.446   8.854   6.080 -0.4607 -0.5578  0.0711
  146LIG     CG 2185   2.237   8.860   6.074  0.5045 -0.2165 -0.3824
  146LIG    OD1 2186   2.212   8.765   6.149 -0.2507  0.6031 -0.3882
  146LIG    OD2 2187   2.144   8.896   5.994  0.1560  0.1513 -0.3704
  146LIG      C 2188   2.496   9.121   5.996  0.5736  0.3398  0.8868
  146LIG    OT1 2189   2.582   9.141   5.909  0.1098  0.0732  0.0918
  146LIG    OT2 2190   2.501   9.185   6.106  0.8748 -0.6057  0.4322
  147LIG      N 2191   5.726   3.749   0.194  0.1809 -0.6633  0.4819
  147LIG     H1 2192   5.656   3.698   0.137 -1.1253  3.4614 -1.9800
  147LIG     H2 2193   5.798   3.771   0.122 -0.6131 -0.4853 -0.2768
  147LIG     H3 2194   5.766   3.681   0.262 -0.3576 -2.2474 -0.7216
  147LIG     CA 2195   5.656   3.864   0.253  0.1535 -0.4225 -0.3729
  147LIG     HA 2196   5.573   3.831   0.314 -0.4320  2.0648  0.2724
  147LIG     CB 2197   5.757   3.958   0.316  0.2633  0.4943 -0.3916
  147LIG    HB1 2198   5.708   4.050   0.354 -2.1182 -0.2062 -1.5174
  147LIG    HB2 2199   5.839   3.982   0.246 -1.6917 -1.1007 -3.4570
  147LIG     CG 2200   5.822   3.896   0.435  0.1543  0.1005  0.8118
  147LIG    OD1 2201   5.930   3.948   0.481  0.8255  0.6209 -0.1997
  147LIG    OD2 2202   5.765   3.797   0.488 -0.0324  0.5588 -0.2401
  147LIG      C 2203   5.584   3.944   0.146  0.3049 -0.4147  0.3588
  147LIG    OT1 2204   5.584   3.916   0.022  0.3261  0.6382  0.5805
  147LIG    OT2 2205   5.518   4.042   0.188  0.1427 -0.3570 -0.1258
  148LIG      N 2206   7.320   7.961   0.188  0.0557  0.0106  0.7569
  148LIG     H1 2207   7.286   7.993   0.280 -1.2616 -0.2763  0.3912
  148LIG     H2 2208   7.331   7.857   0.197 -0.6879 -0.2203 -0.6781
  148LIG     H3 2209   7.413   8.002   0.167  0.3831 -0.9380  0.2645
  148LIG     CA 2210   7.213   7.978   0.081  0.5474  0.2460 -0.5212
  148LIG     HA 2211   7.172   8.077   0.090 -2.3149 -0.7727 -1.1079
  148LIG     CB 2212   7.268   7.960  -0.060  0.2386 -0.1746  0.6570
  148LIG    HB1 2213   7.179   7.958  -0.127  1.0319  0.3804 -0.4495
  148LIG    HB2 2214   7.323   7.864  -0.067  0.2979 -0.1612  0.9632
  148LIG     CG 2215   7.363   8.076  -0.087  0.0422  0.6377 -0.2244
  148LIG    OD1 2216   7.368   8.131  -0.199  0.0119 -0.0941 -0.1810
  148LIG    OD2 2217   7.441   8.113   0.005  0.2625  0.0058  0.4895
  148LIG      C 2218   7.088   7.896   0.119  0.1360  1.0103 -0.1472
  148LIG    OT1 2219   7.092   7.805   0.217  0.1391 -0.0517  0.4630
  148LIG    OT2 2220   6.985   7.919   0.058  0.4239  0.4962 -0.6800
  149LIG      N 2221   1.556   8.677   8.656  0.1177 -0.8761 -0.1321
  149LIG     H1 2222   1.552   8.770   8.609  0.0655 -1.8987 -2.2186
  149LIG     H2 2223   1.614   8.614   8.597  0.9620 -0.5497  0.3165
  149LIG     H3 2224   1.461   8.636   8.659 -0.4580  0.3828 -0.6972
  149LIG     CA 2225   1.610   8.681   8.788 -0.6897 -0.1976 -0.8183
  149LIG     HA 2226   1.545   8.744   8.848  2.0738  1.4760  0.6043
  149LIG     CB 2227   1.608   8.523   8.831 -0.2038  0.7285 -0.0058
  149LIG    HB1 2228   1.648   8.513   8.934 -1.4240  0.1255  0.4404
  149LIG    HB2 2229   1.666   8.461   8.759  1.5131 -1.3054  2.9184
  149LIG     CG 2230   1.469   8.463   8.838 -0.4022 -0.4172  0.3418
  149LIG    OD1 2231   1.371   8.540   8.819  0.4138  0.5216  0.6368
  149LIG    OD2 2232   1.453   8.337   8.861  0.0657  0.0672  0.0392
  149LIG      C 2233   1.758   8.753   8.807  0.1434 -0.5231 -0.5392
  149LIG    OT1 2234   1.809   8.803   8.709 -0.2104 -1.2278  0.2782
  149LIG    OT2 2235   1.814   8.739   8.916  0.1177  0.3553 -0.3938
  150LIG      N 2236   8.447   6.765   3.028 -0.2554  0.1792 -0.3690
  150LIG     H1 2237   8.437   6.865   3.053  1.4334  0.0703  0.9419
  150LIG     H2 2238   8.537   6.764   2.975 -0.7825 -1.2834 -1.3210
  150LIG     H3 2239   8.361   6.726   2.985 -2.8813  2.8979  1.9538
  150LIG     CA 2240   8.453   6.701   3.163  0.7698  0.3775  0.3021
  150LIG     HA 2241   8.402   6.757   3.239 -1.2445 -0.5946 -0.2662
  150LIG     CB 2242   8.395   6.553   3.155  1.0169  0.1130  0.6378
  150LIG    HB1 2243   8.391   6.511   3.258 -2.3823 -2.0169 -0.1946
  150LIG    HB2 2244   8.459   6.487   3.092  0.8915 -0.0112  0.6386
  150LIG     CG 2245   8.245   6.544   3.114  0.2014  0.4031 -0.2762
  150LIG    OD1 2246   8.189   6.437   3.129 -0.2152  0.3360  0.0461
  150LIG    OD2 2247   8.210   6.635   3.037 -0.0183 -0.3689 -0.3583
  150LIG      C 2248   8.600   6.701   3.218  0.0861  0.8690  0.0202
  150LIG    OT1 2249   8.698   6.744   3.156 -0.1032 -0.1527 -0.1846
  150LIG    OT2 2250   8.608   6.657   3.337  0.3715 -0.2480 -0.2150
  151LIG      N 2251   9.674   0.553   0.790 -0.2786  0.4771 -0.0553
  151LIG     H1 2252   9.769   0.581   0.761  1.2206 -1.5414  2.4679
  151LIG     H2 2253   9.678   0.482   0.866  0.4519 -0.9147 -1.3535
  151LIG     H3 2254   9.632   0.514   0.703 -0.1635 -0.0677  0.1293
  151LIG     CA 2255   9.614   0.685   0.838  0.0753  0.0305  0.6199
  151LIG     HA 2256   9.527   0.702   0.776  0.6845  1.9441  0.2105
  151LIG     CB 2257   9.582   0.685   0.993  0.3752 -0.0314  0.9145
  151LIG    HB1 2258   9.534   0.782   1.017  0.3288  0.1836 -0.0250
  151LIG    HB2 2259   9.678   0.672   1.047  2.4463  0.8267 -2.2929
  151LIG     CG 2260   9.480   0.582   1.030  0.3544  0.1209  0.5152
  151LIG    OD1 2261   9.479   0.519   1.139 -0.2895  0.3600 -0.6717
  151LIG    OD2 2262   9.387   0.570   0.950  0.3939 -0.7844  0.1836
  151LIG      C 2263   9.699   0.811   0.808  0.2062 -0.0869 -0.0687
  151LIG    OT1 2264   9.818   0.799   0.768 -0.4047 -0.8186 -0.1447
  151LIG    OT2 2265   9.645   0.921   0.816  0.1758  0.0519 -0.5301
  152LIG      N 2266   4.641   6.039   3.748  0.4504 -0.2435  0.8134
  152LIG     H1 2267   4.667   6.048   3.648  0.6205  0.2277  0.8948
  152LIG     H2 2268   4.725   6.089   3.784  0.3504 -0.6537  1.6495
  152LIG     H3 2269   4.650   5.941   3.782  0.7132 -0.4080  0.2749
  152LIG     CA 2270   4.515   6.114   3.778  0.2284  0.0931 -0.5903
  152LIG     HA 2271   4.432   6.086   3.714  0.1818  0.5132 -0.7136
  152LIG     CB 2272   4.452   6.066   3.919  0.5544 -0.2232 -0.0646
  152LIG    HB1 2273   4.347   6.100   3.925 -0.9260 -3.3011 -4.0167
  152LIG    HB2 2274   4.514   6.092   4.008  1.5932  0.1399 -0.8674
  152LIG     CG 2275   4.428   5.915   3.916 -0.3179  0.8496 -0.0728
  152LIG    OD1 2276   4.418   5.853   3.808 -0.4003 -0.6670  0.3100
  152LIG    OD2 2277   4.385   5.866   4.029 -0.9410 -0.0595  0.1061
  152LIG      C 2278   4.515   6.270   3.770 -0.4737  0.0452 -0.2152
  152LIG    OT1 2279   4.626   6.324   3.751 -0.1481  0.2874 -0.1234
  152LIG    OT2 2280   4.404   6.334   3.780 -0.3711 -0.6821  0.7016
  153LIG      N 2281   6.235   5.475   2.470 -0.3640 -0.1443  0.3470
  153LIG     H1 2282   6.164   5.425   2.528 -1.2103 -0.3509 -0.8233
  153LIG     H2 2283   6.201   5.572   2.457 -2.1551 -0.8788 -0.9029
  153LIG     H3 2284   6.219   5.428   2.379 -0.9778  2.1874 -0.8228
  153LIG     CA 2285   6.371   5.477   2.528 -0.5493 -0.5509 -0.1560
  153LIG     HA 2286   6.388   5.567   2.586  0.9595  1.3092 -3.1901
  153LIG     CB 2287   6.400   5.352   2.615 -0.4803  0.6763 -0.7067
  153LIG    HB1 2288   6.506   5.335   2.641 -1.0197 -3.4535 -0.6550
  153LIG    HB2 2289   6.370   5.259   2.562 -0.5155 -0.4649  1.2513
  153LIG     CG 2290   6.317   5.345   2.745 -0.7931 -0.4398  0.5958
  153LIG    OD1 2291   6.354   5.275   2.843 -0.2119 -0.3254 -0.3841
  153LIG    OD2 2292   6.204   5.394   2.727  0.2812  0.1339  1.0452
  153LIG      C 2293   6.488   5.464   2.423  0.0540  0.2416  0.4073
  153LIG    OT1 2294   6.454   5.425   2.306  0.2076 -0.1355  0.3519
  153LIG    OT2 2295   6.600   5.497   2.463  0.4354 -0.1008  0.0748
  154LIG      N 2296   3.571   1.250   7.643  0.0544 -0.2918  0.5726
  154LIG     H1 2297   3.550   1.151   7.620 -2.8949  0.4473 -0.3071
  154LIG     H2 2298   3.488   1.287   7.694 -0.7446 -1.7140  0.3375
  154LIG     H3 2299   3.594   1.310   7.561  0.3436 -0.7354  0.3261
  154LIG     CA 2300   3.681   1.248   7.746 -0.6973  0.3322 -1.0484
  154LIG     HA 2301   3.654   1.191   7.833  2.0662 -2.1993 -1.6983
  154LIG     CB 2302   3.811   1.184   7.687  0.2711  0.2879 -0.2561
  154LIG    HB1 2303   3.894   1.193   7.761 -1.0064 -0.8779  1.3780
  154LIG    HB2 2304   3.835   1.230   7.588  2.3416  1.7329  0.8397
  154LIG     CG 2305   3.797   1.037   7.670  0.4747 -0.7873 -0.2091
  154LIG    OD1 2306   3.683   0.983   7.648 -0.2853 -0.5160 -0.1614
  154LIG    OD2 2307   3.898   0.964   7.648  0.2213 -0.4036  0.0394
  154LIG      C 2308   3.708   1.394   7.791  0.5387 -0.0629 -0.5667
  154LIG    OT1 2309   3.658   1.497   7.730 -1.0557 -1.0474  0.1084
  154LIG    OT2 2310   3.774   1.405   7.901  0.6974 -0.0396  0.9592
  155LIG      N 2311   6.535   2.607   7.443 -0.2716 -0.4308 -0.0211
  155LIG     H1 2312   6.518   2.522   7.501 -0.7057  0.4513  1.1689
  155LIG     H2 2313   6.443   2.653   7.428 -0.5703 -0.0936  2.4271
  155LIG     H3 2314   6.589   2.590   7.355 -0.0106  1.5264 -0.2737
  155LIG     CA 2315   6.608   2.698   7.538 -0.3297  1.1264  0.2393
  155LIG     HA 2316   6.529   2.722   7.608  0.0174  1.4127  0.5374
  155LIG     CB 2317   6.713   2.616   7.623 -0.5880  0.1240 -0.0421
  155LIG    HB1 2318   6.771   2.681   7.692  2.4488 -1.1849 -1.1965
  155LIG    HB2 2319   6.776   2.568   7.546 -2.3348  0.6337 -1.8734
  155LIG     CG 2320   6.649   2.503   7.712 -1.1414  0.6545  0.0676
  155LIG    OD1 2321   6.704   2.459   7.814 -1.1305 -0.2896  0.1768
  155LIG    OD2 2322   6.538   2.465   7.671  0.5752  0.0273 -0.5487
  155LIG      C 2323   6.657   2.828   7.466 -0.2562  0.0698 -0.2332
  155LIG    OT1 2324   6.632   2.855   7.349 -0.2442  0.6042 -0.3171
  155LIG    OT2 2325   6.733   2.902   7.536  0.2940 -0.0209 -0.2976
  156LIG      N 2326   7.417   4.353   2.361 -1.2723  0.0452  0.0668
  156LIG     H1 2327   7.350   4.275   2.377  0.6960 -1.7960 -0.2285
  156LIG     H2 2328   7.431   4.358   2.258  0.5111  0.4170  0.2978
  156LIG     H3 2329   7.512   4.328   2.393 -0.7964 -1.0278 -2.0114
  156LIG     CA 2330   7.369   4.487   2.408 -0.5300 -0.3402  0.1626
  156LIG     HA 2331   7.367   4.480   2.516  1.6568 -1.3167  0.2076
  156LIG     CB 2332   7.476   4.586   2.357  0.1406 -0.2485 -0.2925
  156LIG    HB1 2333   7.463   4.693   2.385  1.0242  0.0288 -0.8689
  156LIG    HB2 2334   7.467   4.586   2.246 -1.7579  2.6612 -0.2517
  156LIG     CG 2335   7.623   4.553   2.394  0.0739  0.0136 -0.4113
  156LIG    OD1 2336   7.715   4.637   2.382 -0.8911 -0.0261  0.4191
  156LIG    OD2 2337   7.649   4.433   2.427 -0.0502  0.2902  0.2055
  156LIG      C 2338   7.234   4.520   2.350 -0.2746 -0.5036 -0.3136
  156LIG    OT1 2339   7.169   4.448   2.274 -0.0991 -0.3407 -0.1840
  156LIG    OT2 2340   7.180   4.626   2.384  0.2460  0.6256  0.7680
  157LIG      N 2341   6.934   4.561   9.340  0.1360  0.6016 -0.2424
  157LIG     H1 2342   6.973   4.471   9.304 -1.0697  0.3366 -0.9493
  157LIG     H2 2343   6.908   4.618   9.257 -0.3171  1.4137  0.4383
  157LIG     H3 2344   7.007   4.614   9.391  0.6367 -0.7143  0.4608
  157LIG     CA 2345   6.811   4.522   9.420 -0.5497  0.0228 -1.0540
  157LIG     HA 2346   6.789   4.592   9.499  0.2648  0.6568 -1.3759
  157LIG     CB 2347   6.684   4.516   9.335  0.2955 -0.3906 -0.1956
  157LIG    HB1 2348   6.597   4.472   9.389 -1.1994  1.3497 -1.0367
  157LIG    HB2 2349   6.681   4.443   9.251 -0.3234 -2.8095  1.8076
  157LIG     CG 2350   6.632   4.651   9.294 -0.3670  0.0816 -0.4947
  157LIG    OD1 2351   6.535   4.657   9.220  0.3142 -0.0153  0.7071
  157LIG    OD2 2352   6.693   4.745   9.349 -0.0845 -0.5462 -0.1671
  157LIG      C 2353   6.817   4.381   9.487  0.6251  0.6385  0.4286
  157LIG    OT1 2354   6.895   4.292   9.445  0.5308 -0.6758  0.9867
  157LIG    OT2 2355   6.746   4.357   9.588  1.0610 -0.5006 -0.0386
  158LIG      N 2356   0.975   5.598   3.652  0.5381  0.5764  0.5679
  158LIG     H1 2357   1.051   5.669   3.660  0.6857  0.6271 -0.9859
  158LIG     H2 2358   0.913   5.628   3.575 -2.3990  0.1976  2.6216
  158LIG     H3 2359   0.914   5.594   3.736  0.3974 -1.6614  0.4191
  158LIG     CA 2360   1.019   5.470   3.629  0.6688  0.2482 -0.4829
  158LIG     HA 2361   0.931   5.416   3.599  0.7765 -0.0643 -0.2307
  158LIG     CB 2362   1.119   5.485   3.511 -0.3351 -0.0784  0.3738
  158LIG    HB1 2363   1.151   5.382   3.483  0.9587  0.5651 -0.6212
  158LIG    HB2 2364   1.209   5.538   3.550  0.1876 -0.0840 -0.7764
  158LIG     CG 2365   1.065   5.553   3.386 -0.2776 -0.0763 -0.0630
  158LIG    OD1 2366   1.140   5.565   3.291  0.1326  0.3720 -0.0273
  158LIG    OD2 2367   0.945   5.602   3.391  0.6187  0.1350  0.1215
  158LIG      C 2368   1.079   5.389   3.747  0.3914  0.6740  0.2591
  158LIG    OT1 2369   1.078   5.439   3.862  0.1767  0.0303 -0.2837
  158LIG    OT2 2370   1.135   5.281   3.707 -0.3067  0.3142 -0.2472
  159LIG      N 2371   2.598   6.607   5.884 -0.0795  0.4718 -0.5545
  159LIG     H1 2372   2.606   6.512   5.924  1.6328  1.0411  0.5831
  159LIG     H2 2373   2.692   6.649   5.867  1.0647 -1.5356  0.4758
  159LIG     H3 2374   2.550   6.661   5.959 -0.7033 -0.1318 -0.5090
  159LIG     CA 2375   2.536   6.615   5.747 -0.0729  0.2137 -0.4041
  159LIG     HA 2376   2.560   6.520   5.702 -2.2827 -1.4804  1.7181
  159LIG     CB 2377   2.377   6.625   5.744  0.6206  0.7998 -0.5039
  159LIG    HB1 2378   2.346   6.608   5.639  0.2902  3.8459 -0.9990
  159LIG    HB2 2379   2.339   6.726   5.772 -4.2320 -0.6292 -1.0609
  159LIG     CG 2380   2.304   6.522   5.826  0.0415  0.5472  0.5686
  159LIG    OD1 2381   2.182   6.534   5.851 -0.2484 -0.2245  0.0622
  159LIG    OD2 2382   2.372   6.425   5.872  0.3429  0.4647  0.1218
  159LIG      C 2383   2.600   6.729   5.662 -0.6863 -0.0533 -0.5640
  159LIG    OT1 2384   2.700   6.795   5.709  0.3563 -0.4522  0.0159
  159LIG    OT2 2385   2.562   6.742   5.546  0.3571 -0.0668 -0.2485
  160LIG      N 2386   2.523   1.552   1.131  0.3260 -0.2796 -0.4083
  160LIG     H1 2387   2.594   1.612   1.084  0.8974 -1.6808 -1.4443
  160LIG     H2 2388   2.537   1.455   1.095  0.8682  0.0935 -1.2484
  160LIG     H3 2389   2.430   1.589   1.105  0.7340 -0.1648 -1.7808
  160LIG     CA 2390   2.541   1.578   1.277  0.0465 -0.2630 -0.8033
  160LIG     HA 2391   2.642   1.544   1.291 -0.6374 -2.1803 -0.2186
  160LIG     CB 2392   2.509   1.728   1.316 -0.5019 -0.0911 -0.0197
  160LIG    HB1 2393   2.510   1.747   1.426 -2.4424  2.8589 -0.4230
  160LIG    HB2 2394   2.408   1.759   1.284 -0.8629 -0.0440  1.1267
  160LIG     CG 2395   2.599   1.824   1.247  0.7590  0.4237 -0.0086
  160LIG    OD1 2396   2.571   1.951   1.243  0.4466 -0.1020  0.1577
  160LIG    OD2 2397   2.696   1.782   1.179  0.1889  0.4613 -0.4920
  160LIG      C 2398   2.449   1.495   1.364  0.4757  0.3518  0.3197
  160LIG    OT1 2399   2.369   1.417   1.309 -0.4894  0.2039  0.0289
  160LIG    OT2 2400   2.446   1.515   1.487 -0.3514 -0.1706 -0.0461
  161LIG      N 2401   5.446   9.201   2.240 -0.3023 -0.0354 -0.2535
  161LIG     H1 2402   5.399   9.248   2.160  1.7140  0.3306 -1.2815
  161LIG     H2 2403   5.419   9.259   2.323 -2.1772  0.2019 -0.9713
  161LIG     H3 2404   5.548   9.200   2.220  0.0888  0.1833  1.5224
  161LIG     CA 2405   5.397   9.061   2.249 -0.0684 -0.4362  0.9057
  161LIG     HA 2406   5.291   9.060   2.271  0.2317 -0.1360  2.4732
  161LIG     CB 2407   5.419   8.981   2.121  0.4596 -0.2964  0.1805
  161LIG    HB1 2408   5.387   8.876   2.141 -0.3491  0.0083  0.5626
  161LIG    HB2 2409   5.528   8.980   2.100  0.6877 -3.2021  1.0154
  161LIG     CG 2410   5.341   9.036   2.002 -0.2060  0.8588 -0.5495
  161LIG    OD1 2411   5.335   8.976   1.890  0.1937 -0.2250 -0.1667
  161LIG    OD2 2412   5.264   9.132   2.028 -0.3078  0.1863 -0.0867
  161LIG      C 2413   5.449   8.995   2.372 -0.4181  0.4264 -0.0942
  161LIG    OT1 2414   5.532   9.054   2.445 -0.3926  0.2092  0.4814
  161LIG    OT2 2415   5.416   8.877   2.401  0.3243 -0.0834  0.2279
  162LIG      N 2416   9.110   2.010   9.533 -0.1542  0.2983  0.0492
  162LIG     H1 2417   9.033   2.077   9.513 -1.9575 -1.0276  2.0761
  162LIG     H2 2418   9.066   1.916   9.528  1.9835 -1.2512  4.5765
  162LIG     H3 2419   9.147   2.029   9.628 -0.4412  0.7088  0.0782
  162LIG     CA 2420   9.223   2.010   9.435  0.2047 -0.1925 -0.4280
  162LIG     HA 2421   9.295   1.932   9.456  0.2160 -0.3329 -0.9804
  162LIG     CB 2422   9.168   1.971   9.296  0.9679 -0.4580 -0.4738
  162LIG    HB1 2423   9.252   1.979   9.223  1.8884  0.8902  0.6839
  162LIG    HB2 2424   9.088   2.042   9.268  1.4777 -0.1051 -1.0559
  162LIG     CG 2425   9.115   1.836   9.283 -0.0814 -0.4657 -0.4133
  162LIG    OD1 2426   9.134   1.766   9.385  0.3401  0.4650 -0.4672
  162LIG    OD2 2427   9.072   1.796   9.180  0.0603  0.7190 -0.3371
  162LIG      C 2428   9.303   2.142   9.427 -0.1846 -0.6399  0.4753
  162LIG    OT1 2429   9.273   2.241   9.498 -0.1463 -0.4451 -0.2293
  162LIG    OT2 2430   9.400   2.164   9.346  0.0692  0.3169 -0.4222
  163LIG      N 2431   3.335   7.709   3.016 -0.1184 -0.3892  0.1623
  163LIG     H1 2432   3.390   7.648   3.081  1.0880 -0.0760 -0.5311
  163LIG     H2 2433   3.273   7.763   3.079  0.3645  0.5020 -0.0989
  163LIG     H3 2434   3.281   7.650   2.950  0.0629  0.3295 -0.6455
  163LIG     CA 2435   3.421   7.816   2.940 -0.1293  0.0384  0.3332
  163LIG     HA 2436   3.437   7.904   3.000  1.4105 -1.1843  1.8282
  163LIG     CB 2437   3.550   7.747   2.903 -0.3244 -0.8178  0.6145
  163LIG    HB1 2438   3.604   7.793   2.818  1.5238 -2.5669  0.7767
  163LIG    HB2 2439   3.537   7.643   2.867 -0.8079 -0.7516  0.5900
  163LIG     CG 2440   3.645   7.743   3.024  0.0521 -0.2392  0.2477
  163LIG    OD1 2441   3.763   7.775   3.012 -0.6096  0.2683 -0.5291
  163LIG    OD2 2442   3.594   7.706   3.132  0.0905  0.0912 -0.3484
  163LIG      C 2443   3.345   7.862   2.817  0.2249  0.4065  0.1217
  163LIG    OT1 2444   3.249   7.794   2.769  0.0248  0.0218  0.4457
  163LIG    OT2 2445   3.371   7.983   2.780  0.1736  0.1350 -0.3283
  164LIG      N 2446   0.694   9.594   9.243  0.0141  0.0220 -0.0916
  164LIG     H1 2447   0.777   9.633   9.292  0.0026  0.1869 -0.2019
  164LIG     H2 2448   0.675   9.659   9.164 -0.8530 -1.6024 -1.2626
  164LIG     H3 2449   0.614   9.585   9.308 -0.5742 -0.4113 -0.8518
  164LIG     CA 2450   0.735   9.458   9.196  0.0639  0.3140 -0.0771
  164LIG     HA 2451   0.782   9.411   9.281 -0.2956  3.0654  1.7699
  164LIG     CB 2452   0.604   9.383   9.161  0.2175 -0.4492 -0.1967
  164LIG    HB1 2453   0.625   9.285   9.112 -1.0739 -1.2615  0.8111
  164LIG    HB2 2454   0.546   9.433   9.081  0.8444 -0.9607 -0.9933
  164LIG     CG 2455   0.528   9.348   9.284 -0.6815 -0.7085  0.5122
  164LIG    OD1 2456   0.577   9.381   9.393 -0.1171  0.4738  0.0282
  164LIG    OD2 2457   0.420   9.286   9.278  0.0906 -0.1355  0.1002
  164LIG      C 2458   0.846   9.462   9.087 -0.4341  0.2035  0.0253
  164LIG    OT1 2459   0.887   9.562   9.026  0.7056 -0.1142 -0.6012
  164LIG    OT2 2460   0.885   9.345   9.058 -0.6565 -0.1972 -0.6947
  165LIG      N 2461   8.830   6.882   3.377 -0.1245 -0.2896  0.1721
  165LIG     H1 2462   8.782   6.823   3.306  0.6098 -1.2178  0.4314
  165LIG     H2 2463   8.929   6.853   3.365  0.0373  1.0626 -2.7605
  165LIG     H3 2464   8.804   6.855   3.474 -2.5669 -1.1965 -0.6439
  165LIG     CA 2465   8.814   7.028   3.360  0.2123 -0.2253 -0.3982
  165LIG     HA 2466   8.710   7.056   3.365  0.4330  0.7645 -0.9478
  165LIG     CB 2467   8.886   7.103   3.477 -0.3320 -0.2218 -0.0209
  165LIG    HB1 2468   8.869   7.212   3.467  0.0157 -0.3020 -1.6943
  165LIG    HB2 2469   8.991   7.066   3.484 -1.1667 -3.7047 -2.8325
  165LIG     CG 2470   8.819   7.058   3.610  0.0018 -0.9636 -0.1078
  165LIG    OD1 2471   8.837   7.133   3.706  0.0474  0.0006  0.6239
  165LIG    OD2 2472   8.758   6.948   3.611  0.9498 -0.5299 -0.4386
  165LIG      C 2473   8.865   7.086   3.225 -1.0167 -0.9292 -0.2784
  165LIG    OT1 2474   8.912   7.017   3.130  0.0243  0.0428  0.3719
  165LIG    OT2 2475   8.848   7.210   3.207  0.9611 -0.9753  0.1349
  166LIG      N 2476   2.769   0.180   5.424 -0.1482  0.5518 -0.0552
  166LIG     H1 2477   2.848   0.221   5.477 -1.2769 -0.0141  2.1758
  166LIG     H2 2478   2.811   0.110   5.359 -1.2297  0.2754 -0.4854
  166LIG     H3 2479   2.722   0.253   5.366  1.5020  1.1685 -0.6567
  166LIG     CA 2480   2.673   0.111   5.520  0.1981  0.4796  0.1044
  166LIG     HA 2481   2.605   0.058   5.455  0.6945 -0.6776  0.5168
  166LIG     CB 2482   2.738   0.003   5.616  0.0649  0.2743 -0.1703
  166LIG    HB1 2483   2.650  -0.049   5.661  0.5796 -1.6581 -1.2634
  166LIG    HB2 2484   2.792   0.047   5.702 -2.3556  3.0861  0.0994
  166LIG     CG 2485   2.817  -0.105   5.545  1.5003 -0.3012 -0.7164
  166LIG    OD1 2486   2.855  -0.197   5.615 -0.4135 -0.0890 -0.2178
  166LIG    OD2 2487   2.845  -0.099   5.422 -0.1400  0.1148 -0.0658
  166LIG      C 2488   2.594   0.217   5.606  0.3504  0.2770 -0.5858
  166LIG    OT1 2489   2.631   0.337   5.606 -0.1159  0.4187 -0.1292
  166LIG    OT2 2490   2.501   0.173   5.678 -0.1237  0.1506  0.4998
  167LIG      N 2491   8.933   9.062   0.169 -0.0375  0.3256 -0.1956
  167LIG     H1 2492   8.942   8.998   0.250  0.6935  2.7894  1.8056
  167LIG     H2 2493   9.022   9.112   0.149  1.0378 -2.4181 -3.0107
  167LIG     H3 2494   8.856   9.129   0.190 -0.3985  0.2008 -1.0647
  167LIG     CA 2495   8.910   8.976   0.044 -0.3461 -0.6644 -0.0413
  167LIG     HA 2496   8.872   8.878   0.069  1.4748 -1.2828  0.4151
  167LIG     CB 2497   8.803   9.042  -0.058  0.2868 -0.1847 -0.6402
  167LIG    HB1 2498   8.795   8.976  -0.147  1.6402  0.6431 -1.4164
  167LIG    HB2 2499   8.841   9.143  -0.084 -0.5218 -0.0539 -1.3448
  167LIG     CG 2500   8.662   9.054   0.006 -0.2150  0.1766 -0.6281
  167LIG    OD1 2501   8.636   9.016   0.123  0.2008  0.0629 -0.3992
  167LIG    OD2 2502   8.576   9.112  -0.069 -0.0661  0.4500  0.4553
  167LIG      C 2503   9.046   8.939  -0.022  0.6913  0.0440  0.1204
  167LIG    OT1 2504   9.152   8.992   0.017  0.3292 -0.1158 -0.1082
  167LIG    OT2 2505   9.039   8.841  -0.103 -0.5974  0.7660  0.9445
  168LIG      N 2506   1.669   7.031   4.155  0.9237  0.0359  0.0289
  168LIG     H1 2507   1.738   6.953   4.149 -1.4367 -2.1808 -0.1297
  168LIG     H2 2508   1.620   7.011   4.245  1.5850 -1.6654  0.0483
  168LIG     H3 2509   1.594   7.017   4.084  0.0690 -0.4605  0.9906
  168LIG     CA 2510   1.725   7.165   4.143  0.8997 -0.5989 -0.8670
  168LIG     HA 2511   1.795   7.176   4.224 -2.5529  2.7523  2.1158
  168LIG     CB 2512   1.793   7.186   4.009 -0.9526  0.3148  0.9900
  168LIG    HB1 2513   1.811   7.294   3.988 -0.3236  0.0308  0.0136
  168LIG    HB2 2514   1.730   7.152   3.924 -2.1605  1.1551  1.5195
  168LIG     CG 2515   1.927   7.119   4.009 -0.7557  0.5685 -0.0543
  168LIG    OD1 2516   1.942   7.013   4.068  0.2950  0.6585  0.6480
  168LIG    OD2 2517   2.016   7.167   3.936 -0.0483  0.0042  0.2126
  168LIG      C 2518   1.630   7.287   4.175  0.0493  1.0555  0.4516
  168LIG    OT1 2519   1.507   7.269   4.188 -0.0559 -0.6360 -0.4877
  168LIG    OT2 2520   1.681   7.401   4.182  0.0156  0.2837 -0.1880
  169LIG      N 2521   3.497   7.106   5.322  0.5823  0.4542 -0.2575
  169LIG     H1 2522   3.556   7.179   5.278  1.3784  1.9068  2.8751
  169LIG     H2 2523   3.560   7.031   5.356  1.7425  1.3135 -0.4596
  169LIG     H3 2524   3.452   7.061   5.240  1.5565 -1.9749  0.4845
  169LIG     CA 2525   3.400   7.152   5.428 -0.1934 -0.0965 -0.4265
  169LIG     HA 2526   3.447   7.199   5.514 -1.5421  0.8778 -0.1732
  169LIG     CB 2527   3.296   7.250   5.371  0.3368  0.3516 -0.2116
  169LIG    HB1 2528   3.222   7.279   5.449 -2.4344 -1.4516 -2.0172
  169LIG    HB2 2529   3.237   7.208   5.287 -1.0297  1.1939  0.3013
  169LIG     CG 2530   3.366   7.376   5.324 -0.9727 -0.4517 -0.1353
  169LIG    OD1 2531   3.484   7.392   5.373 -0.2012  0.1962 -0.5053
  169LIG    OD2 2532   3.308   7.446   5.240  0.5483 -0.4199 -0.2705
  169LIG      C 2533   3.323   7.031   5.497 -0.2380  0.0747 -0.7831
  169LIG    OT1 2534   3.340   6.914   5.451  0.2198  0.0773 -0.0631
  169LIG    OT2 2535   3.243   7.055   5.591  0.2557  0.1659  0.3607
  170LIG      N 2536   9.516   0.409   5.823 -0.6133  0.3608  0.1758
  170LIG     H1 2537   9.477   0.412   5.726 -0.6337 -0.4048  0.1541
  170LIG     H2 2538   9.615   0.439   5.818  1.1792 -4.3479  1.4397
  170LIG     H3 2539   9.509   0.318   5.872 -1.4890 -1.3885 -2.8896
  170LIG     CA 2540   9.442   0.501   5.911  0.2698 -0.7755  0.0410
  170LIG     HA 2541   9.483   0.494   6.010  1.3210 -0.8061 -0.3803
  170LIG     CB 2542   9.472   0.645   5.869  0.3063  0.2048  0.8229
  170LIG    HB1 2543   9.422   0.723   5.931 -0.7321 -0.4038  0.7670
  170LIG    HB2 2544   9.434   0.661   5.766  0.6259  1.4987  0.8883
  170LIG     CG 2545   9.622   0.684   5.881 -0.7760  0.6901 -0.0958
  170LIG    OD1 2546   9.704   0.593   5.890 -0.2229  0.2510 -0.2517
  170LIG    OD2 2547   9.652   0.804   5.873 -0.3281  0.4065  0.0733
  170LIG      C 2548   9.293   0.475   5.923 -0.2155  0.2449 -0.0966
  170LIG    OT1 2549   9.241   0.391   5.853  0.2902 -0.5563 -0.2481
  170LIG    OT2 2550   9.228   0.537   6.010 -0.2065 -0.1813 -0.2751
  171LIG      N 2551   2.521   7.087   5.884 -0.1663  0.2610  0.0976
  171LIG     H1 2552   2.435   7.110   5.939 -0.3338 -0.3475  0.0960
  171LIG     H2 2553   2.596   7.159   5.880 -0.2402  0.3732  0.6706
  171LIG     H3 2554   2.493   7.056   5.788 -0.4990 -1.3999  0.7028
  171LIG     CA 2555   2.576   6.972   5.957 -0.4476  0.6428 -0.2385
  171LIG     HA 2556   2.641   6.913   5.895 -2.0106 -1.2118 -0.2017
  171LIG     CB 2557   2.651   7.018   6.085  0.1416 -0.5577  0.1668
  171LIG    HB1 2558   2.706   6.938   6.141  0.4805  1.0567  2.2669
  171LIG    HB2 2559   2.575   7.065   6.151  1.0696  1.9125 -0.4292
  171LIG     CG 2560   2.757   7.124   6.062  0.0166  0.2946  0.0029
  171LIG    OD1 2561   2.815   7.167   6.162 -0.6172 -0.2985  0.0395
  171LIG    OD2 2562   2.768   7.166   5.941 -0.2979  0.0481 -0.9825
  171LIG      C 2563   2.466   6.873   6.014  0.2224  0.5504 -0.1864
  171LIG    OT1 2564   2.345   6.902   5.999 -0.1710 -0.2324 -0.3596
  171LIG    OT2 2565   2.502   6.767   6.072  0.6805 -0.0846  0.3509
  172LIG      N 2566   4.902   4.906   7.717  0.6021  0.9526 -0.2000
  172LIG     H1 2567   4.810   4.912   7.766  1.4403 -0.0586  1.5784
  172LIG     H2 2568   4.971   4.941   7.786  1.5381  0.6962 -0.9901
  172LIG     H3 2569   4.898   4.975   7.639  0.2420  2.4111  1.0493
  172LIG     CA 2570   4.938   4.768   7.672  0.1020 -0.7742  0.6330
  172LIG     HA 2571   4.951   4.712   7.764 -0.4263 -0.1203  1.1127
  172LIG     CB 2572   4.832   4.712   7.574 -0.1677 -0.2532 -0.3564
  172LIG    HB1 2573   4.849   4.610   7.535 -1.3584 -1.0329  1.0646
  172LIG    HB2 2574   4.820   4.784   7.489 -0.6659 -1.0321 -0.9608
  172LIG     CG 2575   4.702   4.696   7.647 -0.9715  0.2224  0.6440
  172LIG    OD1 2576   4.597   4.660   7.581  0.7374  0.1710  0.1342
  172LIG    OD2 2577   4.695   4.707   7.772  0.4204 -0.5483  0.2778
  172LIG      C 2578   5.080   4.769   7.601 -0.1600  0.8320 -0.5403
  172LIG    OT1 2579   5.145   4.875   7.602 -0.7030 -0.2318 -0.3423
  172LIG    OT2 2580   5.122   4.659   7.556 -0.0821  0.2165  0.0923
  173LIG      N 2581   2.330   1.966   1.793 -0.4955  0.2566  0.5413
  173LIG     H1 2582   2.314   1.902   1.713  1.1367  0.8486 -0.2923
  173LIG     H2 2583   2.318   2.062   1.755 -1.8847  0.3514  1.1809
  173LIG     H3 2584   2.432   1.966   1.816 -0.2555  1.3152 -0.4548
  173LIG     CA 2585   2.232   1.947   1.903 -0.4067  0.1269  0.1160
  173LIG     HA 2586   2.153   1.896   1.851  1.4733 -0.9318 -1.8612
  173LIG     CB 2587   2.287   1.850   2.011  1.0706 -0.2190  0.5108
  173LIG    HB1 2588   2.210   1.832   2.090  0.3194 -0.0296 -0.1611
  173LIG    HB2 2589   2.380   1.879   2.064  0.9109 -0.2702  0.8222
  173LIG     CG 2590   2.322   1.714   1.952  0.0246  0.1344 -0.3960
  173LIG    OD1 2591   2.274   1.681   1.844  0.2783  0.0691  0.2621
  173LIG    OD2 2592   2.383   1.627   2.023  0.7617  0.1668 -0.1185
  173LIG      C 2593   2.184   2.074   1.980  0.1903 -0.3065  0.0208
  173LIG    OT1 2594   2.249   2.182   1.971 -0.2635 -0.3589 -0.1714
  173LIG    OT2 2595   2.090   2.067   2.056  0.3260 -0.0468 -0.2423
  174LIG      N 2596   1.385   3.401   0.221 -0.4770  0.1292  0.1623
  174LIG     H1 2597   1.438   3.328   0.272 -1.1593  1.3474  2.7574
  174LIG     H2 2598   1.397   3.402   0.117 -1.2386  1.5849  0.0584
  174LIG     H3 2599   1.425   3.489   0.258  1.4789 -0.0903 -1.2417
  174LIG     CA 2600   1.236   3.400   0.246 -0.8755 -0.1075  0.5187
  174LIG     HA 2601   1.200   3.304   0.215 -0.0989 -0.3208  0.2518
  174LIG     CB 2602   1.219   3.428   0.392 -0.1014 -0.3116  0.3533
  174LIG    HB1 2603   1.114   3.458   0.414 -0.0219  1.2590 -1.2357
  174LIG    HB2 2604   1.280   3.507   0.440 -0.2663  0.3200 -0.4592
  174LIG     CG 2605   1.247   3.309   0.482  0.4688  0.4085 -0.2650
  174LIG    OD1 2606   1.308   3.208   0.440  0.0795 -0.7459 -0.0129
  174LIG    OD2 2607   1.201   3.313   0.604  0.0945 -0.0344  0.6629
  174LIG      C 2608   1.175   3.517   0.165  0.3211  0.5380 -0.4037
  174LIG    OT1 2609   1.236   3.619   0.127  0.0921  0.5243 -0.1366
  174LIG    OT2 2610   1.050   3.510   0.146  0.1367 -0.0125  0.4083
  175LIG      N 2611   6.056   5.239   2.910 -0.7297 -0.0336  0.0706
  175LIG     H1 2612   5.986   5.236   2.833  0.0665  2.6114 -0.8433
  175LIG     H2 2613   6.132   5.304   2.883  2.1658 -3.3007 -0.3947
  175LIG     H3 2614   6.113   5.154   2.927  1.2780  1.2962  0.2824
  175LIG     CA 2615   6.000   5.281   3.043  0.1514  0.1760 -0.1120
  175LIG     HA 2616   5.922   5.215   3.076 -1.2041  0.8176 -1.8733
  175LIG     CB 2617   6.104   5.289   3.159 -0.1566  0.1865  0.2915
  175LIG    HB1 2618   6.057   5.316   3.256 -2.6511 -1.0841 -0.4461
  175LIG    HB2 2619   6.178   5.362   3.120 -0.2029  0.6691  1.0927
  175LIG     CG 2620   6.177   5.152   3.180 -0.5051  0.4146  0.4371
  175LIG    OD1 2621   6.172   5.061   3.094  1.1439  0.0556  0.1690
  175LIG    OD2 2622   6.249   5.132   3.280 -0.6080  0.7017  0.1895
  175LIG      C 2623   5.950   5.430   3.036  0.5547 -0.4966  0.7085
  175LIG    OT1 2624   5.960   5.492   2.930  0.3166  0.0865 -0.2071
  175LIG    OT2 2625   5.902   5.482   3.139  0.5462 -0.2960 -0.0027
  176LIG      N 2626   9.577   2.685   7.240 -0.1661  0.2268  0.3090
  176LIG     H1 2627   9.482   2.725   7.229 -0.2985  0.2210  1.2899
  176LIG     H2 2628   9.628   2.752   7.303 -0.4534  0.1340  0.6444
  176LIG     H3 2629   9.623   2.693   7.147 -1.4177  0.4663 -0.2972
  176LIG     CA 2630   9.573   2.545   7.284 -0.2710 -0.5788  0.4192
  176LIG     HA 2631   9.515   2.542   7.375  0.5272 -1.4277  0.9193
  176LIG     CB 2632   9.508   2.463   7.171 -0.5533  0.0884  0.1764
  176LIG    HB1 2633   9.517   2.358   7.207  0.2743  0.5615  1.4512
  176LIG    HB2 2634   9.563   2.479   7.076  0.4551 -0.6968  0.6020
  176LIG     CG 2635   9.365   2.484   7.147 -0.0759  0.2066 -0.1651
  176LIG    OD1 2636   9.298   2.552   7.225  0.1047 -0.2531 -0.2969
  176LIG    OD2 2637   9.313   2.422   7.053 -0.5858 -0.1100  0.4845
  176LIG      C 2638   9.705   2.481   7.320 -0.5597 -0.9348 -1.1204
  176LIG    OT1 2639   9.817   2.532   7.299 -0.1930  1.0930  0.5426
  176LIG    OT2 2640   9.701   2.373   7.382  0.2334  0.2491  0.1087
  177LIG      N 2641   5.388   2.273   1.652 -0.1563 -0.6891 -0.1662
  177LIG     H1 2642   5.434   2.344   1.713  0.3894  0.0499 -1.4063
  177LIG     H2 2643   5.463   2.218   1.605  0.1602 -2.0817  1.8084
  177LIG     H3 2644   5.326   2.332   1.593  0.0256 -0.1202  0.2004
  177LIG     CA 2645   5.317   2.181   1.743  0.2183  0.0928  0.3869
  177LIG     HA 2646   5.238   2.132   1.687 -1.7317  3.4891 -0.1092
  177LIG     CB 2647   5.414   2.072   1.777  0.0633  0.0308 -0.1522
  177LIG    HB1 2648   5.355   2.012   1.851 -2.1562  2.8377  0.5299
  177LIG    HB2 2649   5.506   2.121   1.816 -0.2569  0.0191  0.6334
  177LIG     CG 2650   5.461   1.978   1.665  0.3527 -0.1061  0.4055
  177LIG    OD1 2651   5.475   2.018   1.546  0.1729  0.6323 -0.1461
  177LIG    OD2 2652   5.500   1.860   1.690  0.0784  0.2376 -1.0039
  177LIG      C 2653   5.244   2.248   1.868  0.3114  0.8331 -0.3388
  177LIG    OT1 2654   5.233   2.368   1.891 -0.2776  0.1415  0.3689
  177LIG    OT2 2655   5.203   2.157   1.949  0.5435 -0.8406  0.4958
  178LIG      N 2656   4.782   1.517   2.903 -0.7519 -0.3720 -0.2977
  178LIG     H1 2657   4.695   1.504   2.959 -1.2096 -0.1895 -0.9603
  178LIG     H2 2658   4.860   1.547   2.965 -0.0638 -1.6611 -0.5011
  178LIG     H3 2659   4.776   1.576   2.818  1.4693  0.4353  0.0258
  178LIG     CA 2660   4.823   1.375   2.860  0.4600 -0.2307  0.0416
  178LIG     HA 2661   4.752   1.346   2.784  1.2984 -1.7233 -0.2187
  178LIG     CB 2662   4.966   1.378   2.805  0.4799 -0.0346  0.2986
  178LIG    HB1 2663   5.002   1.275   2.785 -0.9258 -0.3735 -0.6511
  178LIG    HB2 2664   5.034   1.424   2.879 -0.8428 -1.5324  2.5651
  178LIG     CG 2665   4.977   1.463   2.675  0.5314  0.3625 -0.4910
  178LIG    OD1 2666   5.077   1.447   2.600  0.0993  0.5440  0.3684
  178LIG    OD2 2667   4.876   1.535   2.649 -0.0736  0.0068  0.1031
  178LIG      C 2668   4.820   1.274   2.982 -0.3301 -0.0587 -0.6432
  178LIG    OT1 2669   4.808   1.319   3.099  0.3469  0.1695 -0.7691
  178LIG    OT2 2670   4.834   1.155   2.957  0.4187  0.2444  0.7469
  179LIG      N 2671   2.350   5.578   9.141  0.3829  0.0425 -0.5221
  179LIG     H1 2672   2.371   5.629   9.053 -1.7238  2.5216  0.2731
  179LIG     H2 2673   2.263   5.597   9.195  0.1577  0.3105 -0.9710
  179LIG     H3 2674   2.427   5.591   9.209 -1.1127 -1.9478  1.7319
  179LIG     CA 2675   2.343   5.436   9.089  0.1126 -0.0457 -0.0986
  179LIG     HA 2676   2.289   5.382   9.166 -0.4868  3.4143  2.1530
  179LIG     CB 2677   2.249   5.423   8.967 -0.6431 -0.5214  0.2902
  179LIG    HB1 2678   2.148   5.462   8.994 -0.4031 -1.1500  2.2267
  179LIG    HB2 2679   2.244   5.315   8.941  2.3875 -0.3012 -1.6715
  179LIG     CG 2680   2.307   5.507   8.852  0.7468 -0.0891 -0.0016
  179LIG    OD1 2681   2.283   5.484   8.734  0.0945  0.5965 -0.5842
  179LIG    OD2 2682   2.382   5.603   8.883  0.1398  0.2111 -0.1242
  179LIG      C 2683   2.480   5.371   9.064  0.1729  0.2339 -0.6946
  179LIG    OT1 2684   2.573   5.424   9.125 -0.0008 -0.2424  0.0284
  179LIG    OT2 2685   2.485   5.257   9.003  0.1267 -0.1401 -0.4611
  180LIG      N 2686   3.466   3.365   8.427  0.2410 -0.0302  0.0693
  180LIG     H1 2687   3.485   3.415   8.517 -0.0861 -0.5525  0.4355
  180LIG     H2 2688   3.507   3.419   8.349  1.0086 -1.7758 -0.7948
  180LIG     H3 2689   3.364   3.365   8.411  0.3211  0.6127 -0.4367
  180LIG     CA 2690   3.516   3.226   8.417 -0.3763 -0.0760 -0.2479
  180LIG     HA 2691   3.596   3.216   8.489 -0.6945  2.4738  0.5563
  180LIG     CB 2692   3.409   3.123   8.451 -0.1141  0.4340  0.2527
  180LIG    HB1 2693   3.445   3.020   8.435 -0.8959  0.1676  0.1562
  180LIG    HB2 2694   3.316   3.133   8.391 -0.2688  0.5289  0.5046
  180LIG     CG 2695   3.359   3.131   8.589  0.2669 -0.6058 -0.0370
  180LIG    OD1 2696   3.415   3.191   8.685 -0.2579  0.0583 -0.2527
  180LIG    OD2 2697   3.249   3.069   8.602  0.3639 -0.0470 -0.2702
  180LIG      C 2698   3.567   3.184   8.275  0.2581  0.3271 -0.0605
  180LIG    OT1 2699   3.540   3.259   8.178  0.1145 -0.4099  0.1151
  180LIG    OT2 2700   3.627   3.070   8.263  0.1784 -0.7203 -0.2901
  181LIG      N 2701   9.725   2.394   3.373  0.5816 -0.6166  0.1227
  181LIG     H1 2702   9.633   2.374   3.328 -0.2814  1.2100  0.9702
  181LIG     H2 2703   9.776   2.469   3.322  2.3478 -1.5686  0.4186
  181LIG     H3 2704   9.765   2.299   3.385 -0.1000 -0.7477  1.4343
  181LIG     CA 2705   9.683   2.448   3.502  0.2235 -0.4676 -0.6600
  181LIG     HA 2706   9.648   2.366   3.562  1.7856 -0.7995 -0.1560
  181LIG     CB 2707   9.790   2.522   3.586  0.1616  0.2732 -0.1888
  181LIG    HB1 2708   9.738   2.553   3.679 -0.0687  0.3149 -0.3311
  181LIG    HB2 2709   9.823   2.616   3.535 -0.0343  1.2353  1.3895
  181LIG     CG 2710   9.910   2.439   3.629  0.1507 -0.7446  1.2799
  181LIG    OD1 2711   9.923   2.320   3.595  0.8034  0.2656 -0.0405
  181LIG    OD2 2712   9.989   2.498   3.704 -0.3880  0.3344 -0.0241
  181LIG      C 2713   9.556   2.542   3.479 -0.5467  0.0814 -0.4343
  181LIG    OT1 2714   9.515   2.559   3.357  0.5681 -0.3341  0.6387
  181LIG    OT2 2715   9.501   2.600   3.578 -0.3406 -0.0765  0.1637
  182LIG      N 2716   8.372   4.852   0.046 -0.4014  0.5756  0.0766
  182LIG     H1 2717   8.283   4.807   0.016  0.3567 -1.7613  1.0755
  182LIG     H2 2718   8.358   4.951   0.073 -0.2384  0.2725  1.3653
  182LIG     H3 2719   8.446   4.829  -0.022 -0.0962  0.5829  0.4045
  182LIG     CA 2720   8.421   4.791   0.179  0.5378  0.1337 -0.0263
  182LIG     HA 2721   8.515   4.839   0.202  1.0330 -0.2961 -1.0489
  182LIG     CB 2722   8.300   4.803   0.279 -0.6362  0.1689  0.2676
  182LIG    HB1 2723   8.307   4.732   0.364 -1.5122  0.3887  0.5330
  182LIG    HB2 2724   8.208   4.771   0.227 -1.0630  1.5111  0.1675
  182LIG     CG 2725   8.290   4.949   0.321 -0.0088 -0.8138 -1.1569
  182LIG    OD1 2726   8.321   5.038   0.242 -0.2193 -0.4323 -0.2881
  182LIG    OD2 2727   8.236   4.975   0.432  1.0224  0.5162  0.1071
  182LIG      C 2728   8.455   4.641   0.159  0.6179  0.4925 -0.6171
  182LIG    OT1 2729   8.405   4.566   0.071  0.1932  0.9166 -0.6168
  182LIG    OT2 2730   8.525   4.593   0.250 -0.2622 -0.1207  0.3181
  183LIG      N 2731   0.399   7.346   4.597  0.6161  0.4957  0.0013
  183LIG     H1 2732   0.442   7.288   4.672  0.5881 -2.1820 -1.8977
  183LIG     H2 2733   0.333   7.413   4.641 -0.1204 -0.9013  1.1289
  183LIG     H3 2734   0.339   7.279   4.545  1.1370  1.3755 -1.8044
  183LIG     CA 2735   0.502   7.390   4.500 -0.1577  0.0920 -0.2920
  183LIG     HA 2736   0.456   7.383   4.403  0.4729  1.3840 -0.6997
  183LIG     CB 2737   0.543   7.533   4.535 -0.6304 -0.0316  0.6411
  183LIG    HB1 2738   0.611   7.559   4.451  0.8082  1.9911  2.3075
  183LIG    HB2 2739   0.599   7.530   4.630 -0.4936 -2.3435  0.5368
  183LIG     CG 2740   0.429   7.632   4.539  0.0996  0.9255  0.2676
  183LIG    OD1 2741   0.445   7.746   4.584  0.1710 -0.1576 -0.3454
  183LIG    OD2 2742   0.324   7.591   4.477  0.2818  0.1752  0.3787
  183LIG      C 2743   0.628   7.290   4.495 -0.2588  0.2119  0.2641
  183LIG    OT1 2744   0.634   7.189   4.572  0.0327 -1.1935 -0.0181
  183LIG    OT2 2745   0.715   7.305   4.403  0.1050 -0.2724 -0.2636
  184LIG      N 2746   5.879   2.747   6.412 -0.3789 -0.2291  0.4345
  184LIG     H1 2747   5.924   2.782   6.325 -0.5563  0.3705  0.5846
  184LIG     H2 2748   5.827   2.666   6.372 -1.4426  0.4016  0.5102
  184LIG     H3 2749   5.815   2.825   6.436 -0.7192 -0.6503  0.9039
  184LIG     CA 2750   5.969   2.712   6.524 -0.1876  0.1091 -0.2709
  184LIG     HA 2751   5.919   2.674   6.612 -0.2193  2.6854  0.9038
  184LIG     CB 2752   6.067   2.600   6.461  0.1151 -0.2172 -0.5085
  184LIG    HB1 2753   6.129   2.565   6.547  1.6429  1.0942 -1.0209
  184LIG    HB2 2754   6.125   2.637   6.374  0.3813 -0.5267 -0.4660
  184LIG     CG 2755   5.987   2.477   6.423  0.7792 -0.0579 -0.5015
  184LIG    OD1 2756   5.860   2.483   6.440  0.1104  0.4291 -0.5388
  184LIG    OD2 2757   6.046   2.383   6.372 -0.3388  0.4352  0.1615
  184LIG      C 2758   6.055   2.827   6.576  0.4917  0.6202  0.3648
  184LIG    OT1 2759   6.062   2.937   6.515 -0.2643  0.2081 -1.0927
  184LIG    OT2 2760   6.131   2.808   6.676 -1.0301  0.3678 -0.5124
  185LIG      N 2761   2.540   6.547   7.770 -0.1537  0.2137  0.5236
  185LIG     H1 2762   2.521   6.452   7.807  0.3146  0.3320  1.0907
  185LIG     H2 2763   2.642   6.561   7.753 -0.5064  1.4120 -0.8026
  185LIG     H3 2764   2.493   6.624   7.822  0.2572  0.0026  1.2282
  185LIG     CA 2765   2.473   6.517   7.646  0.4493 -0.0646 -0.0532
  185LIG     HA 2766   2.393   6.589   7.634  1.1361  0.5987 -0.8647
  185LIG     CB 2767   2.584   6.530   7.534 -0.5566 -0.2284 -0.0883
  185LIG    HB1 2768   2.546   6.497   7.435  0.0620 -0.7291 -0.1638
  185LIG    HB2 2769   2.671   6.467   7.560 -0.9518  0.0332  2.1385
  185LIG     CG 2770   2.644   6.669   7.521 -0.2870  0.1852 -0.1949
  185LIG    OD1 2771   2.739   6.679   7.438 -0.3565  0.2283  0.1111
  185LIG    OD2 2772   2.603   6.769   7.584 -0.1555 -0.6334  0.1195
  185LIG      C 2773   2.407   6.375   7.651  0.6023  0.6442 -0.4705
  185LIG    OT1 2774   2.424   6.312   7.756  0.3265  0.5960 -0.1242
  185LIG    OT2 2775   2.342   6.331   7.555 -0.0461 -0.2547  0.5404
  186LIG      N 2776   9.246   1.058   2.492  0.0627  0.5318 -0.3554
  186LIG     H1 2777   9.200   0.968   2.469  0.6497 -0.2122  1.2406
  186LIG     H2 2778   9.227   1.127   2.416 -0.9618 -0.0880 -0.6760
  186LIG     H3 2779   9.349   1.042   2.498  0.2837  1.2974 -1.5227
  186LIG     CA 2780   9.193   1.105   2.625 -0.5718  0.7945  0.1798
  186LIG     HA 2781   9.085   1.107   2.626 -0.6889 -1.7643  2.2002
  186LIG     CB 2782   9.251   1.019   2.739 -0.3762  0.5999  0.4826
  186LIG    HB1 2783   9.234   1.073   2.834  1.2041  2.1229 -0.0528
  186LIG    HB2 2784   9.360   1.020   2.721 -0.6024 -0.9062 -1.3936
  186LIG     CG 2785   9.199   0.883   2.755 -0.8266 -0.5675  0.5810
  186LIG    OD1 2786   9.254   0.811   2.840  0.5093  0.3493 -0.2488
  186LIG    OD2 2787   9.098   0.853   2.694  0.2300  0.6744 -0.5406
  186LIG      C 2788   9.238   1.249   2.651 -0.3963  0.0041 -0.2778
  186LIG    OT1 2789   9.316   1.318   2.577  0.0977  0.2009  0.0518
  186LIG    OT2 2790   9.187   1.309   2.751  0.3735 -0.1345 -1.0040
  187LIG      N 2791   0.936   4.936   6.580  0.2889  0.5446 -0.1640
  187LIG     H1 2792   0.845   4.983   6.597  0.5224  2.2458 -3.0458
  187LIG     H2 2793   1.007   4.968   6.650  0.2742  1.2348 -0.4531
  187LIG     H3 2794   0.962   4.973   6.487 -0.6052  2.3883  0.2599
  187LIG     CA 2795   0.920   4.786   6.585 -0.4479  0.1388  0.6489
  187LIG     HA 2796   1.018   4.745   6.564 -1.7141 -3.3395  0.8787
  187LIG     CB 2797   0.861   4.740   6.719  0.6226 -0.8746 -0.4520
  187LIG    HB1 2798   0.851   4.630   6.708 -0.1998 -1.0628  1.5921
  187LIG    HB2 2799   0.764   4.788   6.747  0.3691 -1.9234  0.5254
  187LIG     CG 2800   0.959   4.762   6.838 -0.1545  0.1524  0.1121
  187LIG    OD1 2801   1.068   4.821   6.810  0.2344 -0.1386  0.0606
  187LIG    OD2 2802   0.927   4.720   6.949 -0.0666 -0.1597  0.1399
  187LIG      C 2803   0.838   4.726   6.464  0.0059  0.1766 -0.0357
  187LIG    OT1 2804   0.816   4.788   6.355  0.2582 -0.3960 -0.0999
  187LIG    OT2 2805   0.801   4.609   6.464 -0.3353  0.5117 -0.2453
  188LIG      N 2806   0.980   7.411   4.362 -0.1085  0.7785 -0.5674
  188LIG     H1 2807   1.024   7.320   4.337 -1.8139 -0.6340  1.2092
  188LIG     H2 2808   0.879   7.395   4.382 -0.1600 -2.4353 -2.6988
  188LIG     H3 2809   0.994   7.466   4.275 -1.5581  0.3344 -1.1032
  188LIG     CA 2810   1.048   7.469   4.486  0.2101  0.5095  0.3518
  188LIG     HA 2811   0.998   7.563   4.507 -0.1143  1.0822 -2.5809
  188LIG     CB 2812   1.027   7.370   4.607 -0.6060 -0.4232 -0.9876
  188LIG    HB1 2813   1.100   7.287   4.595  0.2893  0.1621  0.2661
  188LIG    HB2 2814   0.926   7.324   4.606 -0.6585 -0.4641  1.4866
  188LIG     CG 2815   1.038   7.449   4.732 -1.1292 -0.5128  0.4475
  188LIG    OD1 2816   1.003   7.566   4.743  0.0481 -0.5898 -0.0445
  188LIG    OD2 2817   1.089   7.385   4.827  0.0096 -0.0783 -0.7806
  188LIG      C 2818   1.199   7.503   4.463  0.1954  0.6874 -0.4872
  188LIG    OT1 2819   1.269   7.432   4.384  0.0466 -0.1518  0.0987
  188LIG    OT2 2820   1.249   7.612   4.506  0.3812 -0.3992 -0.3108
  189LIG      N 2821   8.564   5.981   6.298 -0.6949 -0.2051  0.4519
  189LIG     H1 2822   8.548   5.909   6.372  1.3394  0.7586  1.9243
  189LIG     H2 2823   8.561   6.070   6.352 -1.8933  0.1829 -0.2296
  189LIG     H3 2824   8.488   5.986   6.228  0.0503 -0.3902 -0.3842
  189LIG     CA 2825   8.698   5.972   6.233 -0.0300 -0.6112  0.3994
  189LIG     HA 2826   8.721   6.067   6.186 -1.3576 -0.0259  0.8596
  189LIG     CB 2827   8.806   5.939   6.342 -0.2070  0.4081 -0.4392
  189LIG    HB1 2828   8.901   5.902   6.299  1.6044  1.4421  2.3582
  189LIG    HB2 2829   8.759   5.855   6.398 -0.7655  1.9849  1.6092
  189LIG     CG 2830   8.842   6.045   6.436 -0.6503  0.7095 -0.5211
  189LIG    OD1 2831   8.923   6.020   6.533  0.3056  0.1747 -0.2155
  189LIG    OD2 2832   8.789   6.156   6.414  0.2852  0.3301 -0.0788
  189LIG      C 2833   8.702   5.863   6.121 -1.0179  0.7732  0.1123
  189LIG    OT1 2834   8.620   5.768   6.115 -0.1248 -0.6077 -0.1432
  189LIG    OT2 2835   8.804   5.865   6.044  0.4897  0.0095  0.4559
  190LIG      N 2836   6.435   7.989   4.441  0.0282 -0.3144  0.3823
  190LIG     H1 2837   6.338   7.989   4.478 -1.1564  3.9519 -2.0457
  190LIG     H2 2838   6.496   7.960   4.520  2.2916 -0.0573 -1.1762
  190LIG     H3 2839   6.467   8.088   4.431 -0.5745 -0.3061 -1.9544
  190LIG     CA 2840   6.473   7.901   4.322 -0.5323 -0.5671  0.5297
  190LIG     HA 2841   6.574   7.927   4.295 -0.7074  0.5194  0.8908
  190LIG     CB 2842   6.443   7.753   4.354  0.3356  0.2920 -0.6004
  190LIG    HB1 2843   6.475   7.679   4.277 -0.4694  0.8108 -1.4523
  190LIG    HB2 2844   6.337   7.747   4.387  1.2517  1.6685  3.0912
  190LIG     CG 2845   6.523   7.708   4.473 -0.2061  0.1605  0.0552
  190LIG    OD1 2846   6.619   7.775   4.519  0.3337 -0.3253 -0.4219
  190LIG    OD2 2847   6.497   7.594   4.517  0.0724  0.1567 -0.3825
  190LIG      C 2848   6.397   7.922   4.192 -0.1190  0.3767  0.9658
  190LIG    OT1 2849   6.282   7.964   4.189  0.2597  0.4438 -0.3451
  190LIG    OT2 2850   6.453   7.889   4.089 -0.0360  0.6492 -0.4660
  191LIG      N 2851   1.145   2.085   5.103  0.1105 -0.3587  0.0930
  191LIG     H1 2852   1.233   2.035   5.127  1.4591  2.0011  0.3600
  191LIG     H2 2853   1.110   2.136   5.187 -0.6729  0.3240 -0.6291
  191LIG     H3 2854   1.073   2.019   5.069 -0.3288  0.7826 -1.2915
  191LIG     CA 2855   1.184   2.178   4.986 -0.6430  0.5188 -0.9370
  191LIG     HA 2856   1.201   2.110   4.903  2.1071 -0.2258  0.1499
  191LIG     CB 2857   1.069   2.273   4.964 -0.3048 -0.0304 -0.1311
  191LIG    HB1 2858   1.101   2.343   4.883  0.2037 -1.1787 -0.9428
  191LIG    HB2 2859   1.055   2.326   5.061  0.9020 -0.9700  0.5849
  191LIG     CG 2860   0.945   2.208   4.915  0.0137 -0.2990  1.0437
  191LIG    OD1 2861   0.944   2.099   4.860  0.3860 -0.3152  0.4045
  191LIG    OD2 2862   0.829   2.271   4.925 -1.0217 -0.6758  0.1298
  191LIG      C 2863   1.314   2.250   5.010 -0.9341 -0.6413  0.3185
  191LIG    OT1 2864   1.375   2.242   5.120 -0.1840 -0.0802 -0.5371
  191LIG    OT2 2865   1.351   2.325   4.917 -0.4942  0.5510  0.3015
  192LIG      N 2866   9.410   1.982   2.878 -0.0192 -0.2102 -0.1954
  192LIG     H1 2867   9.408   2.006   2.979 -1.0582 -1.5368  0.1302
  192LIG     H2 2868   9.331   1.918   2.857  0.7611 -1.1882 -0.2150
  192LIG     H3 2869   9.495   1.925   2.858 -1.0877 -1.2501 -2.0599
  192LIG     CA 2870   9.398   2.098   2.795  0.2848  0.1850  0.2072
  192LIG     HA 2871   9.419   2.062   2.695 -1.2000  0.5936 -0.2877
  192LIG     CB 2872   9.251   2.153   2.813 -0.2925 -0.3203  0.1228
  192LIG    HB1 2873   9.239   2.239   2.744 -1.4134 -0.4567  0.1194
  192LIG    HB2 2874   9.231   2.166   2.922 -0.2598  0.0227  0.0895
  192LIG     CG 2875   9.153   2.057   2.764  0.1281  0.0490 -0.5827
  192LIG    OD1 2876   9.189   1.941   2.739 -0.1471 -0.4995  0.4648
  192LIG    OD2 2877   9.035   2.090   2.744 -0.1487 -0.8544 -0.1998
  192LIG      C 2878   9.487   2.217   2.830 -1.1695  0.1313  0.2638
  192LIG    OT1 2879   9.572   2.216   2.923 -0.2743 -0.0649  0.2747
  192LIG    OT2 2880   9.474   2.325   2.767  0.3808  0.4139 -0.9832
  193LIG      N 2881   1.551   6.050   2.518 -0.2568 -0.0546 -0.0733
  193LIG     H1 2882   1.610   5.965   2.503 -1.4275 -1.0804  0.8725
  193LIG     H2 2883   1.552   6.102   2.428  2.0272 -1.0071 -0.6762
  193LIG     H3 2884   1.595   6.107   2.593 -1.5905 -0.1303  0.7954
  193LIG     CA 2885   1.415   6.022   2.554 -0.4002 -0.1006  0.6336
  193LIG     HA 2886   1.373   5.975   2.466 -0.8399  0.0367  0.7639
  193LIG     CB 2887   1.397   5.935   2.684  0.7125 -0.4755  0.0511
  193LIG    HB1 2888   1.289   5.926   2.709  1.1253 -0.7221  1.9509
  193LIG    HB2 2889   1.448   5.983   2.771 -1.2070  0.8948  0.4777
  193LIG     CG 2890   1.445   5.797   2.662 -0.4322  0.5461 -0.2131
  193LIG    OD1 2891   1.428   5.707   2.750  0.2327  0.4973  0.1298
  193LIG    OD2 2892   1.508   5.773   2.552  0.2874  0.3045  0.0990
  193LIG      C 2893   1.329   6.147   2.567 -0.9983  0.0335 -0.0919
  193LIG    OT1 2894   1.378   6.263   2.575 -0.5354  0.3332  0.0518
  193LIG    OT2 2895   1.203   6.137   2.581 -0.4876 -0.1189 -0.3252
  194LIG      N 2896   0.240   0.192   7.710 -0.0035 -0.1771 -0.6562
  194LIG     H1 2897   0.328   0.246   7.697  0.5385 -0.8793  0.0002
  194LIG     H2 2898   0.252   0.121   7.785 -0.4129  0.5274  0.0971
  194LIG     H3 2899   0.222   0.131   7.628 -1.2562 -1.7036  0.6894
  194LIG     CA 2900   0.131   0.282   7.749 -0.0163  0.0508  0.0349
  194LIG     HA 2901   0.143   0.368   7.686  2.3978  0.0056  0.3528
  194LIG     CB 2902  -0.010   0.208   7.733  0.5315  0.0376 -0.1633
  194LIG    HB1 2903  -0.082   0.283   7.771  0.0508 -0.7072  0.3989
  194LIG    HB2 2904  -0.018   0.118   7.797  0.0078  1.1936  1.4435
  194LIG     CG 2905  -0.046   0.185   7.590  0.2937  0.2537 -0.1218
  194LIG    OD1 2906   0.041   0.196   7.497 -0.1217 -0.2722 -0.2416
  194LIG    OD2 2907  -0.166   0.144   7.563  0.2896 -0.4009  0.1984
  194LIG      C 2908   0.139   0.342   7.893  0.1519 -0.4994  0.2234
  194LIG    OT1 2909   0.222   0.293   7.973  0.5032  0.5252 -0.4744
  194LIG    OT2 2910   0.069   0.436   7.933  0.2387  0.2811  0.0295
  195LIG      N 2911   8.257   4.945   5.746  0.3295  0.3574 -0.0637
  195LIG     H1 2912   8.183   5.000   5.794 -1.7948  0.0351 -2.7047
  195LIG     H2 2913   8.348   4.956   5.794  0.5197 -0.8413 -0.1241
  195LIG     H3 2914   8.253   4.979   5.647 -2.5916 -0.0107 -0.1805
  195LIG     CA 2915   8.198   4.805   5.743  0.0861  0.1027  0.0799
  195LIG     HA 2916   8.223   4.757   5.836  0.3052  0.5117  0.2337
  195LIG     CB 2917   8.044   4.811   5.727 -0.1657 -0.2481 -0.8893
  195LIG    HB1 2918   8.001   4.710   5.742  1.7356 -0.9628  0.0750
  195LIG    HB2 2919   8.015   4.838   5.623 -2.3640  0.0433 -0.2661
  195LIG     CG 2920   7.969   4.889   5.827  0.1052 -0.0125 -0.0345
  195LIG    OD1 2921   7.995   4.877   5.953  0.6641 -0.5867  0.0117
  195LIG    OD2 2922   7.859   4.939   5.786 -1.2206 -0.1492 -0.4769
  195LIG      C 2923   8.275   4.706   5.647  0.4598 -0.2620  0.3836
  195LIG    OT1 2924   8.385   4.727   5.591  0.4373 -0.2939 -0.0473
  195LIG    OT2 2925   8.217   4.595   5.625 -0.1315 -0.1050 -0.1710
  196LIG      N 2926   8.814   8.396   1.826  0.1846 -0.1534 -0.1793
  196LIG     H1 2927   8.742   8.412   1.753 -1.0801 -3.1644  0.2769
  196LIG     H2 2928   8.765   8.332   1.891  0.6844 -0.5715 -0.2039
  196LIG     H3 2929   8.836   8.488   1.871 -1.0482 -0.0146  0.1730
  196LIG     CA 2930   8.933   8.333   1.760 -0.0069  0.6507 -0.0752
  196LIG     HA 2931   8.967   8.411   1.693  2.3321 -0.0177  0.2523
  196LIG     CB 2932   9.049   8.300   1.860 -0.2090 -0.0840  0.0017
  196LIG    HB1 2933   9.116   8.227   1.809 -0.0036  0.3847 -0.4099
  196LIG    HB2 2934   9.004   8.261   1.953 -1.4684 -0.4898 -0.7467
  196LIG     CG 2935   9.123   8.422   1.906 -1.0733 -1.0686 -0.3090
  196LIG    OD1 2936   9.189   8.416   2.014  0.0646 -0.6268 -0.3750
  196LIG    OD2 2937   9.125   8.518   1.831 -0.3322  0.0211  0.6386
  196LIG      C 2938   8.887   8.206   1.672  0.2694  0.1546  0.3078
  196LIG    OT1 2939   8.761   8.199   1.633 -0.1273 -0.1642  0.5147
  196LIG    OT2 2940   8.967   8.117   1.642 -0.4672 -0.1370  0.2899
  197LIG      N 2941   9.252   2.415   0.669 -0.0963 -0.1337 -0.4762
  197LIG     H1 2942   9.318   2.495   0.673  2.0330 -1.8574  1.5685
  197LIG     H2 2943   9.305   2.326   0.669 -1.5451 -1.0421 -0.5703
  197LIG     H3 2944   9.196   2.418   0.581  1.3415 -1.1785 -1.4657
  197LIG     CA 2945   9.167   2.418   0.790  1.0090 -0.2975  0.5357
  197LIG     HA 2946   9.221   2.380   0.876  0.6967 -3.3735 -0.5109
  197LIG     CB 2947   9.109   2.564   0.822  0.3213  0.4996 -0.2379
  197LIG    HB1 2948   9.069   2.555   0.926 -0.1609  1.6309 -0.3078
  197LIG    HB2 2949   9.031   2.596   0.750  0.8989  1.6329 -0.3864
  197LIG     CG 2950   9.221   2.664   0.842  0.5766  0.3162 -0.0407
  197LIG    OD1 2951   9.206   2.762   0.915 -0.1843  0.4320  0.1922
  197LIG    OD2 2952   9.329   2.647   0.774 -0.1943  0.6610 -0.1163
  197LIG      C 2953   9.058   2.308   0.791  0.2851  0.2009  0.6712
  197LIG    OT1 2954   9.042   2.227   0.695  0.3278  0.5286  0.0771
  197LIG    OT2 2955   8.980   2.299   0.894 -0.1546  0.0592  1.3321
  198LIG      N 2956   8.018   1.973   9.269  0.4801  0.1231  0.5888
  198LIG     H1 2957   7.991   1.902   9.339 -0.7917  1.2417  1.2635
  198LIG     H2 2958   7.931   2.014   9.230  1.2030  0.0676 -1.1757
  198LIG     H3 2959   8.070   1.925   9.192  1.9953 -0.7354  2.0575
  198LIG     CA 2960   8.091   2.085   9.324 -0.3187 -0.6399 -0.8338
  198LIG     HA 2961   8.069   2.164   9.254 -1.0591  1.0769  1.2251
  198LIG     CB 2962   8.034   2.122   9.463  0.3945  0.7134  0.7015
  198LIG    HB1 2963   8.119   2.178   9.509  0.4939  2.2296 -1.1769
  198LIG    HB2 2964   8.012   2.036   9.529  0.9183  0.3615  0.4277
  198LIG     CG 2965   7.906   2.203   9.438 -0.4596  0.2173 -1.1876
  198LIG    OD1 2966   7.839   2.171   9.347 -0.5258 -0.0922  0.3131
  198LIG    OD2 2967   7.876   2.288   9.524  0.4486  0.1986 -0.2132
  198LIG      C 2968   8.248   2.059   9.317  0.2439 -0.1507  0.0997
  198LIG    OT1 2969   8.280   1.947   9.273  0.2354  0.2606  0.0674
  198LIG    OT2 2970   8.326   2.149   9.355  0.0919 -0.6165  0.2503
  199LIG      N 2971   7.111   5.255   5.347 -0.2910  0.7874  0.2859
  199LIG     H1 2972   7.125   5.194   5.264 -1.7740  2.5456 -1.3364
  199LIG     H2 2973   7.130   5.349   5.308 -0.0096 -0.1574 -2.0216
  199LIG     H3 2974   7.177   5.224   5.420 -2.2221 -0.8230  1.4592
  199LIG     CA 2975   6.977   5.245   5.404  0.0600 -0.4970 -0.0509
  199LIG     HA 2976   6.909   5.260   5.322 -1.0545  0.3756  0.9871
  199LIG     CB 2977   6.949   5.111   5.470  0.3837  0.6125 -0.1273
  199LIG    HB1 2978   7.003   5.095   5.565 -0.8023 -1.2328  0.2863
  199LIG    HB2 2979   6.997   5.037   5.403  0.1258 -0.0893  0.4549
  199LIG     CG 2980   6.798   5.085   5.481  0.4055 -0.1286  0.2684
  199LIG    OD1 2981   6.717   5.104   5.387  0.0746  0.0907 -0.6368
  199LIG    OD2 2982   6.756   5.025   5.587 -0.6729  0.9638  0.0127
  199LIG      C 2983   6.954   5.371   5.497 -0.5155 -0.4489  0.0119
  199LIG    OT1 2984   7.045   5.461   5.511  0.6166  0.5406  0.5300
  199LIG    OT2 2985   6.849   5.381   5.563 -0.0887  0.2114 -0.1290
  200LIG      N 2986   5.871   6.880   6.138 -0.0480 -0.1336  0.2896
  200LIG     H1 2987   5.884   6.838   6.044 -1.3406 -1.7918  0.8039
  200LIG     H2 2988   5.785   6.938   6.138 -0.6012 -0.8626 -1.6582
  200LIG     H3 2989   5.952   6.943   6.152  0.2015  0.2759 -2.4166
  200LIG     CA 2990   5.859   6.774   6.245 -0.4881  0.2825 -0.7686
  200LIG     HA 2991   5.795   6.696   6.205 -2.1607  0.4085  1.4978
  200LIG     CB 2992   6.000   6.728   6.289  0.7255  0.4340  0.0034
  200LIG    HB1 2993   5.995   6.689   6.392  0.2253 -2.8429 -1.1601
  200LIG    HB2 2994   6.085   6.800   6.287  1.2685 -0.1867 -1.6352
  200LIG     CG 2995   6.046   6.616   6.200 -0.2076 -0.2124  0.2062
  200LIG    OD1 2996   5.995   6.597   6.089  0.1725  0.5110 -0.1741
  200LIG    OD2 2997   6.141   6.550   6.242 -0.1773  0.1923 -0.1704
  200LIG      C 2998   5.784   6.818   6.371  0.4456  0.2430  0.5785
  200LIG    OT1 2999   5.738   6.936   6.385 -0.5960  0.5286  0.0260
  200LIG    OT2 3000   5.774   6.735   6.464  0.0891 -0.0616 -0.5257
  201LIG      N 3001   4.687   1.519   4.620 -1.0309  0.1928 -0.0483
  201LIG     H1 3002   4.715   1.419   4.615  0.7275  0.4688  2.4705
  201LIG     H2 3003   4.733   1.565   4.538 -1.0311 -1.3423 -0.9404
  201LIG     H3 3004   4.730   1.565   4.702  0.9142  0.9546 -1.4005
  201LIG     CA 3005   4.539   1.540   4.607  0.1965  0.7158  0.3279
  201LIG     HA 3006   4.501   1.524   4.707 -0.4613  1.6569  0.2411
  201LIG     CB 3007   4.505   1.687   4.566  0.5168 -0.6104 -0.3977
  201LIG    HB1 3008   4.396   1.704   4.564  0.5528 -0.2812 -2.4168
  201LIG    HB2 3009   4.553   1.726   4.473 -0.8203  0.5022 -0.6488
  201LIG     CG 3010   4.553   1.777   4.682 -0.4760 -0.1220 -0.3095
  201LIG    OD1 3011   4.544   1.900   4.669 -0.2303 -0.3153 -0.0663
  201LIG    OD2 3012   4.610   1.721   4.782  0.4706 -0.3797  0.1821
  201LIG      C 3013   4.462   1.432   4.518  0.3988  0.9588  0.0576
  201LIG    OT1 3014   4.527   1.346   4.455 -0.3599  0.2638 -0.4693
  201LIG    OT2 3015   4.334   1.439   4.518  0.0949  0.3586  1.0959
  202LIG      N 3016   4.583   1.216   3.217  1.1794 -0.1758 -0.7387
  202LIG     H1 3017   4.594   1.242   3.317  0.3736 -1.5532 -0.2740
  202LIG     H2 3018   4.600   1.114   3.210  0.1812 -0.6554  2.3640
  202LIG     H3 3019   4.657   1.263   3.160  2.7464 -0.7790  0.7026
  202LIG     CA 3020   4.447   1.246   3.168  0.5865 -0.5800 -0.7252
  202LIG     HA 3021   4.419   1.347   3.196  0.6339 -0.4422 -1.1592
  202LIG     CB 3022   4.447   1.236   3.013 -0.0120  0.1948  1.1817
  202LIG    HB1 3023   4.349   1.218   2.964  0.3203 -0.8562  0.8708
  202LIG    HB2 3024   4.506   1.148   2.978  0.2552  0.6616  0.4337
  202LIG     CG 3025   4.502   1.360   2.958  0.7217  0.0313 -0.8539
  202LIG    OD1 3026   4.519   1.375   2.838 -0.0201  0.1628 -0.2236
  202LIG    OD2 3027   4.536   1.454   3.036 -0.4337  0.4074  0.8424
  202LIG      C 3028   4.339   1.150   3.223 -0.4940 -0.1060  0.0181
  202LIG    OT1 3029   4.365   1.039   3.285  0.1158 -0.0030  0.1320
  202LIG    OT2 3030   4.216   1.177   3.195  0.1381  0.4191  0.1911
  203LIG      N 3031   9.315   6.881   3.132  0.0620  0.3761 -0.1299
  203LIG     H1 3032   9.403   6.925   3.097  0.5776 -0.7684 -0.3193
  203LIG     H2 3033   9.317   6.778   3.131 -0.2440  0.3601  0.4109
  203LIG     H3 3034   9.234   6.909   3.073 -1.8972 -0.6978  1.8964
  203LIG     CA 3035   9.294   6.911   3.272  0.3902  0.7274 -0.1245
  203LIG     HA 3036   9.379   6.869   3.324 -0.6154 -0.0493  0.9256
  203LIG     CB 3037   9.287   7.065   3.279  0.3710 -0.2799  0.2210
  203LIG    HB1 3038   9.258   7.101   3.380  1.2679 -2.2809  1.2685
  203LIG    HB2 3039   9.215   7.101   3.203  0.9997 -0.2800 -0.3868
  203LIG     CG 3040   9.421   7.123   3.271 -0.7603  0.0236  0.4587
  203LIG    OD1 3041   9.428   7.242   3.234 -0.0100 -0.5360 -0.1858
  203LIG    OD2 3042   9.521   7.057   3.303  0.5525 -0.4758 -0.9472
  203LIG      C 3043   9.169   6.843   3.337 -0.4113  0.8423 -0.4368
  203LIG    OT1 3044   9.108   6.748   3.282  0.4763  0.3575  0.3214
  203LIG    OT2 3045   9.136   6.880   3.451 -0.0514 -0.6131 -0.1359
  204LIG      N 3046   9.312   8.925   2.129 -0.0278 -0.0979  0.3100
  204LIG     H1 3047   9.389   8.900   2.064 -0.0605  1.9287 -0.5754
  204LIG     H2 3048   9.312   8.848   2.199  1.6984 -1.1159 -0.7504
  204LIG     H3 3049   9.224   8.939   2.075  0.3575  1.2417 -0.0025
  204LIG     CA 3050   9.343   9.058   2.187  0.0883 -0.0491 -0.0357
  204LIG     HA 3051   9.333   9.123   2.101 -2.3665  0.3413  0.4927
  204LIG     CB 3052   9.249   9.082   2.305  0.1461 -0.6185 -0.1160
  204LIG    HB1 3053   9.279   9.170   2.367 -2.4761  0.0777  0.2620
  204LIG    HB2 3054   9.239   8.995   2.372 -1.2550 -0.6119 -0.2910
  204LIG     CG 3055   9.105   9.109   2.260 -0.7120  0.5833  0.7511
  204LIG    OD1 3056   9.015   9.130   2.345 -0.5051 -0.6494 -0.0989
  204LIG    OD2 3057   9.082   9.096   2.136 -0.1597  0.6311  0.3359
  204LIG      C 3058   9.493   9.070   2.234  0.1803 -0.3385  0.2689
  204LIG    OT1 3059   9.575   8.971   2.227 -0.2331 -0.3279  0.3109
  204LIG    OT2 3060   9.527   9.173   2.292  0.3632  0.4178 -0.3064
  205LIG      N 3061   0.094   6.332   5.379 -0.3143  0.1388 -0.2201
  205LIG     H1 3062   0.080   6.380   5.288 -2.5028 -1.5547 -0.8893
  205LIG     H2 3063   0.008   6.276   5.397 -0.0462  0.4816  2.4971
  205LIG     H3 3064   0.110   6.393   5.462 -2.0437  2.0199 -1.1740
  205LIG     CA 3065   0.209   6.239   5.379  0.9643  0.9228 -0.4641
  205LIG     HA 3066   0.170   6.155   5.322 -0.6452  0.2950  1.4423
  205LIG     CB 3067   0.338   6.313   5.327 -0.0125 -0.0828  0.4600
  205LIG    HB1 3068   0.302   6.341   5.225  0.4666  0.1670  0.3599
  205LIG    HB2 3069   0.427   6.247   5.325 -0.1212 -0.2662  1.2703
  205LIG     CG 3070   0.383   6.432   5.405  0.4876 -0.0510 -0.2682
  205LIG    OD1 3071   0.321   6.458   5.506  0.0257  0.4951  0.3102
  205LIG    OD2 3072   0.486   6.504   5.374  0.0507  0.0857  0.1423
  205LIG      C 3073   0.228   6.179   5.515  0.2096  0.7333 -0.1606
  205LIG    OT1 3074   0.161   6.212   5.618 -0.0793 -0.1628  0.1515
  205LIG    OT2 3075   0.319   6.094   5.536 -0.1714 -0.2774  0.3863
  206LIG      N 3076   4.062   1.271   9.538  0.1915  0.3673 -0.3445
  206LIG     H1 3077   4.011   1.320   9.614  0.4850  2.3580 -1.3579
  206LIG     H2 3078   4.100   1.175   9.550  1.8512  0.5993 -2.9213
  206LIG     H3 3079   4.154   1.316   9.525  0.1615  0.0204 -1.9544
  206LIG     CA 3080   3.968   1.279   9.424 -0.2349 -0.6828  0.8851
  206LIG     HA 3081   3.867   1.278   9.460 -1.0843  0.7627 -1.2344
  206LIG     CB 3082   3.988   1.423   9.364  1.4004 -0.1944  0.6646
  206LIG    HB1 3083   3.964   1.438   9.256  2.0359  1.2066  0.7021
  206LIG    HB2 3084   4.096   1.451   9.367  1.2717  0.5920 -0.8460
  206LIG     CG 3085   3.914   1.532   9.452  0.3943 -0.1927  1.1187
  206LIG    OD1 3086   3.935   1.653   9.423  0.3016 -0.0172 -0.1121
  206LIG    OD2 3087   3.837   1.495   9.545 -0.1967 -0.1952  0.1327
  206LIG      C 3088   3.973   1.173   9.320 -0.3261 -0.9259  0.4278
  206LIG    OT1 3089   4.048   1.073   9.330 -0.2754 -0.3284  0.3931
  206LIG    OT2 3090   3.903   1.190   9.215 -0.0041 -0.2651  0.1536
  207LIG      N 3091   0.828   8.176   0.845  0.5583 -0.0004  0.6268
  207LIG     H1 3092   0.848   8.101   0.776  1.9396 -0.3077  1.3262
  207LIG     H2 3093   0.910   8.238   0.836 -0.4663  1.1501 -1.2788
  207LIG     H3 3094   0.829   8.138   0.942  1.1099 -2.0352 -0.1259
  207LIG     CA 3095   0.707   8.264   0.810  0.3257  0.1072 -0.4855
  207LIG     HA 3096   0.709   8.356   0.867 -2.1987  1.9669 -3.0499
  207LIG     CB 3097   0.723   8.306   0.659  0.0449 -0.2781 -0.2259
  207LIG    HB1 3098   0.625   8.343   0.625  0.0642 -2.0817 -2.5516
  207LIG    HB2 3099   0.748   8.226   0.585  2.0428 -0.7398  0.8556
  207LIG     CG 3100   0.830   8.410   0.633  0.1140  0.6022 -1.7825
  207LIG    OD1 3101   0.859   8.454   0.522  0.0625 -0.2960 -0.7012
  207LIG    OD2 3102   0.890   8.453   0.739 -0.1357  0.2560  0.7170
  207LIG      C 3103   0.577   8.188   0.839  0.1956  0.1981  0.4886
  207LIG    OT1 3104   0.568   8.068   0.880 -0.6163  0.1044  0.3967
  207LIG    OT2 3105   0.474   8.259   0.830  0.2354 -0.0902 -0.8286
  208LIG      N 3106   8.570   4.019   0.404 -0.0358  0.0557 -0.3172
  208LIG     H1 3107   8.630   3.964   0.468 -0.9733 -0.1612  0.4025
  208LIG     H2 3108   8.605   4.115   0.423 -2.5423  0.6426  2.0333
  208LIG     H3 3109   8.471   4.007   0.435  0.1599  1.9248  1.2358
  208LIG     CA 3110   8.601   3.993   0.259 -0.0453 -0.1605 -0.7888
  208LIG     HA 3111   8.574   3.889   0.246  1.4584 -0.9004  1.3840
  208LIG     CB 3112   8.523   4.085   0.159  0.0466  0.1069 -0.0312
  208LIG    HB1 3113   8.567   4.075   0.058  0.3578  1.2445 -0.0164
  208LIG    HB2 3114   8.542   4.188   0.197  2.0493  0.0556 -0.7808
  208LIG     CG 3115   8.376   4.064   0.155  0.1302  0.4079 -0.9003
  208LIG    OD1 3116   8.331   3.997   0.248  0.1575 -0.1257  0.2832
  208LIG    OD2 3117   8.302   4.098   0.052  0.1108  0.2350 -0.4180
  208LIG      C 3118   8.754   4.001   0.232  0.0598  0.8020 -0.3781
  208LIG    OT1 3119   8.837   4.038   0.323 -0.1893  0.1571  0.1040
  208LIG    OT2 3120   8.787   3.963   0.114 -0.0308 -0.0833 -0.2574
  209LIG      N 3121   6.595   5.199   7.660  0.2056  0.0060  0.1965
  209LIG     H1 3122   6.598   5.292   7.706  0.2409  0.6717 -1.0889
  209LIG     H2 3123   6.632   5.128   7.726 -0.6454 -0.7271 -0.1032
  209LIG     H3 3124   6.649   5.195   7.571 -0.4471 -0.3310 -0.1907
  209LIG     CA 3125   6.455   5.166   7.617  0.4013 -0.4307 -0.0088
  209LIG     HA 3126   6.419   5.244   7.551  3.0065  0.5791 -0.3707
  209LIG     CB 3127   6.465   5.031   7.537  0.7534 -0.0042 -0.0215
  209LIG    HB1 3128   6.363   4.998   7.507  0.4447  0.8530  0.0549
  209LIG    HB2 3129   6.504   4.949   7.601  2.4522  1.4150  0.8501
  209LIG     CG 3130   6.555   5.048   7.414 -0.1035  0.4061  0.0628
  209LIG    OD1 3131   6.645   5.134   7.407 -0.1742  0.1166 -0.5247
  209LIG    OD2 3132   6.550   4.953   7.328 -0.4901  0.5857 -0.4105
  209LIG      C 3133   6.349   5.152   7.735 -0.8376 -0.6162 -0.1767
  209LIG    OT1 3134   6.386   5.179   7.852 -0.4864 -0.2285 -0.6067
  209LIG    OT2 3135   6.231   5.115   7.711 -0.4299 -0.0147 -0.0122
  210LIG      N 3136   3.903   9.234   5.711 -0.0735 -0.2805 -0.5897
  210LIG     H1 3137   3.884   9.304   5.636 -0.5540  0.1421 -0.0867
  210LIG     H2 3138   3.815   9.190   5.744 -1.7305  3.9013  1.2834
  210LIG     H3 3139   3.934   9.288   5.794 -0.2551  0.1635 -0.8036
  210LIG     CA 3140   4.014   9.148   5.653  0.7157 -0.3015  0.5022
  210LIG     HA 3141   3.976   9.102   5.563  0.2086  2.5690 -0.8566
  210LIG     CB 3142   4.126   9.234   5.590  0.2246 -0.1473  0.9838
  210LIG    HB1 3143   4.196   9.166   5.537 -2.0916 -2.7946  1.0531
  210LIG    HB2 3144   4.183   9.296   5.663  0.5838  0.7940 -0.0668
  210LIG     CG 3145   4.076   9.345   5.492 -0.0281  0.4802  0.7682
  210LIG    OD1 3146   4.161   9.418   5.430  0.2947  0.0764  0.2555
  210LIG    OD2 3147   3.951   9.362   5.489  0.1068  0.0482  1.1155
  210LIG      C 3148   4.068   9.043   5.739 -0.3743  0.4458 -0.1745
  210LIG    OT1 3149   4.018   9.015   5.851 -0.2660 -0.7462 -0.0699
  210LIG    OT2 3150   4.175   8.984   5.702 -0.0662 -0.6672  0.3639
  211LIG      N 3151   4.442   2.136   8.589  0.3680 -0.7992 -0.3278
  211LIG     H1 3152   4.371   2.067   8.620 -0.8558  0.5607  0.0283
  211LIG     H2 3153   4.518   2.145   8.660 -1.7750  4.7302  1.7999
  211LIG     H3 3154   4.396   2.229   8.599  0.9745 -0.5131 -0.1168
  211LIG     CA 3155   4.496   2.110   8.461  0.3731 -0.9163  0.4019
  211LIG     HA 3156   4.409   2.101   8.398 -0.4083 -1.6138  1.5547
  211LIG     CB 3157   4.574   2.230   8.410  0.2504 -0.2502 -0.0295
  211LIG    HB1 3158   4.621   2.202   8.313 -1.1793 -0.0439 -0.7971
  211LIG    HB2 3159   4.662   2.262   8.470 -0.2756  0.5918  0.3100
  211LIG     CG 3160   4.486   2.351   8.389 -0.2610 -0.1097  0.8750
  211LIG    OD1 3161   4.362   2.348   8.403 -0.1800  0.6482 -0.1445
  211LIG    OD2 3162   4.551   2.449   8.345  0.3260  0.1496  0.0131
  211LIG      C 3163   4.571   1.977   8.445  0.2128 -0.3935  1.2112
  211LIG    OT1 3164   4.604   1.911   8.544  0.4401  0.3362 -0.6546
  211LIG    OT2 3165   4.592   1.937   8.329  0.0114 -0.4161 -0.9547
  212LIG      N 3166   7.008   7.737   2.321 -0.6048  0.3714  0.6801
  212LIG     H1 3167   7.032   7.684   2.235  1.9370  0.9021  0.9568
  212LIG     H2 3168   7.100   7.756   2.368  0.6218  0.4921 -1.6379
  212LIG     H3 3169   6.953   7.679   2.387 -0.0272 -0.7177  0.2329
  212LIG     CA 3170   6.951   7.873   2.289  0.5300 -0.2282  0.0142
  212LIG     HA 3171   6.970   7.938   2.373 -1.4211  0.3621  0.0601
  212LIG     CB 3172   7.015   7.918   2.153  0.4102 -0.0218 -0.1199
  212LIG    HB1 3173   6.960   8.011   2.127 -2.3634 -1.0223  1.7104
  212LIG    HB2 3174   7.009   7.844   2.071  2.3240 -0.1027 -0.2376
  212LIG     CG 3175   7.157   7.957   2.170 -0.9658 -0.0275  0.2379
  212LIG    OD1 3176   7.197   7.987   2.288  1.2822 -0.3824 -0.2007
  212LIG    OD2 3177   7.228   7.977   2.069 -0.0178 -0.1537 -0.1429
  212LIG      C 3178   6.796   7.888   2.276  0.3207 -0.6758  0.3381
  212LIG    OT1 3179   6.723   7.798   2.321 -0.1389  0.0483 -0.0160
  212LIG    OT2 3180   6.746   7.989   2.227  0.2199  0.1961  0.0346
  213LIG      N 3181   5.974   5.945   1.307  0.2779  1.2763  0.2397
  213LIG     H1 3182   5.995   5.929   1.207 -0.6960  2.9642 -0.2823
  213LIG     H2 3183   6.047   5.923   1.378 -0.8839  0.7433  1.3205
  213LIG     H3 3184   5.902   5.872   1.325  0.4722  1.0096 -0.0510
  213LIG     CA 3185   5.911   6.078   1.331 -0.1573 -0.5679 -0.0448
  213LIG     HA 3186   5.987   6.155   1.333 -0.6137 -0.0198 -1.9460
  213LIG     CB 3187   5.790   6.097   1.228  0.1023  0.6026  0.5477
  213LIG    HB1 3188   5.744   6.195   1.255 -0.8558  0.1974  0.4280
  213LIG    HB2 3189   5.718   6.014   1.237 -1.1734  1.2106 -2.7084
  213LIG     CG 3190   5.840   6.097   1.081 -0.0872 -0.9510 -0.5758
  213LIG    OD1 3191   5.742   6.117   0.999 -0.7509 -0.1564  0.9050
  213LIG    OD2 3192   5.956   6.081   1.039 -0.3909 -0.3211  0.0181
  213LIG      C 3193   5.862   6.095   1.476 -0.0542 -0.0504 -0.4234
  213LIG    OT1 3194   5.848   5.989   1.548 -0.0922 -0.7091 -0.6300
  213LIG    OT2 3195   5.831   6.211   1.515  0.8138 -0.3870  0.8611
  214LIG      N 3196   2.990   7.045   7.236  0.2680  0.6693  0.1545
  214LIG     H1 3197   3.010   6.943   7.236 -0.2742  0.5560 -0.2872
  214LIG     H2 3198   3.065   7.108   7.272  1.5991 -1.9707  2.3275
  214LIG     H3 3199   2.903   7.072   7.286 -0.7040  0.3186 -1.2720
  214LIG     CA 3200   2.962   7.080   7.090  0.7908 -0.1765  0.4896
  214LIG     HA 3201   3.012   7.007   7.028 -0.0727 -1.5888  1.3874
  214LIG     CB 3202   2.806   7.070   7.048 -0.6710  0.5018 -0.7409
  214LIG    HB1 3203   2.807   7.096   6.940  0.8611  0.2881 -0.8070
  214LIG    HB2 3204   2.734   7.138   7.097 -1.8715 -0.5163 -1.0504
  214LIG     CG 3205   2.754   6.936   7.050  0.3872  0.2232 -0.0936
  214LIG    OD1 3206   2.637   6.921   7.006 -0.0281  0.2257  0.1674
  214LIG    OD2 3207   2.818   6.840   7.095  0.0664  0.8208  0.0232
  214LIG      C 3208   3.035   7.208   7.036 -0.4494  0.4936  0.0755
  214LIG    OT1 3209   3.139   7.246   7.095  0.6150  0.1019 -0.4943
  214LIG    OT2 3210   2.993   7.261   6.929  0.0938 -0.2402  0.2736
  215LIG      N 3211   7.379   7.684   0.557  0.4571  0.1489  0.0005
  215LIG     H1 3212   7.374   7.786   0.538 -1.4403  0.3430  1.2188
  215LIG     H2 3213   7.415   7.632   0.475 -1.8618  0.2995 -1.2208
  215LIG     H3 3214   7.284   7.652   0.585 -0.3734  1.9853 -0.5711
  215LIG     CA 3215   7.476   7.674   0.674 -0.3752 -0.0012 -0.0946
  215LIG     HA 3216   7.441   7.728   0.761 -0.3658 -1.5351  0.8868
  215LIG     CB 3217   7.480   7.527   0.716 -0.1256  0.0844 -0.3056
  215LIG    HB1 3218   7.559   7.515   0.793  0.7453  0.9560 -1.0370
  215LIG    HB2 3219   7.501   7.462   0.628  0.6854  2.8384 -2.2738
  215LIG     CG 3220   7.351   7.475   0.766  0.0221  0.6557  0.1568
  215LIG    OD1 3221   7.348   7.360   0.814  0.4818 -0.0161  0.4224
  215LIG    OD2 3222   7.246   7.536   0.738  0.2683  0.3492 -0.0135
  215LIG      C 3223   7.619   7.722   0.642 -0.5145 -0.5927 -0.6842
  215LIG    OT1 3224   7.653   7.764   0.530  0.4817  0.4422  0.1268
  215LIG    OT2 3225   7.691   7.723   0.748 -0.0090 -0.6787  0.2020
  216LIG      N 3226   7.633   2.962   2.659  0.2898 -0.7787  0.2338
  216LIG     H1 3227   7.724   2.985   2.613 -0.5001  1.9287 -0.1600
  216LIG     H2 3228   7.592   3.030   2.726 -2.7602 -2.4377  0.2030
  216LIG     H3 3229   7.634   2.877   2.718 -0.6760 -0.0445  1.3501
  216LIG     CA 3230   7.538   2.934   2.548 -0.5411 -0.3418 -0.1816
  216LIG     HA 3231   7.545   3.007   2.469 -0.5825 -0.9133 -0.7247
  216LIG     CB 3232   7.567   2.795   2.486 -0.3115  0.2297  0.3026
  216LIG    HB1 3233   7.481   2.780   2.417 -0.3891  1.1670  0.1789
  216LIG    HB2 3234   7.575   2.708   2.554 -1.4520  1.7790  2.5507
  216LIG     CG 3235   7.693   2.784   2.400 -0.7060 -0.2223 -0.0159
  216LIG    OD1 3236   7.674   2.732   2.284 -0.3110 -0.4714  0.0022
  216LIG    OD2 3237   7.798   2.818   2.453 -0.1371  0.1192 -0.4296
  216LIG      C 3238   7.386   2.950   2.583  0.0275  0.0643 -0.3682
  216LIG    OT1 3239   7.345   2.956   2.704  0.4293 -0.3871  0.5378
  216LIG    OT2 3240   7.298   2.935   2.493  0.2005 -0.3444  0.1169
  217LIG      N 3241   0.295   3.991   6.484  0.4561 -0.3379 -1.0354
  217LIG     H1 3242   0.297   3.887   6.483 -2.1687 -0.4980  0.6381
  217LIG     H2 3243   0.201   4.022   6.453  1.3792  0.0736 -3.7198
  217LIG     H3 3244   0.374   4.037   6.435 -0.5760  1.8760 -0.7380
  217LIG     CA 3245   0.305   4.044   6.625 -0.0026 -0.4747 -0.2315
  217LIG     HA 3246   0.270   4.146   6.621 -2.3145 -1.2345 -2.0156
  217LIG     CB 3247   0.210   3.963   6.719 -0.0061 -0.0718  0.1001
  217LIG    HB1 3248   0.237   3.990   6.823  1.3414 -0.2060 -0.1991
  217LIG    HB2 3249   0.229   3.854   6.709  3.6012  0.4314  0.2190
  217LIG     CG 3250   0.064   3.994   6.687 -0.0006 -0.1354 -0.2467
  217LIG    OD1 3251   0.039   4.064   6.586  0.4830 -0.4959 -0.0654
  217LIG    OD2 3252  -0.020   3.955   6.772 -0.7830  0.0994  0.1990
  217LIG      C 3253   0.446   4.063   6.687 -0.1171 -0.2414  0.4455
  217LIG    OT1 3254   0.554   4.018   6.639 -0.0101  0.0474  0.1359
  217LIG    OT2 3255   0.447   4.139   6.785  0.5665  0.0838 -0.7527
  218LIG      N 3256   7.050   3.642   5.074  0.5061  0.3787 -0.4873
  218LIG     H1 3257   7.116   3.562   5.070  1.3289  1.0893 -1.7448
  218LIG     H2 3258   6.998   3.638   4.984 -0.0750  0.4208 -0.1622
  218LIG     H3 3259   7.102   3.732   5.079  1.9767 -0.4668  0.0106
  218LIG     CA 3260   6.954   3.619   5.188 -0.4434  0.1832  0.2254
  218LIG     HA 3261   7.004   3.643   5.281  0.0618 -3.5369  1.0677
  218LIG     CB 3262   6.825   3.713   5.167  0.1639  0.2064  0.1527
  218LIG    HB1 3263   6.744   3.683   5.236 -1.9901  4.4018 -0.2123
  218LIG    HB2 3264   6.795   3.702   5.060 -0.1520  0.4112  0.2194
  218LIG     CG 3265   6.868   3.861   5.180  0.9805 -0.2083  0.0537
  218LIG    OD1 3266   6.771   3.943   5.166  0.0563 -0.4916  0.2017
  218LIG    OD2 3267   6.985   3.890   5.202  0.1416  0.0437 -0.4148
  218LIG      C 3268   6.904   3.473   5.185  0.8359  0.0331  0.3344
  218LIG    OT1 3269   6.914   3.415   5.073  0.5977  0.3951 -0.4791
  218LIG    OT2 3270   6.859   3.415   5.286  0.8326 -0.4390 -0.4299
  219LIG      N 3271   6.360   9.748   1.622  0.4371  0.8287 -0.1452
  219LIG     H1 3272   6.366   9.666   1.558  1.8536 -0.1217  1.1509
  219LIG     H2 3273   6.459   9.779   1.632  0.4678  0.0801  2.7456
  219LIG     H3 3274   6.311   9.719   1.709  0.4093  0.3923 -0.3044
  219LIG     CA 3275   6.269   9.854   1.555  0.3653 -0.5531 -0.0987
  219LIG     HA 3276   6.218   9.806   1.472  1.0603 -0.3132 -0.6660
  219LIG     CB 3277   6.187   9.919   1.669 -0.1615 -0.4365 -0.1217
  219LIG    HB1 3278   6.133  10.007   1.630 -2.9632 -1.2939  1.5528
  219LIG    HB2 3279   6.240   9.968   1.754 -1.3788  0.1664  0.3071
  219LIG     CG 3280   6.078   9.837   1.727  0.4751  1.1030  0.4416
  219LIG    OD1 3281   5.997   9.887   1.802  0.1610  0.9222 -0.2851
  219LIG    OD2 3282   6.084   9.710   1.702  0.1791  0.2610 -0.0288
  219LIG      C 3283   6.346   9.964   1.487 -0.4903 -0.3714  0.1859
  219LIG    OT1 3284   6.473   9.967   1.495  0.1461 -0.0499 -1.1195
  219LIG    OT2 3285   6.275  10.049   1.422  0.5183  0.1422  0.0857
  220LIG      N 3286   6.969   7.878   0.475  0.2491 -0.2843 -1.0723
  220LIG     H1 3287   7.015   7.847   0.563 -0.7632 -2.8500 -1.3488
  220LIG     H2 3288   6.871   7.843   0.483  0.1989 -0.0086 -0.4429
  220LIG     H3 3289   7.018   7.841   0.391  1.7704 -0.3602 -0.2008
  220LIG     CA 3290   6.977   8.034   0.464 -0.1901 -0.1763  0.2995
  220LIG     HA 3291   6.920   8.077   0.382 -3.8802 -0.9742  2.2352
  220LIG     CB 3292   6.900   8.104   0.584 -0.0288  0.2731  0.5185
  220LIG    HB1 3293   6.902   8.215   0.588 -2.6368  0.5681 -2.1243
  220LIG    HB2 3294   6.943   8.067   0.680  0.0294  1.2754  0.8856
  220LIG     CG 3295   6.754   8.074   0.564 -0.4524  0.4409  0.1672
  220LIG    OD1 3296   6.677   8.074   0.666 -0.4763 -0.0947  0.4660
  220LIG    OD2 3297   6.718   8.041   0.447 -0.1254 -0.2694  0.1041
  220LIG      C 3298   7.125   8.091   0.449  0.1519 -0.9351 -0.1540
  220LIG    OT1 3299   7.219   8.011   0.434 -0.4490  0.4792 -0.0012
  220LIG    OT2 3300   7.150   8.216   0.454  0.3982 -0.2981  0.1233
  221LIG      N 3301   9.572   5.147   8.943 -0.1885  0.2301 -0.5618
  221LIG     H1 3302   9.520   5.156   9.032  0.7553  2.1488 -0.1481
  221LIG     H2 3303   9.570   5.238   8.892 -0.4121  1.5397  1.6439
  221LIG     H3 3304   9.516   5.084   8.882  1.0671 -0.2578 -1.2506
  221LIG     CA 3305   9.712   5.094   8.950  0.1357  0.3332  0.2833
  221LIG     HA 3306   9.748   5.082   8.849  0.5210  2.3880  0.1380
  221LIG     CB 3307   9.795   5.186   9.039  0.0338  0.1351 -0.4507
  221LIG    HB1 3308   9.894   5.140   9.056  0.5840  1.0000 -1.2152
  221LIG    HB2 3309   9.740   5.204   9.134 -0.1689 -0.1544 -0.5116
  221LIG     CG 3310   9.828   5.323   8.971  0.4646  1.1034 -0.7172
  221LIG    OD1 3311   9.769   5.357   8.870 -0.0671  0.2083  0.0355
  221LIG    OD2 3312   9.899   5.394   9.046 -0.1656 -0.2629  0.1541
  221LIG      C 3313   9.708   4.952   9.004 -0.2337 -0.0919 -0.9777
  221LIG    OT1 3314   9.592   4.893   9.014 -0.2880 -0.1395  0.5272
  221LIG    OT2 3315   9.820   4.895   9.035 -0.2290 -0.1517  0.4761
  222LIG      N 3316   1.429   7.568   4.220  0.7145 -0.7408 -0.7490
  222LIG     H1 3317   1.492   7.487   4.201 -1.7040 -2.7267 -0.8733
  222LIG     H2 3318   1.473   7.648   4.269 -1.1007 -0.8451  1.2203
  222LIG     H3 3319   1.347   7.533   4.274  3.4773 -0.9523  3.8690
  222LIG     CA 3320   1.385   7.622   4.085  0.7571  0.5167  0.1113
  222LIG     HA 3321   1.377   7.548   4.007 -2.9527  1.3835 -0.5393
  222LIG     CB 3322   1.246   7.690   4.116  0.8619 -0.0617  0.0789
  222LIG    HB1 3323   1.209   7.741   4.024 -1.8904 -0.5108  0.8419
  222LIG    HB2 3324   1.251   7.758   4.203  0.6621  2.1420 -1.5611
  222LIG     CG 3325   1.139   7.582   4.128 -0.3037  0.5664  0.2923
  222LIG    OD1 3326   1.028   7.613   4.172  0.2046  0.1525  0.0655
  222LIG    OD2 3327   1.168   7.469   4.088  0.0650  0.1720 -0.4464
  222LIG      C 3328   1.492   7.711   4.025  0.4152 -0.0454  0.0356
  222LIG    OT1 3329   1.594   7.746   4.087  0.0474  0.2281  0.9812
  222LIG    OT2 3330   1.464   7.754   3.907  0.1360 -0.7359  0.3448
  223LIG      N 3331   3.879   6.377   8.295 -0.3251  0.2201 -0.7032
  223LIG     H1 3332   3.813   6.414   8.366  0.7012 -0.0339  0.4187
  223LIG     H2 3333   3.972   6.423   8.303 -0.5462  0.9232 -1.9781
  223LIG     H3 3334   3.855   6.410   8.200  1.5539  0.9840 -0.9479
  223LIG     CA 3335   3.890   6.229   8.291 -0.6583  0.1503 -0.5570
  223LIG     HA 3336   3.936   6.209   8.195  1.3105  2.9904 -0.3294
  223LIG     CB 3337   3.983   6.174   8.408 -0.8679  0.6029  0.3320
  223LIG    HB1 3338   3.959   6.066   8.420  0.6405  0.3008  0.7992
  223LIG    HB2 3339   3.955   6.233   8.498  0.5968  0.1392  1.1274
  223LIG     CG 3340   4.130   6.202   8.386 -1.0871  0.2409  0.4655
  223LIG    OD1 3341   4.163   6.309   8.322 -0.0248 -0.2277 -0.1661
  223LIG    OD2 3342   4.215   6.127   8.441 -0.0509 -0.5730 -0.3011
  223LIG      C 3343   3.756   6.162   8.288 -0.6880 -0.2731 -0.2454
  223LIG    OT1 3344   3.658   6.245   8.284  0.0213 -0.4280  0.6465
  223LIG    OT2 3345   3.740   6.042   8.286  0.1295 -0.3003 -0.6536
  224LIG      N 3346   8.143   4.471   5.984  0.5265  0.2528 -0.2173
  224LIG     H1 3347   8.083   4.451   5.902 -2.7677  0.6970  1.8610
  224LIG     H2 3348   8.079   4.436   6.059 -0.2441  2.9864  0.5530
  224LIG     H3 3349   8.154   4.574   5.994  2.8652  0.2187 -1.7689
  224LIG     CA 3350   8.283   4.421   5.966 -0.0156  0.2941 -0.1917
  224LIG     HA 3351   8.334   4.479   5.891  1.8812 -0.3011  0.5686
  224LIG     CB 3352   8.362   4.460   6.097 -0.9296 -0.1670 -0.9977
  224LIG    HB1 3353   8.465   4.419   6.090 -0.9133 -0.0180 -1.7661
  224LIG    HB2 3354   8.318   4.418   6.190 -0.6410  2.2123  0.2866
  224LIG     CG 3355   8.367   4.606   6.129 -0.6149 -0.2142  0.7248
  224LIG    OD1 3356   8.433   4.643   6.226  0.0360  0.9510 -0.9406
  224LIG    OD2 3357   8.301   4.680   6.054 -0.1786  0.3487 -0.6519
  224LIG      C 3358   8.300   4.272   5.924  0.0180  0.2968 -0.1820
  224LIG    OT1 3359   8.198   4.202   5.906  0.4047  0.0640 -0.2106
  224LIG    OT2 3360   8.415   4.217   5.926 -0.3354  0.2633  0.2511
  225LIG      N 3361   0.342   8.543   3.455  0.2703 -0.4853  0.7220
  225LIG     H1 3362   0.403   8.625   3.439 -0.2535 -0.5249 -1.9508
  225LIG     H2 3363   0.296   8.519   3.365  1.6098  1.5094 -0.5761
  225LIG     H3 3364   0.275   8.580   3.527  1.1104  0.6496  0.9442
  225LIG     CA 3365   0.422   8.414   3.485 -0.3113 -1.1120  0.2820
  225LIG     HA 3366   0.465   8.437   3.582  1.6327  1.8210 -1.1217
  225LIG     CB 3367   0.334   8.286   3.467  0.5614  0.2664 -0.2476
  225LIG    HB1 3368   0.409   8.205   3.478 -0.1978 -0.2485  1.5789
  225LIG    HB2 3369   0.279   8.276   3.371 -2.7703  1.4178  1.3850
  225LIG     CG 3370   0.245   8.266   3.578  0.3193  0.1309 -0.0561
  225LIG    OD1 3371   0.175   8.162   3.594 -0.2128  0.4304  0.5889
  225LIG    OD2 3372   0.242   8.352   3.667  0.1206 -0.5600 -0.3904
  225LIG      C 3373   0.543   8.406   3.388  0.7063  0.3176  0.7571
  225LIG    OT1 3374   0.570   8.493   3.304  0.0893 -0.4234 -0.5322
  225LIG    OT2 3375   0.623   8.313   3.407  0.1851  0.1436  0.3740
  226LIG      N 3376   7.831   2.299   3.250 -0.3397 -0.0845 -0.2639
  226LIG     H1 3377   7.929   2.269   3.232 -1.0561 -0.7193 -3.8340
  226LIG     H2 3378   7.770   2.217   3.268 -1.4366  1.1173  1.8625
  226LIG     H3 3379   7.793   2.348   3.166  1.1323 -0.7445 -1.3596
  226LIG     CA 3380   7.834   2.386   3.371 -0.0857 -0.4575 -0.2521
  226LIG     HA 3381   7.921   2.356   3.429  0.3303  0.7183 -0.2528
  226LIG     CB 3382   7.857   2.540   3.323  0.2200  0.9793  0.0931
  226LIG    HB1 3383   7.817   2.611   3.399 -1.2875  0.5933 -0.3073
  226LIG    HB2 3384   7.795   2.561   3.234  1.9362  0.7373 -1.2063
  226LIG     CG 3385   7.999   2.567   3.291 -0.1385  0.0365 -0.4452
  226LIG    OD1 3386   8.089   2.487   3.277  0.0809  0.5013 -0.2649
  226LIG    OD2 3387   8.019   2.693   3.262  0.0793  0.6996 -0.1790
  226LIG      C 3388   7.710   2.381   3.466  0.1834 -0.2232 -0.2212
  226LIG    OT1 3389   7.625   2.287   3.450 -0.2056 -0.3937  0.7840
  226LIG    OT2 3390   7.697   2.472   3.555 -0.6544 -0.4658  0.2994
  227LIG      N 3391   4.421   1.754   5.726  0.2546  0.0744  0.7692
  227LIG     H1 3392   4.375   1.753   5.633 -0.6330 -0.3901  1.1997
  227LIG     H2 3393   4.377   1.821   5.793  1.0725  2.5226 -0.9643
  227LIG     H3 3394   4.522   1.778   5.714  0.3618 -0.4504  0.5884
  227LIG     CA 3395   4.424   1.613   5.777 -0.0837  0.0432  0.7001
  227LIG     HA 3396   4.377   1.608   5.874 -1.0658 -3.0673  0.1832
  227LIG     CB 3397   4.348   1.522   5.672  0.3178  0.6484 -0.4942
  227LIG    HB1 3398   4.412   1.509   5.582 -0.1510 -0.5459 -0.6721
  227LIG    HB2 3399   4.256   1.575   5.641 -1.5987 -1.0144  1.9168
  227LIG     CG 3400   4.306   1.389   5.724 -0.4764  0.0978 -0.1197
  227LIG    OD1 3401   4.313   1.291   5.650 -0.4571  0.1648  0.0725
  227LIG    OD2 3402   4.272   1.372   5.848 -0.3060  0.3409  0.0126
  227LIG      C 3403   4.579   1.574   5.796 -0.1284  0.3569 -0.4637
  227LIG    OT1 3404   4.665   1.644   5.737  0.3345 -0.1294  0.4558
  227LIG    OT2 3405   4.612   1.476   5.862 -0.7276  0.5136 -0.2869
  228LIG      N 3406   3.481   8.809   6.658  0.9159  0.4719  0.2978
  228LIG     H1 3407   3.465   8.911   6.645  0.4010  0.3701  0.1209
  228LIG     H2 3408   3.396   8.771   6.704  0.6147  0.8608  0.0636
  228LIG     H3 3409   3.565   8.805   6.720 -0.6913 -0.0745  2.5460
  228LIG     CA 3410   3.518   8.759   6.520 -0.7651  0.3953  0.3310
  228LIG     HA 3411   3.503   8.652   6.525 -0.6605  0.3400 -0.4690
  228LIG     CB 3412   3.421   8.808   6.409 -0.8969 -0.6285 -0.1463
  228LIG    HB1 3413   3.463   8.802   6.306  0.3177  1.7013  0.1402
  228LIG    HB2 3414   3.400   8.917   6.416 -1.0778 -0.6695 -0.0372
  228LIG     CG 3415   3.290   8.726   6.401 -0.2704 -0.3315  0.2074
  228LIG    OD1 3416   3.208   8.759   6.307 -0.5624  0.0742  0.2734
  228LIG    OD2 3417   3.262   8.653   6.495  0.9685  0.9796  0.6840
  228LIG      C 3418   3.674   8.784   6.503  0.0503  0.8372  0.4920
  228LIG    OT1 3419   3.739   8.840   6.595  1.0832  0.1367 -0.2252
  228LIG    OT2 3420   3.724   8.747   6.392 -0.5745  0.1902 -0.0949
  229LIG      N 3421   2.641   8.579   9.564 -0.0161  0.0479 -0.2081
  229LIG     H1 3422   2.713   8.592   9.637 -1.2874 -0.7711  1.2526
  229LIG     H2 3423   2.576   8.504   9.595 -0.3243  0.5272  0.3347
  229LIG     H3 3424   2.691   8.550   9.477 -0.9899  1.8602 -1.4448
  229LIG     CA 3425   2.558   8.691   9.528  0.3603  0.3895  0.3481
  229LIG     HA 3426   2.488   8.645   9.460  1.5288 -0.0698 -0.5687
  229LIG     CB 3427   2.495   8.744   9.654  0.5368  0.0070 -0.1566
  229LIG    HB1 3428   2.428   8.830   9.630  0.5756 -0.2891 -1.4008
  229LIG    HB2 3429   2.566   8.775   9.734  0.6421  1.4369 -0.7654
  229LIG     CG 3430   2.389   8.642   9.705 -0.1900  0.2288  0.1057
  229LIG    OD1 3431   2.381   8.529   9.659 -0.3580  0.3084 -0.2019
  229LIG    OD2 3432   2.314   8.683   9.800  0.1705 -0.0207  0.5600
  229LIG      C 3433   2.619   8.799   9.452 -0.0474 -0.3332 -0.1259
  229LIG    OT1 3434   2.736   8.807   9.425 -0.3559 -0.0854  0.2628
  229LIG    OT2 3435   2.536   8.887   9.418  0.2453  0.1100  0.2004
  230LIG      N 3436   6.041   1.652   3.537 -0.0244  0.5099  0.3393
  230LIG     H1 3437   6.069   1.553   3.522  0.4869  0.4284  1.6232
  230LIG     H2 3438   5.986   1.653   3.625 -0.5657 -3.2444  0.2158
  230LIG     H3 3439   5.988   1.680   3.453  0.1370 -3.8661 -1.4582
  230LIG     CA 3440   6.165   1.726   3.549  0.0049 -0.0843  0.1610
  230LIG     HA 3441   6.229   1.700   3.467 -0.0697  0.7496 -0.1725
  230LIG     CB 3442   6.124   1.875   3.564 -0.1842 -0.1149  1.0194
  230LIG    HB1 3443   6.215   1.930   3.598  0.6355 -0.6937 -0.1586
  230LIG    HB2 3444   6.053   1.903   3.645 -1.8550 -0.6441 -0.2203
  230LIG     CG 3445   6.075   1.929   3.428 -0.2806 -0.6608  0.3701
  230LIG    OD1 3446   6.065   2.051   3.403 -0.0928 -0.0980  0.5616
  230LIG    OD2 3447   6.031   1.836   3.351  0.1427 -0.1290 -0.1206
  230LIG      C 3448   6.251   1.686   3.671 -0.8463 -0.2407 -0.1802
  230LIG    OT1 3449   6.213   1.591   3.748 -0.5733 -0.4114  0.6214
  230LIG    OT2 3450   6.365   1.745   3.684  0.3237  0.2441  0.3463
  231LIG      N 3451   0.144   8.145   5.344  0.1979 -0.2955  0.1834
  231LIG     H1 3452   0.114   8.048   5.326 -1.9489  0.8121 -3.1562
  231LIG     H2 3453   0.191   8.144   5.437  0.2462  0.7195  0.1839
  231LIG     H3 3454   0.057   8.200   5.361  0.5378 -0.0078  1.0507
  231LIG     CA 3455   0.244   8.206   5.245 -0.2674 -0.3382  0.0535
  231LIG     HA 3456   0.330   8.232   5.305 -0.5223  0.2634  0.1607
  231LIG     CB 3457   0.279   8.103   5.133 -0.4420 -0.1212  0.4826
  231LIG    HB1 3458   0.363   8.139   5.071 -1.9841  1.1501 -0.9666
  231LIG    HB2 3459   0.193   8.089   5.064 -1.5567  1.3571  1.4967
  231LIG     CG 3460   0.309   7.967   5.178 -0.2296  0.4354 -0.1965
  231LIG    OD1 3461   0.311   7.882   5.086 -0.3531  0.3953 -0.4800
  231LIG    OD2 3462   0.330   7.934   5.297 -0.5915 -0.1812 -0.2403
  231LIG      C 3463   0.195   8.335   5.169  0.1087  0.1326  0.4636
  231LIG    OT1 3464   0.073   8.353   5.179 -0.2892  0.3228 -0.2068
  231LIG    OT2 3465   0.267   8.420   5.115 -0.0346  0.3520  0.1514
  232LIG      N 3466   7.002   2.051   5.982 -0.7122 -0.4876  0.1926
  232LIG     H1 3467   6.997   2.054   6.086 -0.1304  2.5140  0.1949
  232LIG     H2 3468   7.011   1.956   5.940 -0.8060 -0.4969  0.1944
  232LIG     H3 3469   7.086   2.105   5.954 -0.5937 -0.8650 -0.2038
  232LIG     CA 3470   6.888   2.130   5.925 -0.3624 -0.9163  0.1440
  232LIG     HA 3471   6.874   2.208   5.999 -0.0017 -1.2138  0.5376
  232LIG     CB 3472   6.896   2.185   5.779  0.2381  0.4574 -1.0248
  232LIG    HB1 3473   6.807   2.245   5.751  0.2403  0.7562 -0.4080
  232LIG    HB2 3474   6.898   2.105   5.702  0.5637 -0.1116 -0.4413
  232LIG     CG 3475   7.012   2.266   5.757 -0.4324 -0.0207  0.5989
  232LIG    OD1 3476   7.096   2.282   5.848 -0.1131 -0.6284 -0.3996
  232LIG    OD2 3477   7.021   2.314   5.641  0.0755 -0.3953 -0.3375
  232LIG      C 3478   6.758   2.044   5.938 -0.0294 -0.1152  0.2017
  232LIG    OT1 3479   6.763   1.921   5.956  0.1155  0.2283 -0.2846
  232LIG    OT2 3480   6.649   2.104   5.926 -0.3003 -0.5896  0.0034
  233LIG      N 3481   8.378   0.924   1.388 -0.4031 -0.0594 -0.3557
  233LIG     H1 3482   8.333   0.839   1.427 -1.6321  1.1361  0.9326
  233LIG     H2 3483   8.351   1.000   1.453 -0.3395  0.5887 -1.0671
  233LIG     H3 3484   8.342   0.944   1.292 -0.5529  0.9685 -0.1026
  233LIG     CA 3485   8.522   0.895   1.379 -0.6755  0.1231  0.2181
  233LIG     HA 3486   8.527   0.806   1.318 -0.4608  1.7428 -2.2331
  233LIG     CB 3487   8.595   1.014   1.309 -0.9501  0.5630  0.1817
  233LIG    HB1 3488   8.700   0.988   1.283 -0.4024  2.1743  0.6671
  233LIG    HB2 3489   8.591   1.107   1.369 -0.2132  0.0778  1.0112
  233LIG     CG 3490   8.539   1.040   1.176  0.4576 -0.4819  0.6642
  233LIG    OD1 3491   8.445   0.966   1.134  0.2358  0.1099  0.0870
  233LIG    OD2 3492   8.576   1.137   1.109 -0.6279 -0.2658  0.3035
  233LIG      C 3493   8.587   0.867   1.515  0.1949 -0.4365  0.3550
  233LIG    OT1 3494   8.536   0.912   1.617 -0.1451  0.2313 -0.3931
  233LIG    OT2 3495   8.696   0.806   1.515 -0.9000 -0.3442  0.1458
  234LIG      N 3496   2.263   4.826   5.455  0.3381 -0.7430 -0.1678
  234LIG     H1 3497   2.274   4.917   5.502  0.0369 -0.0475 -1.3956
  234LIG     H2 3498   2.177   4.840   5.399 -0.8254  2.1831  2.1221
  234LIG     H3 3499   2.242   4.763   5.534 -0.0323 -0.3697  0.0310
  234LIG     CA 3500   2.381   4.786   5.368  0.1413 -0.0248  0.1751
  234LIG     HA 3501   2.389   4.869   5.299  1.5115 -0.4171 -0.1822
  234LIG     CB 3502   2.514   4.763   5.447  0.7111  0.2542  0.1608
  234LIG    HB1 3503   2.600   4.738   5.381  0.3645 -0.6505  0.0446
  234LIG    HB2 3504   2.513   4.688   5.529 -0.1545  0.4727  0.3603
  234LIG     CG 3505   2.561   4.892   5.511 -0.0779 -0.7504 -0.8108
  234LIG    OD1 3506   2.679   4.895   5.547  0.1923  0.0394  0.6095
  234LIG    OD2 3507   2.495   4.996   5.533 -0.1943  0.2398 -0.1377
  234LIG      C 3508   2.365   4.658   5.284 -0.0162 -0.6502 -0.0860
  234LIG    OT1 3509   2.271   4.580   5.307 -0.1079  0.1039 -0.1705
  234LIG    OT2 3510   2.455   4.628   5.202 -0.2712 -0.3156 -0.3360
  235LIG      N 3511   2.816   6.234   4.995 -0.5848  0.1371  0.0917
  235LIG     H1 3512   2.897   6.217   4.932 -1.8041 -4.8250 -0.5104
  235LIG     H2 3513   2.730   6.200   4.947  0.6157 -0.9997 -1.3817
  235LIG     H3 3514   2.805   6.333   5.024 -0.8392  0.8689 -2.2429
  235LIG     CA 3515   2.828   6.164   5.127 -0.0328 -0.0615 -0.1287
  235LIG     HA 3516   2.925   6.185   5.169  0.5475  0.3984 -1.6368
  235LIG     CB 3517   2.712   6.211   5.220  0.4135 -0.9819 -0.4969
  235LIG    HB1 3518   2.722   6.166   5.321 -2.5064  1.1375  0.8764
  235LIG    HB2 3519   2.618   6.183   5.167 -0.7450 -0.9759  1.4570
  235LIG     CG 3520   2.705   6.364   5.230 -0.7465 -0.3684  0.1189
  235LIG    OD1 3521   2.746   6.437   5.137  0.0146  0.2221 -0.1365
  235LIG    OD2 3522   2.633   6.414   5.323  0.2648 -0.3109 -0.5084
  235LIG      C 3523   2.827   6.009   5.114  0.2921  0.3912  0.7552
  235LIG    OT1 3524   2.822   5.959   4.999  0.2646 -0.0143  0.0754
  235LIG    OT2 3525   2.845   5.930   5.210  0.0674  0.4887 -0.1252
  236LIG      N 3526   7.510   2.245   7.194 -0.2070 -0.0963 -0.3528
  236LIG     H1 3527   7.561   2.228   7.283 -2.2079  1.3796  1.1527
  236LIG     H2 3528   7.410   2.229   7.215 -0.8675  0.5048 -2.7154
  236LIG     H3 3529   7.545   2.175   7.125 -0.3747 -0.7373  0.2072
  236LIG     CA 3530   7.511   2.389   7.160  0.1577  0.3002 -0.0267
  236LIG     HA 3531   7.441   2.407   7.080  1.0263  0.4712 -0.7661
  236LIG     CB 3532   7.480   2.480   7.281 -0.5050 -0.9092 -0.4185
  236LIG    HB1 3533   7.477   2.587   7.253 -0.6547 -0.7648  0.1172
  236LIG    HB2 3534   7.550   2.464   7.367 -0.9666 -1.0468 -0.0616
  236LIG     CG 3535   7.341   2.451   7.336  0.0732 -0.5865 -0.0566
  236LIG    OD1 3536   7.263   2.390   7.256  0.2542  0.0687  0.0535
  236LIG    OD2 3537   7.305   2.496   7.452  0.2557  0.5018 -0.2218
  236LIG      C 3538   7.648   2.427   7.097 -0.2694  0.0537  0.3373
  236LIG    OT1 3539   7.751   2.355   7.107 -0.4763 -0.1758  0.2760
  236LIG    OT2 3540   7.655   2.538   7.033  0.0737 -0.3288 -0.0330
  237LIG      N 3541   9.512   9.666   6.090 -1.2058 -0.4423 -0.8047
  237LIG     H1 3542   9.502   9.602   6.171  1.4203  0.0228 -0.0107
  237LIG     H2 3543   9.439   9.641   6.019 -0.3015  0.3251 -2.0474
  237LIG     H3 3544   9.607   9.645   6.054 -1.0628 -1.9370  0.3280
  237LIG     CA 3545   9.501   9.802   6.144 -0.6127 -0.4583 -0.5546
  237LIG     HA 3546   9.403   9.820   6.184 -1.3775 -1.3847 -1.9398
  237LIG     CB 3547   9.610   9.826   6.251 -0.1498 -0.2261  0.6194
  237LIG    HB1 3548   9.607   9.930   6.288  1.5242 -0.0072  0.1903
  237LIG    HB2 3549   9.712   9.805   6.214 -1.1050 -1.6208 -1.4777
  237LIG     CG 3550   9.598   9.730   6.372  0.3641 -0.2994 -0.5725
  237LIG    OD1 3551   9.559   9.612   6.365  0.1167  0.4203  0.0528
  237LIG    OD2 3552   9.642   9.776   6.480 -0.0685  0.2037 -0.4732
  237LIG      C 3553   9.510   9.919   6.042 -0.8670  0.2941 -0.8185
  237LIG    OT1 3554   9.496   9.884   5.922 -0.3727 -0.5116 -0.3962
  237LIG    OT2 3555   9.519  10.036   6.078  0.2526  0.5227 -0.2472
  238LIG      N 3556   9.715   5.820   8.239  0.4109  0.3516  0.4947
  238LIG     H1 3557   9.817   5.801   8.234  0.3496  0.1703 -0.1106
  238LIG     H2 3558   9.693   5.870   8.328 -2.6165  0.2467 -0.0812
  238LIG     H3 3559   9.665   5.728   8.245 -2.2235  1.6318 -0.4020
  238LIG     CA 3560   9.690   5.889   8.116 -0.0095  1.0113  0.5281
  238LIG     HA 3561   9.742   5.984   8.118  1.2051  0.3819 -0.1770
  238LIG     CB 3562   9.741   5.812   7.993 -0.3196  0.2703 -0.1940
  238LIG    HB1 3563   9.733   5.871   7.899 -0.5639  0.7144  0.1079
  238LIG    HB2 3564   9.684   5.716   7.989  2.1305 -1.3361  0.7193
  238LIG     CG 3565   9.888   5.772   7.995  0.3503 -0.6218 -0.1894
  238LIG    OD1 3566   9.966   5.819   8.078 -0.2779  0.1451 -0.5971
  238LIG    OD2 3567   9.929   5.703   7.901 -0.1065 -0.0489  0.1694
  238LIG      C 3568   9.531   5.914   8.106 -0.1291  0.1422  0.2251
  238LIG    OT1 3569   9.455   5.872   8.199 -0.3070 -0.2760  0.2721
  238LIG    OT2 3570   9.488   5.975   8.005 -0.1678  0.3232  0.2771
  239LIG      N 3571   3.553   0.988   5.991 -0.3858 -0.0657  0.0372
  239LIG     H1 3572   3.585   1.076   6.034 -1.3190  1.3283 -1.9389
  239LIG     H2 3573   3.450   0.997   5.976 -0.6009  3.1595  2.4795
  239LIG     H3 3574   3.582   0.903   6.043  1.0752  0.3674 -0.0207
  239LIG     CA 3575   3.623   1.006   5.862  0.4496 -0.1192 -0.3333
  239LIG     HA 3576   3.579   1.096   5.821 -0.1823  0.2985  1.1779
  239LIG     CB 3577   3.773   1.007   5.890  0.9343 -0.1548 -0.0893
  239LIG    HB1 3578   3.837   0.987   5.801  0.9252  0.1726 -0.1714
  239LIG    HB2 3579   3.800   0.932   5.968 -0.2485  0.2012  0.6839
  239LIG     CG 3580   3.820   1.140   5.950 -0.0047 -0.0870  0.5576
  239LIG    OD1 3581   3.734   1.215   5.996  0.6586 -0.0055  0.0041
  239LIG    OD2 3582   3.939   1.174   5.959 -0.1302  0.1048  0.0904
  239LIG      C 3583   3.591   0.885   5.771  0.2192 -1.0712  0.5264
  239LIG    OT1 3584   3.522   0.785   5.803 -0.6903 -0.1659  0.2720
  239LIG    OT2 3585   3.638   0.896   5.653 -0.9934  0.0190  0.7370
  240LIG      N 3586   3.496   5.960   6.344 -0.1592  0.2806  0.1422
  240LIG     H1 3587   3.464   6.058   6.329 -0.4039 -0.0642 -2.0108
  240LIG     H2 3588   3.470   5.913   6.433 -0.3183 -2.2935 -1.1776
  240LIG     H3 3589   3.597   5.954   6.319  0.2449  0.9347  1.5008
  240LIG     CA 3590   3.432   5.882   6.228  0.0642  0.3218 -0.0689
  240LIG     HA 3591   3.326   5.872   6.243  0.1685 -0.5411  0.1292
  240LIG     CB 3592   3.465   5.954   6.100  0.0747 -0.3891 -0.4717
  240LIG    HB1 3593   3.420   5.891   6.021  0.3178  0.1212 -1.0226
  240LIG    HB2 3594   3.576   5.964   6.094  0.1465 -0.4442  0.5586
  240LIG     CG 3595   3.386   6.082   6.088  0.4238 -0.4436 -0.2136
  240LIG    OD1 3596   3.294   6.106   6.176  0.6425 -0.2037  0.1242
  240LIG    OD2 3597   3.411   6.153   5.994  0.5075  0.0983  0.0188
  240LIG      C 3598   3.498   5.741   6.220 -0.1057 -0.0862 -0.3154
  240LIG    OT1 3599   3.576   5.708   6.307 -0.3619 -0.4995  0.8759
  240LIG    OT2 3600   3.446   5.663   6.137 -0.5350  0.2412  0.6702
  241LIG      N 3601   5.406   7.254   8.979 -0.1411 -0.4832  0.5333
  241LIG     H1 3602   5.482   7.272   8.910 -0.8501 -0.5298 -0.2825
  241LIG     H2 3603   5.374   7.155   8.973  1.9539 -1.1720 -0.2698
  241LIG     H3 3604   5.331   7.324   8.966  1.2540  1.1354  0.8569
  241LIG     CA 3605   5.452   7.264   9.119 -0.3324 -0.0028 -0.3504
  241LIG     HA 3606   5.540   7.202   9.131 -1.3405 -1.6252 -0.9898
  241LIG     CB 3607   5.501   7.415   9.146 -0.2900  0.1938 -0.5987
  241LIG    HB1 3608   5.540   7.423   9.250  2.5186 -2.5026 -1.3186
  241LIG    HB2 3609   5.422   7.492   9.130 -1.1946 -0.9066 -1.6213
  241LIG     CG 3610   5.620   7.441   9.051 -0.1504 -0.3824 -0.3591
  241LIG    OD1 3611   5.669   7.551   9.055 -0.4014 -0.7072 -0.0067
  241LIG    OD2 3612   5.659   7.355   8.968 -0.1481 -0.4456 -0.3765
  241LIG      C 3613   5.349   7.222   9.228  0.3129 -0.0692 -0.9846
  241LIG    OT1 3614   5.229   7.199   9.201 -0.7255  0.3408  0.0127
  241LIG    OT2 3615   5.376   7.227   9.352 -0.6280  0.3366 -0.4306
  242LIG      N 3616   4.795   0.621   7.389 -0.6672 -0.5038  0.5576
  242LIG     H1 3617   4.734   0.668   7.459 -0.7750  0.5425 -0.2036
  242LIG     H2 3618   4.798   0.679   7.302  0.6625 -0.6046  0.5203
  242LIG     H3 3619   4.754   0.526   7.375  0.4217 -0.8811 -0.1728
  242LIG     CA 3620   4.924   0.617   7.454  0.4451 -0.5660  0.5731
  242LIG     HA 3621   4.934   0.715   7.498  0.5316  0.3922 -1.4631
  242LIG     CB 3622   4.941   0.497   7.555  0.2759  1.1285  0.2198
  242LIG    HB1 3623   5.042   0.489   7.601  0.5941 -0.0366 -0.6286
  242LIG    HB2 3624   4.929   0.399   7.503  0.8248  1.4716 -0.5674
  242LIG     CG 3625   4.848   0.528   7.672 -0.2590  0.8177 -0.2482
  242LIG    OD1 3626   4.828   0.436   7.759 -0.1505 -0.3248  0.0776
  242LIG    OD2 3627   4.789   0.640   7.675  0.0080 -0.1682 -0.5592
  242LIG      C 3628   5.038   0.602   7.344  0.9144  0.4398 -0.2122
  242LIG    OT1 3629   5.005   0.622   7.220 -0.8142  0.0582  0.5043
  242LIG    OT2 3630   5.151   0.573   7.383 -0.5897 -0.3689  0.1752
  243LIG      N 3631   4.196   0.904   3.089  0.0984 -0.7502  0.1648
  243LIG     H1 3632   4.266   0.933   3.018  2.5114 -1.3830  2.1111
  243LIG     H2 3633   4.103   0.946   3.071 -1.2938 -3.4931  0.3848
  243LIG     H3 3634   4.228   0.928   3.185  1.6146  0.0967 -0.5132
  243LIG     CA 3635   4.168   0.757   3.067 -0.3699  0.1447 -0.2490
  243LIG     HA 3636   4.130   0.725   3.163  0.7500 -0.0488  0.1478
  243LIG     CB 3637   4.060   0.749   2.958 -0.2999 -0.0034  0.4360
  243LIG    HB1 3638   4.028   0.646   2.932  2.8002 -1.2367  1.1168
  243LIG    HB2 3639   4.095   0.777   2.857  1.9354 -2.9798  0.2621
  243LIG     CG 3640   3.935   0.833   2.981  0.9756 -0.1399  0.1321
  243LIG    OD1 3641   3.826   0.810   2.917  0.7844 -0.3076  0.3377
  243LIG    OD2 3642   3.944   0.940   3.050 -0.2592 -0.1571 -0.4465
  243LIG      C 3643   4.290   0.671   3.031  0.3909 -0.3953  0.0458
  243LIG    OT1 3644   4.405   0.714   3.059 -0.0517  0.2481  0.1881
  243LIG    OT2 3645   4.272   0.560   2.978 -0.0859  0.3718 -0.4172
  244LIG      N 3646   7.823   9.665   2.397  0.4939  1.2472 -0.7083
  244LIG     H1 3647   7.793   9.759   2.365 -0.4569  0.7915 -1.1882
  244LIG     H2 3648   7.805   9.596   2.322 -1.0087  0.8959 -0.0590
  244LIG     H3 3649   7.780   9.635   2.487  0.0957  1.6382 -0.7653
  244LIG     CA 3650   7.971   9.668   2.430 -0.5396  0.5311 -0.1921
  244LIG     HA 3651   8.023   9.693   2.339 -1.1622 -0.2372 -0.7625
  244LIG     CB 3652   8.011   9.781   2.530 -0.8050  0.4116 -0.0694
  244LIG    HB1 3653   7.976   9.873   2.478  0.1797  0.7976 -0.0741
  244LIG    HB2 3654   8.120   9.786   2.552 -0.9801  0.2957  0.8710
  244LIG     CG 3655   7.928   9.778   2.656 -0.4556 -0.3549 -0.3135
  244LIG    OD1 3656   7.850   9.679   2.673 -0.2114  0.6772 -0.2297
  244LIG    OD2 3657   7.939   9.873   2.731  0.2179 -0.6288 -0.7110
  244LIG      C 3658   8.030   9.531   2.474 -0.0997 -0.0159 -0.1764
  244LIG    OT1 3659   7.960   9.427   2.458  0.1165 -0.0256 -0.4485
  244LIG    OT2 3660   8.145   9.531   2.521 -0.2419  0.1008  0.2788
  245LIG      N 3661   9.651   4.150   4.516 -0.5614 -0.2280  0.2929
  245LIG     H1 3662   9.733   4.148   4.579 -1.5324 -0.5715  1.5901
  245LIG     H2 3663   9.580   4.099   4.573 -0.0299  0.2111  1.3732
  245LIG     H3 3664   9.671   4.106   4.424  1.5720 -0.6622  0.9243
  245LIG     CA 3665   9.632   4.299   4.504  0.6854  0.0625 -0.5766
  245LIG     HA 3666   9.731   4.338   4.523  0.7429 -0.5982  0.5121
  245LIG     CB 3667   9.572   4.331   4.364  0.1565 -0.2697 -0.3519
  245LIG    HB1 3668   9.525   4.431   4.360  1.9721  0.6145 -0.8553
  245LIG    HB2 3669   9.487   4.260   4.355 -1.5701  1.2667  2.3347
  245LIG     CG 3670   9.670   4.313   4.246  0.2039  0.1960 -0.1438
  245LIG    OD1 3671   9.632   4.340   4.125 -0.6929 -0.4673  0.0678
  245LIG    OD2 3672   9.785   4.262   4.282  0.5443 -0.2108 -0.1587
  245LIG      C 3673   9.546   4.353   4.623  0.0097 -0.3372  0.8105
  245LIG    OT1 3674   9.479   4.280   4.696 -0.2896 -0.3184  0.5728
  245LIG    OT2 3675   9.536   4.479   4.648 -0.2390  0.2289  0.2757
  246LIG      N 3676   4.358   8.229   1.126  0.2338 -0.3965 -0.0481
  246LIG     H1 3677   4.309   8.148   1.170 -2.1699  1.6348  1.2958
  246LIG     H2 3678   4.328   8.318   1.171 -2.9481 -0.9796 -0.7858
  246LIG     H3 3679   4.323   8.233   1.028 -1.9297  0.1661  0.6938
  246LIG     CA 3680   4.506   8.218   1.124 -0.1808  0.7259 -0.5801
  246LIG     HA 3681   4.533   8.238   1.226 -0.1729  0.4223 -0.5214
  246LIG     CB 3682   4.540   8.070   1.076  0.2543  0.7681  0.0933
  246LIG    HB1 3683   4.648   8.063   1.052  0.1400  2.1242 -0.9361
  246LIG    HB2 3684   4.476   8.054   0.986 -0.8984  1.9920  0.6592
  246LIG     CG 3685   4.506   7.969   1.181 -0.1249  0.0708  0.3184
  246LIG    OD1 3686   4.531   7.847   1.152 -0.3287 -0.1804  0.9298
  246LIG    OD2 3687   4.457   8.014   1.287  0.0083 -0.5389  0.2417
  246LIG      C 3688   4.573   8.328   1.043 -0.4710 -0.1293 -0.6813
  246LIG    OT1 3689   4.498   8.419   0.995 -0.3222  0.4455  0.7714
  246LIG    OT2 3690   4.697   8.336   1.038  0.1628 -0.1051 -0.0097
  247LIG      N 3691   9.339   5.665   8.292  0.1340  0.3902 -0.3557
  247LIG     H1 3692   9.235   5.672   8.290  0.2264  2.1416 -1.0108
  247LIG     H2 3693   9.376   5.673   8.388  1.4912 -1.0172 -0.7175
  247LIG     H3 3694   9.380   5.749   8.246 -3.3838  2.5017  0.0021
  247LIG     CA 3695   9.385   5.539   8.229  0.4668  1.2528  0.5092
  247LIG     HA 3696   9.332   5.459   8.281 -1.7830  1.2835 -1.5313
  247LIG     CB 3697   9.363   5.544   8.077 -0.4794 -0.3117 -0.2483
  247LIG    HB1 3698   9.413   5.455   8.032 -0.3147 -1.1959  1.5953
  247LIG    HB2 3699   9.411   5.639   8.044  1.2312 -1.3538 -0.9130
  247LIG     CG 3700   9.218   5.550   8.039 -0.4211  0.0408  0.2938
  247LIG    OD1 3701   9.135   5.507   8.126  0.1979 -0.6959  0.2277
  247LIG    OD2 3702   9.173   5.586   7.924 -0.1661  0.3514  0.2167
  247LIG      C 3703   9.535   5.506   8.244 -0.3278  0.3455 -0.5790
  247LIG    OT1 3704   9.610   5.584   8.307 -0.5087 -0.1545 -0.6028
  247LIG    OT2 3705   9.584   5.396   8.213 -0.1711 -0.0848  0.1506
  248LIG      N 3706   0.946   8.992   6.473  0.2631  0.3562 -0.0021
  248LIG     H1 3707   1.012   8.998   6.393  3.1869  1.2382  2.2993
  248LIG     H2 3708   0.981   9.060   6.543  2.4378 -0.8551  0.1763
  248LIG     H3 3709   0.945   8.897   6.514  0.3657 -0.2398 -1.3258
  248LIG     CA 3710   0.803   9.020   6.441 -0.3057 -0.1635 -0.5169
  248LIG     HA 3711   0.765   8.955   6.364 -0.6383 -0.1404 -0.3758
  248LIG     CB 3712   0.716   9.009   6.574 -0.8165  0.3608  0.0012
  248LIG    HB1 3713   0.611   9.024   6.543 -0.0362  1.7134 -2.2740
  248LIG    HB2 3714   0.753   9.074   6.655  1.2932  0.6767 -1.1269
  248LIG     CG 3715   0.722   8.872   6.634  0.1381  0.5136  0.1659
  248LIG    OD1 3716   0.800   8.785   6.575 -0.0729  0.3168 -0.7124
  248LIG    OD2 3717   0.665   8.857   6.745  0.5587 -0.3728  0.0763
  248LIG      C 3718   0.780   9.164   6.386  0.2357 -0.1237 -0.6458
  248LIG    OT1 3719   0.868   9.251   6.394 -0.2884 -0.5781  0.2479
  248LIG    OT2 3720   0.663   9.187   6.346 -0.1058 -0.2036  0.2761
  249LIG      N 3721   2.424   7.028   1.576  0.1008 -0.9018 -1.3546
  249LIG     H1 3722   2.447   7.045   1.676  0.4470  0.7130 -1.6758
  249LIG     H2 3723   2.496   6.966   1.534  1.6595 -1.5892  2.0100
  249LIG     H3 3724   2.422   7.120   1.528 -1.7338 -0.7369 -1.0423
  249LIG     CA 3725   2.291   6.969   1.576  0.3476 -0.2317 -1.0635
  249LIG     HA 3726   2.239   7.044   1.633  1.3133 -0.6122  0.3931
  249LIG     CB 3727   2.238   6.950   1.433 -0.8154 -0.2876  0.0441
  249LIG    HB1 3728   2.137   6.905   1.439 -0.7630 -0.2502  2.3442
  249LIG    HB2 3729   2.309   6.881   1.383  0.2509  1.0247 -0.3421
  249LIG     CG 3730   2.237   7.070   1.345 -0.0099 -0.0667  0.5877
  249LIG    OD1 3731   2.179   7.055   1.234 -0.6056  0.2413  0.0685
  249LIG    OD2 3732   2.298   7.176   1.372 -0.4633 -0.2100 -0.3807
  249LIG      C 3733   2.292   6.836   1.650  0.6545  0.2115 -0.0075
  249LIG    OT1 3734   2.388   6.792   1.716 -0.3240 -0.0158 -0.1359
  249LIG    OT2 3735   2.190   6.765   1.630  0.1511  0.1596 -0.3358
  250LIG      N 3736   3.211   8.155   6.599  0.3010 -0.2060  0.0418
  250LIG     H1 3737   3.110   8.170   6.617  0.5498  1.8229 -0.0344
  250LIG     H2 3738   3.259   8.243   6.571  0.8196 -1.0947 -2.0792
  250LIG     H3 3739   3.227   8.093   6.517  1.9843  0.1716  0.0426
  250LIG     CA 3740   3.284   8.089   6.710  0.3288  0.5152 -0.0316
  250LIG     HA 3741   3.252   8.140   6.799 -2.7310  0.8607 -1.2081
  250LIG     CB 3742   3.248   7.932   6.694 -0.0071 -0.0905 -0.3960
  250LIG    HB1 3743   3.308   7.863   6.756  0.9928 -1.2559 -2.5497
  250LIG    HB2 3744   3.284   7.905   6.593 -1.7305  0.1245 -1.1073
  250LIG     CG 3745   3.102   7.902   6.707 -0.2718 -0.2317  0.2925
  250LIG    OD1 3746   3.068   7.787   6.662  0.0067  0.0627  0.1595
  250LIG    OD2 3747   3.020   7.979   6.754  0.1172 -0.0059  0.5327
  250LIG      C 3748   3.433   8.101   6.696 -1.1033 -0.0604  1.0121
  250LIG    OT1 3749   3.488   8.160   6.592  0.2140  0.6040 -0.5523
  250LIG    OT2 3750   3.510   8.056   6.787 -0.0501  0.4933 -0.7791
  251LIG      N 3751   8.228   0.507   1.611 -0.0569  0.6787 -0.2099
  251LIG     H1 3752   8.298   0.562   1.558 -0.2564 -0.9508 -2.2740
  251LIG     H2 3753   8.251   0.411   1.579  0.2503  0.5718  0.3204
  251LIG     H3 3754   8.134   0.528   1.572  0.0202 -1.0792 -1.4647
  251LIG     CA 3755   8.230   0.517   1.757  0.2784 -0.1737  0.3230
  251LIG     HA 3756   8.233   0.624   1.772  2.8060 -0.2612  0.8484
  251LIG     CB 3757   8.095   0.469   1.819 -0.0220 -0.7977  0.0119
  251LIG    HB1 3758   8.101   0.482   1.929 -1.4930 -1.9910  0.2753
  251LIG    HB2 3759   8.078   0.361   1.799  3.3437 -1.2632 -0.9318
  251LIG     CG 3760   7.976   0.548   1.778  0.0925  0.6398 -0.5666
  251LIG    OD1 3761   7.863   0.514   1.828 -0.2305 -0.3916  0.1204
  251LIG    OD2 3762   7.986   0.639   1.698  0.8400  0.0718  0.8276
  251LIG      C 3763   8.348   0.454   1.832 -0.1628 -0.2333 -0.1571
  251LIG    OT1 3764   8.439   0.399   1.759 -0.1230 -0.2157 -0.4445
  251LIG    OT2 3765   8.361   0.478   1.953  0.0095  0.4611 -0.2016
  252LIG      N 3766   2.002   2.050   2.519  0.0869  0.7982 -0.1950
  252LIG     H1 3767   2.010   2.013   2.422 -3.2192  1.4913 -0.8410
  252LIG     H2 3768   1.938   2.131   2.526  0.7208  1.1971  1.3487
  252LIG     H3 3769   2.095   2.078   2.555  1.6524 -1.7395 -1.8667
  252LIG     CA 3770   1.954   1.935   2.609 -0.3436 -0.6099 -0.4306
  252LIG     HA 3771   1.976   1.967   2.710 -1.0988  1.1472 -0.7931
  252LIG     CB 3772   1.801   1.905   2.583  0.3891  0.1843 -0.7581
  252LIG    HB1 3773   1.770   1.821   2.649 -1.5472  1.6400  0.2774
  252LIG    HB2 3774   1.773   1.868   2.482 -1.6742  1.1260 -0.5806
  252LIG     CG 3775   1.721   2.021   2.622  0.1107  0.3310 -0.5553
  252LIG    OD1 3776   1.758   2.137   2.595 -0.9724  0.1245  0.0965
  252LIG    OD2 3777   1.598   1.996   2.667 -0.5846  0.3432  0.1881
  252LIG      C 3778   2.031   1.805   2.583  0.4948  0.3381  0.6593
  252LIG    OT1 3779   2.117   1.788   2.494 -0.3705  1.2941 -0.0845
  252LIG    OT2 3780   1.999   1.707   2.648  0.3589 -0.5190 -0.3545
  253LIG      N 3781   0.202   8.114   5.898 -0.2339 -0.8611 -0.1658
  253LIG     H1 3782   0.237   8.118   5.996 -0.6850  2.7945 -0.0259
  253LIG     H2 3783   0.113   8.167   5.894  1.1980  1.6202 -2.6744
  253LIG     H3 3784   0.186   8.019   5.859  3.1213 -0.5086 -2.8622
  253LIG     CA 3785   0.301   8.165   5.799  0.4732 -0.1291 -0.2367
  253LIG     HA 3786   0.322   8.270   5.814 -0.2050 -0.1562  0.9988
  253LIG     CB 3787   0.435   8.087   5.818 -0.5769  0.6522  0.3480
  253LIG    HB1 3788   0.505   8.116   5.737  1.1710  0.5034  1.7258
  253LIG    HB2 3789   0.416   7.977   5.815  0.3363  0.5108 -0.5867
  253LIG     CG 3790   0.504   8.112   5.947 -0.7387 -1.3962  0.1250
  253LIG    OD1 3791   0.619   8.059   5.970  0.0801  0.1991  0.2989
  253LIG    OD2 3792   0.456   8.210   6.015 -0.0799 -0.2331 -0.3667
  253LIG      C 3793   0.251   8.142   5.652 -0.1898  0.0749  0.7955
  253LIG    OT1 3794   0.144   8.075   5.630 -0.1253 -0.2532  0.1566
  253LIG    OT2 3795   0.313   8.197   5.557  0.2822 -0.3376 -0.0525
  254LIG      N 3796   3.134   2.752   0.856  0.1135  0.4238  0.8081
  254LIG     H1 3797   3.134   2.649   0.862  0.2855  0.3306 -0.4964
  254LIG     H2 3798   3.206   2.794   0.919 -0.2201 -0.3912  1.7499
  254LIG     H3 3799   3.043   2.793   0.883  0.3157 -0.1336  2.4109
  254LIG     CA 3800   3.166   2.794   0.718 -0.3746 -0.4918 -0.4445
  254LIG     HA 3801   3.271   2.772   0.709 -0.3810 -1.3497  1.1998
  254LIG     CB 3802   3.065   2.724   0.628 -0.0068  0.3545  0.6542
  254LIG    HB1 3803   3.075   2.754   0.521  0.7110 -1.6046  0.1353
  254LIG    HB2 3804   2.960   2.729   0.665 -0.4889 -0.8807 -0.4620
  254LIG     CG 3805   3.096   2.576   0.620 -0.5226  0.5224  0.5693
  254LIG    OD1 3806   3.100   2.515   0.509 -0.3682  0.9059 -0.7763
  254LIG    OD2 3807   3.116   2.517   0.730  0.0962  0.1474 -0.0586
  254LIG      C 3808   3.149   2.952   0.693  0.5927 -0.2079 -0.4290
  254LIG    OT1 3809   3.088   3.019   0.782  0.2197 -0.4098 -0.3304
  254LIG    OT2 3810   3.158   2.990   0.570  0.2619  0.0442 -0.0323
  255LIG      N 3811   6.403   0.846   4.057  0.0826  0.4600 -0.4119
  255LIG     H1 3812   6.447   0.940   4.065 -2.1671  1.6865 -1.5699
  255LIG     H2 3813   6.368   0.847   3.959  2.3087 -0.2759 -1.2862
  255LIG     H3 3814   6.325   0.831   4.124  0.3055 -0.5455 -0.3692
  255LIG     CA 3815   6.499   0.732   4.068  0.2648  0.2011  0.2482
  255LIG     HA 3816   6.448   0.645   4.108  1.7867  0.3409  2.6672
  255LIG     CB 3817   6.550   0.699   3.929 -0.5720  0.2581 -0.4260
  255LIG    HB1 3818   6.637   0.631   3.925 -0.3195  0.5772 -0.3782
  255LIG    HB2 3819   6.581   0.782   3.862  0.2715 -0.9345 -1.5679
  255LIG     CG 3820   6.447   0.617   3.855  0.5262  0.5720  0.3872
  255LIG    OD1 3821   6.470   0.601   3.733 -0.6541  0.1405  0.7924
  255LIG    OD2 3822   6.349   0.567   3.912  0.4415 -0.1253 -0.1696
  255LIG      C 3823   6.617   0.754   4.165  0.6852 -0.7495  0.0950
  255LIG    OT1 3824   6.634   0.873   4.209  0.1779  0.1706  0.0424
  255LIG    OT2 3825   6.689   0.659   4.204  0.4179  0.2786 -0.0654
  256LIG      N 3826   3.640   6.541   0.052 -0.4121  0.7217 -0.2379
  256LIG     H1 3827   3.698   6.599  -0.012  1.1712 -2.1075 -1.5694
  256LIG     H2 3828   3.555   6.512   0.001 -0.0236 -2.1977  0.5682
  256LIG     H3 3829   3.609   6.595   0.135 -0.6840 -0.3781  0.4006
  256LIG     CA 3830   3.711   6.418   0.103  0.5279  0.1331  0.4037
  256LIG     HA 3831   3.652   6.362   0.173 -0.5303  1.4253  0.5867
  256LIG     CB 3832   3.736   6.326  -0.021 -0.5673 -0.4633 -0.6403
  256LIG    HB1 3833   3.812   6.253   0.015  0.3910  1.2883  1.0257
  256LIG    HB2 3834   3.774   6.383  -0.109 -1.8999  2.8701  0.7799
  256LIG     CG 3835   3.618   6.233  -0.040  0.0426 -0.6868  0.4740
  256LIG    OD1 3836   3.512   6.247   0.026 -0.4036  0.9577  1.2278
  256LIG    OD2 3837   3.642   6.133  -0.111  0.0242 -0.1058 -0.1704
  256LIG      C 3838   3.848   6.454   0.170  0.2474 -0.6771 -0.5323
  256LIG    OT1 3839   3.891   6.573   0.169  1.1845 -0.0076  0.3773
  256LIG    OT2 3840   3.902   6.366   0.233  0.2736 -0.0310  0.2259
  257LIG      N 3841   8.559   0.744   7.949  0.1071  0.0539 -0.6133
  257LIG     H1 3842   8.461   0.777   7.937  0.2975  1.3347  1.0357
  257LIG     H2 3843   8.603   0.731   7.856  0.8041  0.2371 -0.3142
  257LIG     H3 3844   8.553   0.654   8.001 -1.3685  0.0223 -0.7862
  257LIG     CA 3845   8.627   0.853   8.034 -0.5002  0.4722  0.1793
  257LIG     HA 3846   8.651   0.938   7.973  4.1702 -0.9697 -0.3347
  257LIG     CB 3847   8.548   0.884   8.161  0.1486  0.3993 -0.4478
  257LIG    HB1 3848   8.597   0.973   8.206 -0.4791  1.0829 -1.0939
  257LIG    HB2 3849   8.557   0.798   8.231 -0.1725  1.3286  0.7703
  257LIG     CG 3850   8.402   0.907   8.141 -0.3497 -0.6456 -0.3085
  257LIG    OD1 3851   8.360   0.895   8.022  0.6654  0.0200 -0.1196
  257LIG    OD2 3852   8.330   0.938   8.239 -0.0678  0.0181 -0.3042
  257LIG      C 3853   8.771   0.805   8.087  0.1997  0.2193  0.0629
  257LIG    OT1 3854   8.796   0.682   8.105 -0.2552 -0.9233 -0.0710
  257LIG    OT2 3855   8.851   0.896   8.113  0.2536 -0.1432  0.1051
  258LIG      N 3856   0.073   2.109   2.995 -0.2159 -0.3955  0.6154
  258LIG     H1 3857   0.114   2.167   3.072  0.0444 -1.4625  1.2961
  258LIG     H2 3858   0.134   2.110   2.911 -2.6565 -0.1136 -1.2703
  258LIG     H3 3859  -0.017   2.150   2.963 -0.1153  0.3437  1.2438
  258LIG     CA 3860   0.058   1.976   3.070 -0.0832 -0.4957  0.0384
  258LIG     HA 3861   0.152   1.927   3.090 -0.6716 -1.6599  0.0320
  258LIG     CB 3862  -0.034   1.982   3.199  0.3512  0.1855  0.5771
  258LIG    HB1 3863  -0.049   1.884   3.251 -0.4502  1.5867  3.1684
  258LIG    HB2 3864  -0.137   2.011   3.168  0.1688 -1.5606 -0.5831
  258LIG     CG 3865   0.011   2.083   3.296  0.9986  0.0913  0.0317
  258LIG    OD1 3866   0.129   2.126   3.280  1.1842  0.4187 -0.0552
  258LIG    OD2 3867  -0.071   2.122   3.388 -0.5911 -0.0993  0.1209
  258LIG      C 3868  -0.019   1.886   2.971  0.5790  0.2334  0.5773
  258LIG    OT1 3869  -0.073   1.928   2.868  0.4266  0.3518  0.3147
  258LIG    OT2 3870  -0.032   1.764   3.005 -0.0857  0.2081  0.2717
  259LIG      N 3871   8.997   5.737   6.618 -0.2115  0.2845 -0.1423
  259LIG     H1 3872   9.001   5.831   6.662  1.6461  0.0616  0.2467
  259LIG     H2 3873   9.039   5.733   6.523  1.6117  1.2036  0.5846
  259LIG     H3 3874   8.899   5.701   6.617 -0.7154  1.5112 -2.4771
  259LIG     CA 3875   9.062   5.637   6.713 -0.2904 -0.1599  0.1039
  259LIG     HA 3876   9.166   5.662   6.705 -0.1996  0.0503  1.5724
  259LIG     CB 3877   9.006   5.673   6.856 -0.2589  0.4819 -0.4773
  259LIG    HB1 3878   9.045   5.598   6.928 -0.2445 -1.4486 -2.3781
  259LIG    HB2 3879   8.897   5.652   6.864 -0.1049  0.2059  1.3708
  259LIG     CG 3880   9.055   5.805   6.902  0.1429  0.2289 -0.4958
  259LIG    OD1 3881   9.137   5.867   6.828  0.5223 -0.1856 -0.7277
  259LIG    OD2 3882   9.016   5.849   7.012 -0.0925  0.2408  0.0311
  259LIG      C 3883   9.034   5.488   6.679 -0.0423  0.9743  0.6572
  259LIG    OT1 3884   8.975   5.454   6.576  0.5175  0.5358 -0.9242
  259LIG    OT2 3885   9.084   5.401   6.752 -0.4281 -0.1640 -0.2270
  260LIG      N 3886   0.071   2.855   3.224  0.3899  0.3692  0.3779
  260LIG     H1 3887   0.033   2.906   3.142 -0.0272 -0.0484  0.3024
  260LIG     H2 3888   0.174   2.870   3.230  0.5464 -0.3705 -0.3000
  260LIG     H3 3889   0.040   2.755   3.227  1.7279 -0.0921 -0.1578
  260LIG     CA 3890   0.018   2.932   3.337 -0.1230  0.3142 -0.0694
  260LIG     HA 3891   0.051   2.884   3.428  0.0181  2.1116  0.8578
  260LIG     CB 3892   0.083   3.078   3.340  0.6188  0.4960 -0.1279
  260LIG    HB1 3893   0.045   3.132   3.429 -0.9626  0.3242 -0.6738
  260LIG    HB2 3894   0.056   3.148   3.259 -2.3317  1.2117  1.3158
  260LIG     CG 3895   0.232   3.084   3.348 -0.1653 -0.7175  0.3049
  260LIG    OD1 3896   0.303   2.988   3.311 -0.4589 -0.0538 -0.1219
  260LIG    OD2 3897   0.277   3.203   3.352 -0.2639  0.2902  0.4818
  260LIG      C 3898  -0.137   2.932   3.339  0.0513  0.1528  0.2480
  260LIG    OT1 3899  -0.211   2.886   3.254 -0.3164  0.0887  0.8124
  260LIG    OT2 3900  -0.186   2.973   3.439  0.3902 -0.1613  0.0163
  261LIG      N 3901   2.520   6.791   1.972  0.0938 -0.2307  0.1488
  261LIG     H1 3902   2.493   6.828   1.879 -1.4760  0.2115  0.7374
  261LIG     H2 3903   2.609   6.739   1.961  0.5036  0.5542 -0.2901
  261LIG     H3 3904   2.440   6.736   2.009  0.7596 -0.3680  1.4202
  261LIG     CA 3905   2.544   6.914   2.066  0.0460  0.3374 -0.4338
  261LIG     HA 3906   2.622   6.978   2.028 -0.3980 -0.2759 -2.5487
  261LIG     CB 3907   2.409   6.994   2.066  0.6587 -0.0297  0.1825
  261LIG    HB1 3908   2.420   7.048   2.162  3.5256 -2.2430  1.2645
  261LIG    HB2 3909   2.312   6.939   2.063  0.2033  0.7875 -0.6531
  261LIG     CG 3910   2.393   7.090   1.947  0.3695  0.0083 -0.2589
  261LIG    OD1 3911   2.292   7.166   1.944  0.4457  0.0618 -0.3320
  261LIG    OD2 3912   2.487   7.090   1.865  0.6950  0.1956 -0.1382
  261LIG      C 3913   2.573   6.871   2.209 -0.0774  0.4027 -0.1790
  261LIG    OT1 3914   2.560   6.746   2.249  0.0444 -0.2685  0.1228
  261LIG    OT2 3915   2.593   6.957   2.298 -0.3359  0.4586  0.0488
  262LIG      N 3916   1.623   7.356   9.027  0.1527  0.1023  0.3113
  262LIG     H1 3917   1.684   7.430   8.988  0.1590  0.2986  0.6866
  262LIG     H2 3918   1.593   7.392   9.121  0.9443 -0.2776  0.7159
  262LIG     H3 3919   1.681   7.270   9.035 -1.3506 -1.0082 -0.1735
  262LIG     CA 3920   1.484   7.345   8.961  0.7011  0.0371 -0.3692
  262LIG     HA 3921   1.423   7.430   8.986 -0.6710  0.0721 -3.4014
  262LIG     CB 3922   1.497   7.346   8.803 -0.1216  0.8101 -0.2376
  262LIG    HB1 3923   1.401   7.353   8.748  0.3609  1.2372 -1.0559
  262LIG    HB2 3924   1.535   7.246   8.773 -0.1684  0.9395 -0.7345
  262LIG     CG 3925   1.584   7.458   8.748  0.0971  0.1173 -0.4465
  262LIG    OD1 3926   1.629   7.541   8.833  0.2373 -0.1862  0.1834
  262LIG    OD2 3927   1.610   7.472   8.627  0.4580  0.2868  0.4734
  262LIG      C 3928   1.414   7.209   9.004  0.1400  0.2603 -0.1214
  262LIG    OT1 3929   1.469   7.137   9.090 -0.2563  0.9524  0.1953
  262LIG    OT2 3930   1.303   7.188   8.955  0.0148 -0.5345  0.2253
  263LIG      N 3931   6.785   9.300   8.933  0.1342  0.2284 -0.2368
  263LIG     H1 3932   6.887   9.293   8.950  0.7870  0.8785 -3.2829
  263LIG     H2 3933   6.728   9.320   9.018 -1.8317  1.1784 -1.6898
  263LIG     H3 3934   6.750   9.207   8.901 -1.0990  0.8965 -0.8961
  263LIG     CA 3935   6.774   9.400   8.829  0.1765  0.5482 -0.6300
  263LIG     HA 3936   6.815   9.364   8.735 -0.7161 -1.7947 -0.2057
  263LIG     CB 3937   6.628   9.449   8.820  0.5000 -0.0631 -0.0169
  263LIG    HB1 3938   6.629   9.546   8.766  0.3406 -0.0427  0.0171
  263LIG    HB2 3939   6.596   9.482   8.920 -0.0135  0.4178 -0.3366
  263LIG     CG 3940   6.527   9.351   8.768 -0.3504 -0.3806 -0.4189
  263LIG    OD1 3941   6.565   9.234   8.739 -0.4330 -0.2474 -0.1008
  263LIG    OD2 3942   6.408   9.389   8.761 -0.0520  0.3271  0.0895
  263LIG      C 3943   6.862   9.524   8.872  0.2399  0.4901  0.0665
  263LIG    OT1 3944   6.919   9.528   8.986 -0.4946  0.0117 -0.1079
  263LIG    OT2 3945   6.872   9.618   8.790  0.1034 -0.0459 -0.2396
  264LIG      N 3946   0.793   4.526   0.158  0.2612  0.4457 -0.3582
  264LIG     H1 3947   0.836   4.442   0.115 -0.7215  0.1248 -0.7367
  264LIG     H2 3948   0.779   4.494   0.256 -0.7889 -1.7453 -1.1616
  264LIG     H3 3949   0.699   4.538   0.115 -0.3785  0.0989  0.8837
  264LIG     CA 3950   0.866   4.655   0.154  0.1024 -0.2460  0.4029
  264LIG     HA 3951   0.819   4.729   0.218  2.1416  1.5560 -0.0566
  264LIG     CB 3952   1.014   4.630   0.218  0.0773  0.5622 -0.2363
  264LIG    HB1 3953   1.072   4.722   0.196  0.8903 -0.0329 -0.6361
  264LIG    HB2 3954   1.066   4.544   0.170  1.8819  2.4961 -1.9792
  264LIG     CG 3955   1.001   4.611   0.367  0.2757 -0.2882 -0.0319
  264LIG    OD1 3956   0.897   4.639   0.429 -0.1551  0.2350  0.1325
  264LIG    OD2 3957   1.113   4.587   0.427  0.1534  0.3402 -0.5173
  264LIG      C 3958   0.887   4.724   0.016  0.2058  0.3111 -0.4373
  264LIG    OT1 3959   0.826   4.670  -0.083  0.3559  0.0772  0.4850
  264LIG    OT2 3960   0.948   4.835   0.007  0.3190  0.3029  0.4236
  265LIG      N 3961   0.363   0.862   4.501  0.3604  0.3723  0.5741
  265LIG     H1 3962   0.458   0.866   4.542  0.6345 -0.4521  0.0486
  265LIG     H2 3963   0.297   0.861   4.581 -1.5305 -3.8640 -0.7498
  265LIG     H3 3964   0.345   0.770   4.455  1.4888 -0.2094  1.2552
  265LIG     CA 3965   0.348   0.977   4.414  0.1660  0.5560 -0.6053
  265LIG     HA 3966   0.356   1.057   4.486 -0.8209 -0.5327  0.7971
  265LIG     CB 3967   0.451   0.972   4.296  0.4502  0.0895 -0.1889
  265LIG    HB1 3968   0.439   1.069   4.244 -3.6459  1.2323  2.3739
  265LIG    HB2 3969   0.431   0.880   4.237  0.8799  1.1100 -1.9858
  265LIG     CG 3970   0.600   0.965   4.330  0.0851  0.2635 -0.6050
  265LIG    OD1 3971   0.690   0.975   4.243  0.5887  0.3909 -0.1691
  265LIG    OD2 3972   0.622   0.918   4.447 -0.0850  0.4082 -0.2954
  265LIG      C 3973   0.205   0.977   4.346 -0.1670  0.4509 -0.5674
  265LIG    OT1 3974   0.124   0.879   4.365  0.1578 -0.0991  0.7948
  265LIG    OT2 3975   0.170   1.081   4.287  0.3373  0.3130  0.1452
  266LIG      N 3976   5.033   3.746   6.080 -0.0844  0.2172 -0.3299
  266LIG     H1 3977   5.085   3.723   5.993  1.2772  2.5724 -0.2322
  266LIG     H2 3978   5.111   3.776   6.143 -1.9633  0.9575  1.7931
  266LIG     H3 3979   4.972   3.667   6.109  1.2158 -1.4370 -1.8370
  266LIG     CA 3980   4.946   3.863   6.040 -0.1791 -0.6081 -0.5227
  266LIG     HA 3981   4.871   3.838   5.967  0.3207  0.6696 -1.5088
  266LIG     CB 3982   4.878   3.920   6.167  0.5281 -0.5706 -0.5582
  266LIG    HB1 3983   4.834   4.019   6.142  0.5967 -0.3357  0.2255
  266LIG    HB2 3984   4.950   3.937   6.250 -0.4138  0.4931  0.0567
  266LIG     CG 3985   4.765   3.832   6.216 -0.4076 -0.0631 -0.1121
  266LIG    OD1 3986   4.699   3.762   6.132 -0.0105 -0.4804  0.5330
  266LIG    OD2 3987   4.742   3.845   6.338 -0.4511 -0.0500  0.3224
  266LIG      C 3988   5.019   3.977   5.963 -0.1011  0.1433 -0.1321
  266LIG    OT1 3989   5.141   3.971   5.955 -0.3524  0.0155 -0.0650
  266LIG    OT2 3990   4.957   4.077   5.925  0.7378  0.5247  0.1145
  267LIG      N 3991   9.674   6.621   3.066  0.5344  0.6458 -0.1225
  267LIG     H1 3992   9.660   6.706   3.124 -0.8008  0.5574 -0.2881
  267LIG     H2 3993   9.683   6.541   3.131  2.1968 -0.3622 -1.5277
  267LIG     H3 3994   9.756   6.629   3.003  1.2415  1.6959  0.8901
  267LIG     CA 3995   9.556   6.607   2.971 -0.2657 -0.3842 -0.3031
  267LIG     HA 3996   9.557   6.695   2.908  1.8337  1.4445  2.0506
  267LIG     CB 3997   9.574   6.482   2.881  0.2381 -0.0002 -0.4157
  267LIG    HB1 3998   9.498   6.479   2.800  2.9299  0.2115 -3.1792
  267LIG    HB2 3999   9.563   6.385   2.935  0.6469  0.0661 -0.2045
  267LIG     CG 4000   9.706   6.486   2.805  0.0997  0.7132 -0.2535
  267LIG    OD1 4001   9.795   6.568   2.836  0.2896 -0.4084 -0.1057
  267LIG    OD2 4002   9.702   6.418   2.699  0.2769  0.5932  0.1185
  267LIG      C 4003   9.420   6.613   3.046 -0.2585  0.4316  0.0205
  267LIG    OT1 4004   9.405   6.632   3.170  0.1201  0.4759  0.3291
  267LIG    OT2 4005   9.325   6.599   2.969  0.9586  0.0621 -0.3630
  268LIG      N 4006   0.764   0.254   5.805  0.0191 -0.1151  0.1728
  268LIG     H1 4007   0.747   0.354   5.830 -0.3171 -0.0938 -0.1310
  268LIG     H2 4008   0.680   0.197   5.825  0.7708 -1.2946  0.0503
  268LIG     H3 4009   0.845   0.218   5.859  3.1055  1.9984 -2.6164
  268LIG     CA 4010   0.805   0.234   5.661  0.4235  0.2499 -0.5413
  268LIG     HA 4011   0.716   0.260   5.606 -0.6987 -2.7947 -0.3253
  268LIG     CB 4012   0.921   0.332   5.635 -0.0202 -0.4765  0.5651
  268LIG    HB1 4013   0.935   0.315   5.526 -2.2339  1.3146 -0.0621
  268LIG    HB2 4014   1.018   0.308   5.685  0.5095  4.9017  2.8019
  268LIG     CG 4015   0.897   0.478   5.657  0.6950 -0.6098 -0.1090
  268LIG    OD1 4016   0.781   0.526   5.680 -0.7505 -0.7026  0.1594
  268LIG    OD2 4017   0.997   0.550   5.649 -0.3608  0.0818 -0.2109
  268LIG      C 4018   0.841   0.086   5.637  0.7401  0.5320  0.0399
  268LIG    OT1 4019   0.814   0.000   5.728  0.7577 -0.1622  0.1395
  268LIG    OT2 4020   0.886   0.060   5.522  0.2022 -0.7299  0.1268
  269LIG      N 4021   4.272   8.602   2.609  0.4475 -0.5053 -0.1496
  269LIG     H1 4022   4.222   8.532   2.667  0.4387  1.2287  2.0779
  269LIG     H2 4023   4.209   8.659   2.549  0.3444  1.4752  1.7048
  269LIG     H3 4024   4.346   8.550   2.558  1.5280  1.6366 -0.8939
  269LIG     CA 4025   4.358   8.695   2.700 -0.1467  0.0504 -0.0497
  269LIG     HA 4026   4.403   8.624   2.767 -1.6641 -0.4254  0.5164
  269LIG     CB 4027   4.463   8.775   2.615 -0.1338  0.8548 -0.0535
  269LIG    HB1 4028   4.520   8.849   2.675  1.0078 -0.1905  0.2101
  269LIG    HB2 4029   4.407   8.820   2.530 -0.5900 -0.6456 -0.5858
  269LIG     CG 4030   4.563   8.682   2.554 -0.9623  0.2911  0.0301
  269LIG    OD1 4031   4.544   8.559   2.571 -0.5473  0.2752  0.5332
  269LIG    OD2 4032   4.661   8.726   2.485  0.1235 -0.4120 -0.5017
  269LIG      C 4033   4.278   8.795   2.782  0.4691  0.1640  0.0770
  269LIG    OT1 4034   4.154   8.799   2.779 -0.8495 -0.0372 -0.2881
  269LIG    OT2 4035   4.344   8.883   2.845  0.3939  0.9362  0.0735
  270LIG      N 4036   1.905   6.340   3.014  0.2064 -0.0068 -0.5595
  270LIG     H1 4037   1.976   6.348   2.938  0.2617 -0.5357 -0.5695
  270LIG     H2 4038   1.808   6.358   2.982 -1.3740 -1.4957  2.8107
  270LIG     H3 4039   1.930   6.406   3.090 -1.0547 -0.9032  0.6986
  270LIG     CA 4040   1.907   6.206   3.083 -0.5269  0.4697 -0.0019
  270LIG     HA 4041   2.009   6.176   3.066  0.4519  0.5833  4.4078
  270LIG     CB 4042   1.888   6.215   3.244  0.3983 -0.1796 -0.0418
  270LIG    HB1 4043   1.852   6.115   3.278  2.8341 -1.2501 -0.3996
  270LIG    HB2 4044   1.810   6.293   3.259  0.8589  0.2180  0.2873
  270LIG     CG 4045   2.010   6.252   3.316  0.0089  0.1565 -0.1151
  270LIG    OD1 4046   2.114   6.266   3.251  0.1706  0.4117 -0.3335
  270LIG    OD2 4047   1.993   6.283   3.437 -0.4853  0.1539  0.2593
  270LIG      C 4048   1.833   6.090   3.012 -0.0704  0.1745  0.0269
  270LIG    OT1 4049   1.755   6.107   2.915  1.0166  0.3493 -0.4455
  270LIG    OT2 4050   1.861   5.975   3.053  0.1366  0.0709 -0.4284
  271LIG      N 4051   7.995   6.557   0.127 -0.0580 -0.1582 -0.5646
  271LIG     H1 4052   8.053   6.473   0.149  0.3449 -0.0763 -1.2801
  271LIG     H2 4053   7.896   6.536   0.148  0.0908 -1.2762 -0.9339
  271LIG     H3 4054   7.988   6.563   0.024 -1.5928  1.8261 -0.4107
  271LIG     CA 4055   8.046   6.676   0.200 -0.2833  0.5123 -0.1365
  271LIG     HA 4056   8.152   6.680   0.179 -0.3593 -1.7073 -1.1993
  271LIG     CB 4057   7.970   6.799   0.142  1.0222 -0.0778 -0.8772
  271LIG    HB1 4058   7.982   6.891   0.203 -0.3822  1.1832 -2.4502
  271LIG    HB2 4059   7.863   6.773   0.132  1.0318 -1.6220  1.9086
  271LIG     CG 4060   8.025   6.850   0.015 -0.2129 -0.0128 -0.5790
  271LIG    OD1 4061   7.995   6.963  -0.031 -0.0991 -0.2812 -0.1380
  271LIG    OD2 4062   8.102   6.765  -0.043 -0.5009 -0.2981  0.0130
  271LIG      C 4063   8.026   6.671   0.357  0.7535 -0.4855  0.0309
  271LIG    OT1 4064   7.952   6.577   0.403 -0.7069 -0.3428  0.1317
  271LIG    OT2 4065   8.072   6.758   0.439  0.3549 -0.5450  0.4981
  272LIG      N 4066   8.810   4.037   8.137 -0.0721 -0.1729 -0.8341
  272LIG     H1 4067   8.832   3.936   8.149 -2.4497 -0.7735 -1.1852
  272LIG     H2 4068   8.870   4.087   8.206  0.6538 -2.6105  0.4294
  272LIG     H3 4069   8.708   4.053   8.147 -0.2978 -2.5985  2.1312
  272LIG     CA 4070   8.865   4.089   8.001 -0.8007  0.1284 -0.7753
  272LIG     HA 4071   8.864   4.196   8.006 -0.3204  0.0992  0.4551
  272LIG     CB 4072   9.011   4.032   7.977  0.6566  0.7434  0.6510
  272LIG    HB1 4073   9.041   4.056   7.873 -0.0741 -0.1756  0.2242
  272LIG    HB2 4074   9.014   3.923   7.994  0.1014  0.2729 -1.9171
  272LIG     CG 4075   9.098   4.108   8.074  0.2717 -0.8102  0.4387
  272LIG    OD1 4076   9.052   4.202   8.136  0.0786 -0.5241  0.0237
  272LIG    OD2 4077   9.224   4.079   8.083  0.4508 -0.6083 -0.0931
  272LIG      C 4078   8.777   4.051   7.880  0.7389 -0.1253  0.4050
  272LIG    OT1 4079   8.669   3.992   7.899  0.1311  0.2844  0.5618
  272LIG    OT2 4080   8.807   4.088   7.764  0.3679  0.8100 -0.2495
  273LIG      N 4081   6.175   9.034   7.403 -0.0359  0.6690 -0.2902
  273LIG     H1 4082   6.129   8.952   7.358  0.1914  0.6172 -0.4305
  273LIG     H2 4083   6.177   9.096   7.320 -1.8900  0.2555 -0.6751
  273LIG     H3 4084   6.267   9.014   7.447 -1.2747 -1.1210  1.6747
  273LIG     CA 4085   6.072   9.074   7.506 -0.1576  0.4078  0.4589
  273LIG     HA 4086   5.985   9.091   7.444 -0.5503 -0.3930  0.7707
  273LIG     CB 4087   6.042   8.955   7.598 -0.2398  0.1127  0.2050
  273LIG    HB1 4088   5.948   8.979   7.652 -0.8285  2.1195 -1.5488
  273LIG    HB2 4089   6.131   8.937   7.662 -0.1475 -0.0312  0.0355
  273LIG     CG 4090   6.014   8.822   7.524 -0.4885  0.4530 -1.0582
  273LIG    OD1 4091   6.007   8.826   7.402 -0.9589  0.5806  0.0175
  273LIG    OD2 4092   5.987   8.718   7.594 -0.2138 -0.7351  0.0784
  273LIG      C 4093   6.110   9.205   7.585 -0.3115  0.5068 -0.0511
  273LIG    OT1 4094   6.218   9.261   7.568  0.0029  0.0596  0.1289
  273LIG    OT2 4095   6.025   9.248   7.666  0.3841 -0.7267 -0.3547
  274LIG      N 4096   1.583   0.799   2.823 -0.4366 -0.0641 -0.8303
  274LIG     H1 4097   1.512   0.864   2.783 -0.0288 -0.0438 -1.5518
  274LIG     H2 4098   1.542   0.716   2.869  2.6608 -2.1621 -1.5343
  274LIG     H3 4099   1.613   0.861   2.901 -0.2982  1.5585 -2.1141
  274LIG     CA 4100   1.705   0.750   2.749  0.0104 -0.0280  1.3182
  274LIG     HA 4101   1.771   0.694   2.814  2.0872  0.3712 -0.3231
  274LIG     CB 4102   1.660   0.657   2.623 -0.7785 -0.9926 -0.2307
  274LIG    HB1 4103   1.751   0.634   2.563 -0.0771  1.8400 -0.3746
  274LIG    HB2 4104   1.588   0.703   2.553  0.1508 -0.6260 -0.9582
  274LIG     CG 4105   1.599   0.526   2.672  1.2493  0.5669 -0.0129
  274LIG    OD1 4106   1.558   0.433   2.592  0.4435 -0.8007  0.2479
  274LIG    OD2 4107   1.591   0.518   2.791 -0.1320  0.3099 -0.6316
  274LIG      C 4108   1.785   0.872   2.693 -0.1860  0.2770  0.0743
  274LIG    OT1 4109   1.743   0.988   2.718  0.4480  0.2231  0.1333
  274LIG    OT2 4110   1.890   0.852   2.635 -0.1361  0.4880 -0.1678
  275LIG      N 4111   2.551   8.542   6.885  0.4369  0.5542 -0.0794
  275LIG     H1 4112   2.589   8.602   6.809  1.4592  0.9376  0.7062
  275LIG     H2 4113   2.486   8.604   6.936  0.7312  1.8221 -1.1814
  275LIG     H3 4114   2.624   8.504   6.949 -1.0292 -0.0466  1.2854
  275LIG     CA 4115   2.476   8.425   6.836  0.6097 -1.4524  0.4810
  275LIG     HA 4116   2.483   8.422   6.728 -1.4222  0.5690  0.2247
  275LIG     CB 4117   2.522   8.293   6.898  0.0592 -0.4017 -0.0871
  275LIG    HB1 4118   2.451   8.218   6.857  0.6286 -0.6283 -0.6788
  275LIG    HB2 4119   2.521   8.302   7.008  0.0427 -0.2143 -0.1021
  275LIG     CG 4120   2.655   8.250   6.838  0.3953 -0.1533 -0.8929
  275LIG    OD1 4121   2.688   8.129   6.852 -0.5020 -0.8767 -0.1998
  275LIG    OD2 4122   2.731   8.333   6.784  0.1433  0.2493 -0.2530
  275LIG      C 4123   2.321   8.429   6.850 -0.0447 -0.3976  0.7010
  275LIG    OT1 4124   2.257   8.507   6.926  0.1522  0.0681 -0.3048
  275LIG    OT2 4125   2.263   8.350   6.771 -0.0442 -0.3696 -1.1575
  276LIG      N 4126   7.104   1.357   8.772 -0.0219  0.2472  0.2344
  276LIG     H1 4127   7.208   1.360   8.777  0.0742 -0.5698 -0.8502
  276LIG     H2 4128   7.071   1.269   8.816  1.3930 -1.2088 -1.4542
  276LIG     H3 4129   7.077   1.343   8.672  1.6237 -1.9827  0.0359
  276LIG     CA 4130   7.015   1.473   8.832 -0.7245  0.9449  0.2359
  276LIG     HA 4131   6.918   1.452   8.789 -0.4467 -1.6350  0.7038
  276LIG     CB 4132   7.017   1.464   8.996  0.3695  0.1532 -0.9543
  276LIG    HB1 4133   6.928   1.522   9.031 -1.1189 -1.9705 -1.0026
  276LIG    HB2 4134   7.113   1.499   9.039  0.3231 -1.6864  0.7813
  276LIG     CG 4135   6.992   1.333   9.067 -0.2718 -0.9394 -0.8948
  276LIG    OD1 4136   6.932   1.240   9.010  0.3540 -0.0930  0.3552
  276LIG    OD2 4137   7.014   1.322   9.196  0.1193 -0.3505  0.0116
  276LIG      C 4138   7.051   1.616   8.790  0.0421 -0.3252  0.3122
  276LIG    OT1 4139   7.162   1.638   8.733  0.1487 -0.0316 -0.0510
  276LIG    OT2 4140   6.987   1.720   8.812 -0.2019  0.1927 -1.0137
  277LIG      N 4141   3.487   7.700   4.878  0.2693 -0.6154  0.3840
  277LIG     H1 4142   3.444   7.681   4.971 -0.3081  4.4634  1.4439
  277LIG     H2 4143   3.405   7.729   4.821 -0.4210 -1.1240  1.1010
  277LIG     H3 4144   3.531   7.620   4.827 -0.0487 -1.2986  1.1623
  277LIG     CA 4145   3.579   7.816   4.886 -0.1510 -0.7251  0.1079
  277LIG     HA 4146   3.652   7.795   4.963  1.5036  0.7897 -0.9598
  277LIG     CB 4147   3.650   7.845   4.755  0.4011  0.2424 -0.5994
  277LIG    HB1 4148   3.687   7.950   4.755 -1.2723  0.8838  1.2927
  277LIG    HB2 4149   3.583   7.848   4.666 -0.2402  1.9746 -0.0831
  277LIG     CG 4150   3.759   7.745   4.733  0.5637 -0.5612  0.0332
  277LIG    OD1 4151   3.790   7.668   4.826 -0.2111  0.5026 -0.5169
  277LIG    OD2 4152   3.820   7.748   4.621  0.1245  0.3006 -0.8164
  277LIG      C 4153   3.506   7.946   4.933 -0.6455  0.7416 -0.2244
  277LIG    OT1 4154   3.381   7.946   4.940  0.2336 -0.5639  0.3611
  277LIG    OT2 4155   3.575   8.046   4.968  0.0092  0.1823 -0.2252
  278LIG      N 4156   2.661   4.605   1.759 -0.3531  1.0503 -0.2221
  278LIG     H1 4157   2.583   4.674   1.766 -1.6674 -0.4847  1.3038
  278LIG     H2 4158   2.608   4.516   1.754  0.4503  0.6362 -2.5456
  278LIG     H3 4159   2.713   4.618   1.849 -1.8830 -1.1025  1.0718
  278LIG     CA 4160   2.744   4.614   1.634  0.3388  0.4489  0.8839
  278LIG     HA 4161   2.673   4.604   1.552  0.7242 -0.1209  0.6155
  278LIG     CB 4162   2.835   4.745   1.637  0.1727 -0.5760 -0.9803
  278LIG    HB1 4163   2.908   4.724   1.556  1.1213  1.5924 -0.7451
  278LIG    HB2 4164   2.894   4.758   1.730 -1.0007  0.5619 -0.3641
  278LIG     CG 4165   2.747   4.867   1.640  0.5834  0.1798  0.3264
  278LIG    OD1 4166   2.791   4.980   1.666  0.2415  0.5292  0.6195
  278LIG    OD2 4167   2.634   4.845   1.589  0.3285  0.3733  0.1922
  278LIG      C 4168   2.831   4.491   1.611  0.3529 -0.1853  0.6995
  278LIG    OT1 4169   2.844   4.405   1.708 -0.1034 -0.2075  0.0092
  278LIG    OT2 4170   2.888   4.470   1.498  0.3275 -0.2058  0.5180
  279LIG      N 4171   5.923   1.933   2.743  0.1481 -0.3147 -0.1857
  279LIG     H1 4172   5.843   1.993   2.770 -1.1637 -0.7083 -2.9085
  279LIG     H2 4173   5.894   1.834   2.759 -0.4485 -0.1165 -0.0099
  279LIG     H3 4174   5.998   1.959   2.811  1.2432 -0.7950 -1.1793
  279LIG     CA 4175   5.970   1.969   2.607  0.2882 -0.0199 -0.2893
  279LIG     HA 4176   6.068   1.927   2.592  0.7749  1.4145 -1.3744
  279LIG     CB 4177   5.854   1.925   2.505  0.7976  0.2023  0.2625
  279LIG    HB1 4178   5.876   1.983   2.413  0.2718 -0.5563 -0.3566
  279LIG    HB2 4179   5.753   1.954   2.538  0.8827  0.7398  0.0531
  279LIG     CG 4180   5.864   1.777   2.470  0.1704  0.0407 -0.2787
  279LIG    OD1 4181   5.765   1.716   2.427  1.1018  0.5365  0.3079
  279LIG    OD2 4182   5.979   1.720   2.471  0.1998 -0.1525 -0.2311
  279LIG      C 4183   5.982   2.123   2.588  0.1554 -0.5846 -0.2081
  279LIG    OT1 4184   5.960   2.203   2.681 -0.1938  0.4418  0.0108
  279LIG    OT2 4185   6.019   2.165   2.476 -0.3340 -0.0387  0.5571
  280LIG      N 4186   3.262   0.544   7.175  0.2338  0.3166  0.3010
  280LIG     H1 4187   3.233   0.644   7.170  0.0257  0.2094 -0.8619
  280LIG     H2 4188   3.178   0.483   7.173  0.5454 -0.1850  1.5072
  280LIG     H3 4189   3.293   0.515   7.270  0.0057  0.6899  0.4911
  280LIG     CA 4190   3.359   0.492   7.082 -0.6056 -0.2291 -0.0216
  280LIG     HA 4191   3.313   0.497   6.984 -1.2487 -2.1526  0.1288
  280LIG     CB 4192   3.491   0.578   7.091  0.3727 -0.3809  0.7158
  280LIG    HB1 4193   3.577   0.533   7.036  0.3548 -1.9502  1.9085
  280LIG    HB2 4194   3.528   0.588   7.195  1.3670 -2.9890  0.6710
  280LIG     CG 4195   3.466   0.714   7.029 -0.0826 -0.2560  0.8134
  280LIG    OD1 4196   3.380   0.737   6.936  0.4401 -0.2534 -0.0961
  280LIG    OD2 4197   3.547   0.803   7.065 -0.3449 -0.3212  0.4273
  280LIG      C 4198   3.386   0.338   7.099 -0.1002  0.2896 -1.3694
  280LIG    OT1 4199   3.343   0.275   7.197  0.0115  0.5663  0.3616
  280LIG    OT2 4200   3.464   0.287   7.018 -0.1521  0.2474  0.4355
  281LIG      N 4201   4.578   6.419   7.657 -0.1121  0.2511 -0.4028
  281LIG     H1 4202   4.648   6.398   7.731 -0.5375 -1.0676 -0.3589
  281LIG     H2 4203   4.596   6.372   7.566 -1.0261  1.4598 -1.2495
  281LIG     H3 4204   4.584   6.522   7.639  1.5093 -0.0524 -1.9680
  281LIG     CA 4205   4.448   6.370   7.713  0.2236  0.1246 -0.0857
  281LIG     HA 4206   4.366   6.395   7.647 -0.9062 -2.3330  0.2520
  281LIG     CB 4207   4.452   6.211   7.707  0.4066 -0.4476  0.2425
  281LIG    HB1 4208   4.507   6.166   7.792  1.5418 -0.8784 -0.6925
  281LIG    HB2 4209   4.494   6.191   7.606 -0.5292  1.3947 -0.5703
  281LIG     CG 4210   4.307   6.157   7.696  0.7891  0.2107 -0.2393
  281LIG    OD1 4211   4.287   6.035   7.722  0.1186  0.4682 -0.6173
  281LIG    OD2 4212   4.216   6.235   7.654  0.1704 -0.3069 -0.3253
  281LIG      C 4213   4.417   6.435   7.856 -0.0817  0.2420  0.0443
  281LIG    OT1 4214   4.510   6.505   7.904 -0.0358 -0.3814 -0.4072
  281LIG    OT2 4215   4.307   6.411   7.920 -0.1820 -0.3281  0.0240
  282LIG      N 4216   8.351   4.516   5.403  0.2018 -0.1714  0.0407
  282LIG     H1 4217   8.387   4.587   5.469  1.4875 -1.0533  0.3360
  282LIG     H2 4218   8.256   4.495   5.441  0.0066  1.5518  0.5763
  282LIG     H3 4219   8.405   4.428   5.415 -1.5567 -1.6367 -2.0073
  282LIG     CA 4220   8.345   4.558   5.260 -0.5659  0.4712  0.2373
  282LIG     HA 4221   8.278   4.485   5.218 -2.3165  1.1820  1.6501
  282LIG     CB 4222   8.291   4.705   5.248  0.6333  0.0267  0.0081
  282LIG    HB1 4223   8.308   4.738   5.143 -0.2960  1.5187  0.2905
  282LIG    HB2 4224   8.342   4.766   5.327 -1.0038  0.0533  1.0910
  282LIG     CG 4225   8.149   4.702   5.272 -0.0626 -0.3980 -0.6590
  282LIG    OD1 4226   8.091   4.593   5.304 -0.2693 -0.0757  0.5199
  282LIG    OD2 4227   8.089   4.815   5.265 -0.3991 -0.0745 -0.1732
  282LIG      C 4228   8.483   4.536   5.188  0.4254 -0.4934  0.5975
  282LIG    OT1 4229   8.590   4.514   5.251  1.0641 -0.9677  0.6186
  282LIG    OT2 4230   8.489   4.552   5.066 -0.1150 -0.5116 -0.2959
  283LIG      N 4231   6.546   0.197   0.696  0.7632 -0.1052 -0.2207
  283LIG     H1 4232   6.535   0.222   0.797 -1.2552 -1.6613  0.0056
  283LIG     H2 4233   6.454   0.162   0.662  0.0028  1.2858  0.3186
  283LIG     H3 4234   6.618   0.122   0.691  1.3827  0.3314  1.4696
  283LIG     CA 4235   6.599   0.302   0.608  0.0509 -0.4964  0.0671
  283LIG     HA 4236   6.618   0.258   0.512  1.1641 -1.9203  0.8960
  283LIG     CB 4237   6.485   0.412   0.578 -0.3714 -0.2854  0.0217
  283LIG    HB1 4238   6.529   0.484   0.506 -0.7717 -0.0265  0.0330
  283LIG    HB2 4239   6.454   0.468   0.669 -2.3536  0.1541 -0.8642
  283LIG     CG 4240   6.367   0.349   0.506 -0.7591 -0.2660 -0.1985
  283LIG    OD1 4241   6.356   0.220   0.499 -0.2613 -1.0872 -0.1761
  283LIG    OD2 4242   6.289   0.425   0.440 -0.2342  0.2277  0.2869
  283LIG      C 4243   6.734   0.372   0.654 -0.1036  0.3896 -0.1317
  283LIG    OT1 4244   6.792   0.332   0.759  0.5212 -0.1140 -0.2998
  283LIG    OT2 4245   6.789   0.453   0.574  0.2233 -0.1416  0.4969
  284LIG      N 4246   6.611   3.239   0.904  0.1262 -0.8384  0.1083
  284LIG     H1 4247   6.707   3.272   0.928  0.9426 -0.1791 -3.3855
  284LIG     H2 4248   6.547   3.314   0.936  1.3898  0.3089  0.0415
  284LIG     H3 4249   6.586   3.152   0.955 -2.9600  0.6333  1.3224
  284LIG     CA 4250   6.591   3.226   0.757 -0.7306 -0.6834  0.1424
  284LIG     HA 4251   6.651   3.147   0.715  0.4113 -0.1997  0.8096
  284LIG     CB 4252   6.441   3.189   0.722  0.5239  0.6183  0.1811
  284LIG    HB1 4253   6.448   3.194   0.612 -2.0024  2.5703  0.0007
  284LIG    HB2 4254   6.362   3.254   0.767 -0.0654 -0.6559  1.0443
  284LIG     CG 4255   6.409   3.046   0.765 -0.1491  0.1188 -0.0952
  284LIG    OD1 4256   6.305   2.994   0.725 -0.0600 -0.0173  1.0331
  284LIG    OD2 4257   6.496   2.983   0.833  0.3373  0.0963 -0.4645
  284LIG      C 4258   6.643   3.355   0.679  0.7013 -0.3912 -0.4309
  284LIG    OT1 4259   6.667   3.451   0.762 -0.0276 -0.1775 -0.5590
  284LIG    OT2 4260   6.651   3.360   0.552  0.1133  0.1824 -0.4625
  285LIG      N 4261   0.604   9.075   0.542  0.0127 -0.7415 -0.3204
  285LIG     H1 4262   0.644   9.156   0.491  0.9728 -2.0029 -1.6631
  285LIG     H2 4263   0.675   9.006   0.575  0.0326 -0.5501  0.0359
  285LIG     H3 4264   0.532   9.027   0.485  0.2974 -0.4630 -0.9238
  285LIG     CA 4265   0.528   9.125   0.666 -0.1746 -0.1844  0.2325
  285LIG     HA 4266   0.576   9.067   0.744  0.8133  0.8933  0.4591
  285LIG     CB 4267   0.557   9.283   0.675 -0.2044  0.2130 -0.0480
  285LIG    HB1 4268   0.488   9.322   0.752 -1.3293 -0.8095 -0.5009
  285LIG    HB2 4269   0.527   9.327   0.577 -0.3321  0.9009  0.2958
  285LIG     CG 4270   0.697   9.320   0.710 -0.6632  0.9584  0.2447
  285LIG    OD1 4271   0.737   9.436   0.727 -0.0041 -0.0019 -0.2330
  285LIG    OD2 4272   0.780   9.229   0.707  0.9216 -0.5569 -0.1131
  285LIG      C 4273   0.385   9.082   0.663  0.7840  0.1293 -0.1666
  285LIG    OT1 4274   0.345   9.011   0.562  0.4516 -0.2175 -0.1908
  285LIG    OT2 4275   0.306   9.128   0.755 -0.2224 -0.1446 -0.9590
  286LIG      N 4276   4.041   4.236   4.013 -0.2620 -0.0370 -0.0762
  286LIG     H1 4277   3.985   4.309   4.061 -0.0156 -0.1338  0.3673
  286LIG     H2 4278   4.127   4.274   3.969 -0.2389 -1.1377 -1.0323
  286LIG     H3 4279   3.981   4.192   3.941 -1.6285  2.7104 -0.7626
  286LIG     CA 4280   4.102   4.139   4.109 -0.0617 -0.2226  0.6470
  286LIG     HA 4281   4.154   4.192   4.188 -0.6496  1.1466  0.1365
  286LIG     CB 4282   3.985   4.057   4.180 -0.1170 -0.7084  0.3765
  286LIG    HB1 4283   4.023   3.980   4.250  1.7421  0.5113  0.7995
  286LIG    HB2 4284   3.915   4.004   4.112 -0.5472 -0.5899  0.7147
  286LIG     CG 4285   3.898   4.148   4.270  0.0652 -0.3343  0.1887
  286LIG    OD1 4286   3.909   4.272   4.249  0.3233  0.0403  0.4413
  286LIG    OD2 4287   3.810   4.100   4.344  0.7769  0.0974 -0.2139
  286LIG      C 4288   4.207   4.041   4.045 -0.1555  0.0927 -0.0105
  286LIG    OT1 4289   4.232   4.056   3.919  0.0266  0.0571 -0.2743
  286LIG    OT2 4290   4.265   3.954   4.123 -0.6696  0.2757 -0.2159
  287LIG      N 4291   7.929   5.982   4.214  0.0233 -0.0209  0.3210
  287LIG     H1 4292   7.964   6.078   4.192  0.6160 -0.1711  0.6080
  287LIG     H2 4293   7.881   5.985   4.307 -0.2648 -1.0051  0.2082
  287LIG     H3 4294   8.011   5.922   4.233  0.4864  0.6076  0.3374
  287LIG     CA 4295   7.850   5.931   4.098  0.1288  0.2521 -0.0691
  287LIG     HA 4296   7.794   5.841   4.119 -2.4573  1.6969 -0.3172
  287LIG     CB 4297   7.738   6.038   4.076  0.0213 -0.4091 -0.3905
  287LIG    HB1 4298   7.698   6.051   3.973  1.2751  1.0749 -0.7206
  287LIG    HB2 4299   7.795   6.132   4.092 -0.7795 -0.1496  1.0848
  287LIG     CG 4300   7.633   6.032   4.182  0.1577  0.5562  0.6887
  287LIG    OD1 4301   7.614   5.924   4.247 -0.0862 -0.4123 -0.1815
  287LIG    OD2 4302   7.551   6.133   4.192  0.2787  0.0455 -0.0514
  287LIG      C 4303   7.934   5.902   3.969 -0.0313 -0.4486 -0.4181
  287LIG    OT1 4304   8.059   5.913   3.977 -0.0313  0.0037 -0.1186
  287LIG    OT2 4305   7.880   5.875   3.860  0.1379  0.0278 -0.3340
  288LIG      N 4306   1.647   1.132   0.291 -0.2968  0.5576 -0.1928
  288LIG     H1 4307   1.649   1.125   0.187 -1.1081  0.5730 -0.2194
  288LIG     H2 4308   1.736   1.087   0.319  0.3007  0.9453 -1.4199
  288LIG     H3 4309   1.570   1.069   0.324  0.0623 -0.8634 -1.8758
  288LIG     CA 4310   1.646   1.268   0.342 -0.6202  0.5063 -0.2600
  288LIG     HA 4311   1.647   1.257   0.449 -1.9619  0.3521 -0.2493
  288LIG     CB 4312   1.778   1.339   0.297  0.5362 -0.0003  0.0418
  288LIG    HB1 4313   1.786   1.438   0.346  0.3722  0.6096 -1.1255
  288LIG    HB2 4314   1.767   1.354   0.188  1.7322  2.6111  0.2224
  288LIG     CG 4315   1.906   1.266   0.324 -0.2422 -0.7091 -0.3982
  288LIG    OD1 4316   1.898   1.143   0.373 -0.6155 -0.4733 -0.5218
  288LIG    OD2 4317   2.017   1.321   0.294 -0.2070  0.6253 -0.6996
  288LIG      C 4318   1.522   1.356   0.317  0.5419 -0.4904 -0.2970
  288LIG    OT1 4319   1.427   1.307   0.244 -0.5023  0.5316  0.4264
  288LIG    OT2 4320   1.522   1.475   0.364 -0.2613 -0.1915  0.0720
  289LIG      N 4321   1.485   2.489   5.126 -0.7423 -0.3194 -0.7039
  289LIG     H1 4322   1.555   2.471   5.201 -0.8512  1.4133 -0.1507
  289LIG     H2 4323   1.401   2.525   5.177  0.0027 -0.3555  0.5972
  289LIG     H3 4324   1.452   2.401   5.082 -2.3580 -0.9514  1.5755
  289LIG     CA 4325   1.538   2.585   5.027  0.2880 -0.0317  0.1281
  289LIG     HA 4326   1.464   2.581   4.948 -0.4516 -0.7304  0.8298
  289LIG     CB 4327   1.556   2.732   5.084 -0.2744  0.1480 -0.1149
  289LIG    HB1 4328   1.600   2.799   5.008  2.1502  0.9686  1.8901
  289LIG    HB2 4329   1.619   2.733   5.175  0.5743 -0.1830 -0.6890
  289LIG     CG 4330   1.427   2.796   5.131 -0.8205  0.7085  0.1653
  289LIG    OD1 4331   1.323   2.727   5.126  1.4994 -0.2084 -0.4474
  289LIG    OD2 4332   1.441   2.914   5.174  0.4270  0.0035 -0.1385
  289LIG      C 4333   1.676   2.551   4.965  0.1114 -0.3007 -0.0775
  289LIG    OT1 4334   1.735   2.448   5.002 -0.0170  0.3907  0.3749
  289LIG    OT2 4335   1.722   2.638   4.886  0.3884 -0.5729  0.1340
  290LIG      N 4336   6.111   5.002   4.026  0.0397  0.1862  0.2453
  290LIG     H1 4337   6.027   5.063   4.026 -0.3550 -0.3439  0.6872
  290LIG     H2 4338   6.184   5.035   4.091  0.7551 -0.7883 -0.0357
  290LIG     H3 4339   6.142   4.999   3.926 -0.6517  1.2992 -0.0147
  290LIG     CA 4340   6.085   4.863   4.070  0.3007  0.4058  0.0030
  290LIG     HA 4341   6.173   4.805   4.049 -0.3342 -1.0984  1.3069
  290LIG     CB 4342   6.035   4.859   4.218  0.2066  0.6159  0.0576
  290LIG    HB1 4343   6.018   4.751   4.236  0.3853  0.2961 -1.5597
  290LIG    HB2 4344   5.942   4.918   4.235 -0.3774 -0.6055  1.3025
  290LIG     CG 4345   6.132   4.910   4.322 -0.4798  0.1820 -0.2643
  290LIG    OD1 4346   6.107   4.880   4.444  0.5866  0.3458  0.5581
  290LIG    OD2 4347   6.226   4.984   4.291  0.2495  0.3554 -0.6848
  290LIG      C 4348   5.981   4.791   3.979  0.8506 -0.6207 -0.3336
  290LIG    OT1 4349   5.910   4.860   3.899 -0.1928 -0.2773 -0.4405
  290LIG    OT2 4350   5.970   4.663   3.980 -0.3120 -0.9422 -0.0108
  291LIG      N 4351   2.955   9.067   0.839  0.4672  0.0468  0.3288
  291LIG     H1 4352   3.019   9.103   0.913  1.0594  1.7277 -0.9404
  291LIG     H2 4353   3.005   9.061   0.748  0.1950 -0.5542  0.2124
  291LIG     H3 4354   2.874   9.132   0.840  1.3585  1.2066 -0.3754
  291LIG     CA 4355   2.915   8.920   0.878  0.2996  0.6320 -0.7845
  291LIG     HA 4356   2.837   8.919   0.954 -1.9772 -0.6699 -2.9812
  291LIG     CB 4357   2.866   8.850   0.745 -0.2782  0.0630 -0.3171
  291LIG    HB1 4358   2.856   8.740   0.761 -2.7892  0.4385  1.2040
  291LIG    HB2 4359   2.954   8.869   0.680  0.3164  0.9623  0.7101
  291LIG     CG 4360   2.734   8.908   0.714  0.0823  0.2828 -0.2368
  291LIG    OD1 4361   2.698   8.912   0.596 -0.3196  0.1822  0.5476
  291LIG    OD2 4362   2.656   8.942   0.805  0.2737  0.0274  0.4247
  291LIG      C 4363   3.038   8.845   0.943  0.2098 -0.0175  0.0187
  291LIG    OT1 4364   3.150   8.900   0.941 -0.2408 -0.0846  0.3065
  291LIG    OT2 4365   3.018   8.730   0.994  0.9304 -1.0078 -0.4824
  292LIG      N 4366   9.114   2.119   2.246 -0.4569 -0.8678 -0.1771
  292LIG     H1 4367   9.160   2.052   2.181 -0.7081 -0.1421 -1.1231
  292LIG     H2 4368   9.181   2.197   2.259 -1.1883 -0.0426 -1.2277
  292LIG     H3 4369   9.095   2.077   2.340 -1.7564 -0.4120 -0.2112
  292LIG     CA 4370   8.997   2.163   2.170  0.6054 -0.1873  0.0112
  292LIG     HA 4371   9.024   2.260   2.131  3.7075 -1.5900 -1.7575
  292LIG     CB 4372   8.956   2.049   2.060 -0.6750 -0.2111 -0.2103
  292LIG    HB1 4373   8.860   2.080   2.014 -1.8609 -0.9242  1.6747
  292LIG    HB2 4374   8.937   1.954   2.113 -0.0209  0.1466  0.6924
  292LIG     CG 4375   9.061   2.039   1.957  0.2936  0.1574  0.5462
  292LIG    OD1 4376   9.173   2.096   1.976 -0.2578  0.3674 -0.2530
  292LIG    OD2 4377   9.033   1.973   1.854 -0.3105  0.2957  0.2113
  292LIG      C 4378   8.864   2.183   2.245  0.1717  0.0607 -0.4223
  292LIG    OT1 4379   8.863   2.153   2.367 -0.1199 -0.1677 -0.4870
  292LIG    OT2 4380   8.763   2.228   2.188  0.3358  0.9974  0.4717
  293LIG      N 4381   2.301   6.672   2.321  0.9142  0.3476  0.2208
  293LIG     H1 4382   2.365   6.739   2.273  1.6959 -0.0794  0.6481
  293LIG     H2 4383   2.200   6.694   2.306  0.1448 -1.6730  1.8976
  293LIG     H3 4384   2.320   6.671   2.424 -1.4536  0.6047  0.7191
  293LIG     CA 4385   2.338   6.539   2.272  0.9266  0.5631  0.9169
  293LIG     HA 4386   2.434   6.516   2.314  0.5220  1.4353  2.3772
  293LIG     CB 4387   2.223   6.432   2.308  0.3345 -0.4018  0.3612
  293LIG    HB1 4388   2.250   6.332   2.268  0.3535 -0.7765  1.2974
  293LIG    HB2 4389   2.124   6.451   2.263  0.0448  0.2349  1.2382
  293LIG     CG 4390   2.207   6.421   2.450  1.2117 -0.2059  0.8033
  293LIG    OD1 4391   2.119   6.346   2.485  0.1706  0.1377 -0.2533
  293LIG    OD2 4392   2.282   6.480   2.535  0.4977  0.1365 -0.4877
  293LIG      C 4393   2.364   6.541   2.117 -0.4026 -0.1355 -0.1129
  293LIG    OT1 4394   2.328   6.644   2.050  0.0755 -0.4302 -0.8350
  293LIG    OT2 4395   2.426   6.445   2.061  0.2983 -0.1379 -0.2116
  294LIG      N 4396   6.480   1.903   0.239 -0.1600  0.5492 -0.8138
  294LIG     H1 4397   6.420   1.852   0.172 -1.8132 -0.6907  1.4799
  294LIG     H2 4398   6.454   2.002   0.253  0.8699  0.6149  0.9196
  294LIG     H3 4399   6.578   1.900   0.203 -0.5771  1.0142 -2.0233
  294LIG     CA 4400   6.482   1.837   0.364  0.1152 -0.1068 -0.1121
  294LIG     HA 4401   6.555   1.876   0.433  0.8806 -5.1599  2.4535
  294LIG     CB 4402   6.351   1.837   0.443 -0.4262  0.2047 -0.4327
  294LIG    HB1 4403   6.362   1.804   0.549 -4.2765  2.4298  0.8545
  294LIG    HB2 4404   6.275   1.779   0.386  0.3869 -1.9916  0.6101
  294LIG     CG 4405   6.314   1.982   0.477  0.0235 -0.6345 -0.8791
  294LIG    OD1 4406   6.370   2.076   0.419 -0.3303  0.6198 -0.2010
  294LIG    OD2 4407   6.229   2.008   0.569 -0.3447 -0.0190 -0.1665
  294LIG      C 4408   6.525   1.689   0.351  0.0529 -0.7369  0.2300
  294LIG    OT1 4409   6.577   1.646   0.242 -0.0646 -0.0436 -0.2179
  294LIG    OT2 4410   6.519   1.614   0.453 -0.4893 -0.4706 -0.2272
  295LIG      N 4411   4.927   2.003   9.027  0.1791 -0.2799 -0.3608
  295LIG     H1 4412   4.885   2.077   8.967 -1.5624 -1.0915 -0.1845
  295LIG     H2 4413   4.844   1.977   9.083 -1.1432  0.7685 -1.7479
  295LIG     H3 4414   5.003   2.032   9.092  1.7227  0.4825 -2.3859
  295LIG     CA 4415   4.969   1.881   8.961 -0.0010  0.2899  0.8452
  295LIG     HA 4416   4.883   1.819   8.939  0.3787  0.2181 -0.5392
  295LIG     CB 4417   5.025   1.916   8.820 -0.9007 -0.0184 -1.5687
  295LIG    HB1 4418   5.021   1.825   8.756  3.2395  0.1179 -2.2956
  295LIG    HB2 4419   5.123   1.967   8.829 -0.6710 -0.7442  0.8386
  295LIG     CG 4420   4.942   2.008   8.732 -0.0309  0.3803  0.3173
  295LIG    OD1 4421   4.988   2.035   8.622  0.8928 -0.1781 -0.3789
  295LIG    OD2 4422   4.840   2.049   8.782 -0.3148  0.4542 -0.0823
  295LIG      C 4423   5.061   1.783   9.036  0.2557  0.5781 -0.1735
  295LIG    OT1 4424   5.086   1.797   9.155  0.1316 -0.0198 -0.4223
  295LIG    OT2 4425   5.121   1.692   8.972  0.3576  0.3225 -0.4807
  296LIG      N 4426   8.915   6.755   3.018  0.4671  0.6043  0.6845
  296LIG     H1 4427   8.970   6.831   3.063  1.7472 -0.4625  0.9874
  296LIG     H2 4428   8.820   6.750   3.060  0.5629  2.4307  1.2239
  296LIG     H3 4429   8.955   6.665   3.051 -0.9238  0.2203  1.3575
  296LIG     CA 4430   8.923   6.764   2.863  0.8514  0.4477 -0.3007
  296LIG     HA 4431   8.895   6.673   2.813 -1.9796  1.1462 -0.1471
  296LIG     CB 4432   8.825   6.873   2.812  0.6385 -0.1083  0.9577
  296LIG    HB1 4433   8.829   6.889   2.702 -0.5524  3.0317  1.2850
  296LIG    HB2 4434   8.841   6.973   2.856  0.4680  1.2715 -1.8900
  296LIG     CG 4435   8.681   6.842   2.833  0.4127 -0.2545 -0.0710
  296LIG    OD1 4436   8.597   6.936   2.827  1.0586 -0.3626  0.9356
  296LIG    OD2 4437   8.651   6.721   2.840  0.1571 -0.3268  0.2013
  296LIG      C 4438   9.065   6.816   2.811 -0.0043 -0.3832 -0.0137
  296LIG    OT1 4439   9.143   6.857   2.901 -0.2794  0.2908 -0.0021
  296LIG    OT2 4440   9.096   6.814   2.691  0.4236 -0.0535 -0.2995
  297LIG      N 4441   8.463   5.013   4.229 -0.3501  0.1572 -0.4675
  297LIG     H1 4442   8.444   4.927   4.285 -0.4840  0.3773 -0.1687
  297LIG     H2 4443   8.558   4.996   4.192 -0.1390 -2.3212  0.9843
  297LIG     H3 4444   8.480   5.094   4.291 -1.2224  0.2598 -0.3424
  297LIG     CA 4445   8.360   5.048   4.124 -0.4628  0.2870  1.1165
  297LIG     HA 4446   8.276   5.096   4.173  0.0375  1.0642  1.2442
  297LIG     CB 4447   8.428   5.150   4.019  0.3045 -0.6340  0.2475
  297LIG    HB1 4448   8.348   5.174   3.945 -0.4383  3.5172  2.1158
  297LIG    HB2 4449   8.515   5.105   3.966  0.0872 -0.7209 -0.0415
  297LIG     CG 4450   8.462   5.291   4.071 -0.2160  0.7352  0.4094
  297LIG    OD1 4451   8.435   5.315   4.191 -0.1395 -0.0739 -0.6264
  297LIG    OD2 4452   8.515   5.372   3.993  0.0696 -0.5107 -0.4908
  297LIG      C 4453   8.318   4.917   4.044  0.3599  0.3043 -0.2988
  297LIG    OT1 4454   8.337   4.801   4.094  0.8471  0.3812 -0.2854
  297LIG    OT2 4455   8.261   4.930   3.939  0.0894 -0.1122 -0.5827
  298LIG      N 4456   2.549   9.341   6.921 -0.1908 -0.1346 -0.3520
  298LIG     H1 4457   2.508   9.277   6.851  0.3103  0.7248 -1.4537
  298LIG     H2 4458   2.643   9.300   6.942  0.4020  0.8428 -1.0044
  298LIG     H3 4459   2.492   9.344   7.008 -0.3817  2.7342 -0.4772
  298LIG     CA 4460   2.565   9.481   6.874  0.4584 -0.8336 -0.7823
  298LIG     HA 4461   2.595   9.540   6.959 -1.2804  1.5114 -1.6898
  298LIG     CB 4462   2.643   9.490   6.740 -0.5960  0.0892 -0.3727
  298LIG    HB1 4463   2.649   9.594   6.703 -0.4288  0.5484  0.9186
  298LIG    HB2 4464   2.592   9.429   6.661  2.2279 -1.1244 -1.4072
  298LIG     CG 4465   2.783   9.430   6.751 -0.0205 -0.0321 -0.1724
  298LIG    OD1 4466   2.811   9.346   6.832 -0.3535 -0.3175 -0.4303
  298LIG    OD2 4467   2.866   9.458   6.654  0.1523  0.0942 -0.1501
  298LIG      C 4468   2.429   9.559   6.856  0.2321  0.4799 -0.6169
  298LIG    OT1 4469   2.318   9.500   6.878 -0.4862 -0.1863  0.0497
  298LIG    OT2 4470   2.432   9.680   6.835  0.5360 -0.0028  0.1238
  299LIG      N 4471   4.641   4.740   1.659 -0.5766 -0.1975  0.3607
  299LIG     H1 4472   4.678   4.821   1.713 -1.6860  0.4891  0.1213
  299LIG     H2 4473   4.546   4.769   1.627 -0.9937 -1.2469  0.5933
  299LIG     H3 4474   4.625   4.656   1.719  1.2470 -1.5499 -0.9156
  299LIG     CA 4475   4.714   4.698   1.537 -0.9628 -0.6246 -0.0095
  299LIG     HA 4476   4.815   4.680   1.570 -1.2577  0.1261  1.3676
  299LIG     CB 4477   4.637   4.580   1.482  0.8219  0.2912 -0.0144
  299LIG    HB1 4478   4.685   4.545   1.388  0.6501 -0.9187  0.3352
  299LIG    HB2 4479   4.528   4.601   1.469  0.5018 -1.5996 -0.7728
  299LIG     CG 4480   4.669   4.456   1.568  0.2657 -0.3948  0.6706
  299LIG    OD1 4481   4.669   4.475   1.690  0.1621 -0.5462 -0.0781
  299LIG    OD2 4482   4.663   4.340   1.519 -0.8103  0.6252 -0.1215
  299LIG      C 4483   4.725   4.804   1.426 -0.0631 -0.7331  0.1407
  299LIG    OT1 4484   4.649   4.905   1.428 -0.1990 -0.0455  0.3815
  299LIG    OT2 4485   4.799   4.776   1.326  0.3075 -0.0455  0.0831
  300LIG      N 4486   0.724   3.103   1.168  0.1796 -0.4454  0.2417
  300LIG     H1 4487   0.624   3.133   1.169  0.5628  0.9944  2.4448
  300LIG     H2 4488   0.747   3.067   1.073 -1.2575 -2.2593  0.5094
  300LIG     H3 4489   0.748   3.026   1.233 -0.0893 -0.0771  0.7890
  300LIG     CA 4490   0.802   3.228   1.205  0.2882 -0.3039  0.1012
  300LIG     HA 4491   0.900   3.194   1.234  0.0815 -0.8655  0.1492
  300LIG     CB 4492   0.820   3.332   1.085 -0.4437  0.0426  1.0899
  300LIG    HB1 4493   0.890   3.411   1.119  1.6740 -0.4205 -1.8269
  300LIG    HB2 4494   0.714   3.357   1.064 -0.5621  0.6898  2.3347
  300LIG     CG 4495   0.899   3.283   0.961 -0.9303 -0.6477 -0.1169
  300LIG    OD1 4496   0.912   3.161   0.945 -0.3074  0.2810 -0.3728
  300LIG    OD2 4497   0.919   3.364   0.864 -0.0191 -0.4883  0.0949
  300LIG      C 4498   0.753   3.297   1.333  0.0485 -0.1885  1.0561
  300LIG    OT1 4499   0.660   3.244   1.396 -0.3413 -0.1288  0.0628
  300LIG    OT2 4500   0.805   3.404   1.366  0.2117  0.2670 -0.3705
  301LIG      N 4501   7.461   4.332   7.059 -0.2749  0.1902 -0.4360
  301LIG     H1 4502   7.509   4.423   7.048  0.7880 -0.2382  0.4635
  301LIG     H2 4503   7.371   4.332   7.006  0.1598  0.5235 -1.1830
  301LIG     H3 4504   7.452   4.323   7.162  2.1187  0.1503 -0.1773
  301LIG     CA 4505   7.558   4.226   7.032 -0.3746  0.1920  0.1940
  301LIG     HA 4506   7.601   4.233   6.934  1.7237 -1.8623  0.8828
  301LIG     CB 4507   7.677   4.236   7.134 -0.1463 -0.2252  0.0491
  301LIG    HB1 4508   7.747   4.150   7.122  0.2753 -0.1052  1.4582
  301LIG    HB2 4509   7.642   4.232   7.239 -0.1446 -0.3680  0.0446
  301LIG     CG 4510   7.753   4.358   7.114 -1.0507 -0.3746 -0.8474
  301LIG    OD1 4511   7.787   4.430   7.214  0.1982  0.1383 -0.2723
  301LIG    OD2 4512   7.784   4.404   6.995 -0.1968 -0.0992  0.3006
  301LIG      C 4513   7.500   4.079   7.034  0.2367  0.3483  0.3609
  301LIG    OT1 4514   7.376   4.063   7.008 -0.2584 -0.3067  0.0517
  301LIG    OT2 4515   7.578   3.983   7.066 -0.5026  0.1446  0.4997
  302LIG      N 4516   8.227   4.458   9.643 -0.5633 -0.3339  0.5785
  302LIG     H1 4517   8.293   4.494   9.571 -1.3647 -0.7886 -0.4002
  302LIG     H2 4518   8.252   4.513   9.728  0.6281 -0.2166  0.1706
  302LIG     H3 4519   8.236   4.357   9.665 -0.5235 -0.5703 -0.4449
  302LIG     CA 4520   8.082   4.478   9.603 -0.1074 -0.6087 -0.2818
  302LIG     HA 4521   8.024   4.491   9.693  0.5008 -1.3940  0.2381
  302LIG     CB 4522   8.071   4.604   9.508  1.5781  0.4096  0.2445
  302LIG    HB1 4523   7.963   4.609   9.482  1.5366  0.1469  0.3625
  302LIG    HB2 4524   8.132   4.597   9.415 -2.1853  2.1954 -2.6176
  302LIG     CG 4525   8.103   4.729   9.591  0.4648  0.5103 -0.7090
  302LIG    OD1 4526   8.098   4.841   9.544  0.4437 -0.3122 -0.1487
  302LIG    OD2 4527   8.117   4.718   9.719  0.0014 -0.0191  0.4584
  302LIG      C 4528   8.026   4.351   9.535  0.7923 -0.0031  0.1809
  302LIG    OT1 4529   8.109   4.257   9.510  0.1216  0.0556 -0.1152
  302LIG    OT2 4530   7.904   4.337   9.502 -0.2385  0.0130 -0.1351
  303LIG      N 4531   5.969   9.692   0.574 -0.5464  0.2272  0.2504
  303LIG     H1 4532   5.990   9.781   0.523 -0.9427  0.8747  1.1890
  303LIG     H2 4533   5.900   9.718   0.647 -1.3352 -1.1590  0.0399
  303LIG     H3 4534   6.047   9.645   0.623 -1.8910 -2.0537  0.3477
  303LIG     CA 4535   5.913   9.592   0.479 -0.2696  0.2216  0.0750
  303LIG     HA 4536   6.002   9.561   0.426  0.0827  0.7899  0.3240
  303LIG     CB 4537   5.850   9.463   0.535  0.2833  0.7547  0.1009
  303LIG    HB1 4538   5.814   9.396   0.455 -0.5551  0.1955  0.9192
  303LIG    HB2 4539   5.759   9.482   0.596 -0.5654 -0.9379 -0.5694
  303LIG     CG 4540   5.953   9.385   0.613  0.3626  0.5310  0.0455
  303LIG    OD1 4541   6.068   9.425   0.615 -0.9409  0.3443  0.4479
  303LIG    OD2 4542   5.914   9.282   0.673 -0.0458 -0.2475  0.4579
  303LIG      C 4543   5.817   9.663   0.376  0.6548  0.7005  0.8335
  303LIG    OT1 4544   5.784   9.779   0.390  0.2966 -0.4106  0.1644
  303LIG    OT2 4545   5.761   9.587   0.284  0.1740 -0.8278 -0.5720
  304LIG      N 4546   8.050   0.896   1.554 -0.0019 -0.4905 -0.4265
  304LIG     H1 4547   8.131   0.895   1.619  0.7670 -0.3456 -1.3645
  304LIG     H2 4548   7.977   0.839   1.601  0.3592  0.0109  0.7784
  304LIG     H3 4549   8.083   0.853   1.466  1.0067  1.0576 -0.8482
  304LIG     CA 4550   8.011   1.036   1.512  0.4103  0.1120  0.1250
  304LIG     HA 4551   7.948   1.022   1.426  0.8597 -3.2692  0.2094
  304LIG     CB 4552   7.921   1.104   1.621 -0.1462 -0.6273 -0.1472
  304LIG    HB1 4553   7.905   1.210   1.595 -1.3054 -0.8763 -0.5297
  304LIG    HB2 4554   7.985   1.106   1.712  0.3440 -1.7130 -0.4517
  304LIG     CG 4555   7.792   1.023   1.640 -0.2049  0.1187 -0.1042
  304LIG    OD1 4556   7.710   1.068   1.727  0.5042  0.5139  0.2901
  304LIG    OD2 4557   7.763   0.917   1.573  0.6862 -0.2602 -0.0087
  304LIG      C 4558   8.126   1.131   1.475  0.2729 -0.1075 -0.0227
  304LIG    OT1 4559   8.243   1.109   1.506  0.3277 -0.4600  0.2851
  304LIG    OT2 4560   8.087   1.233   1.407  0.0768  0.1804  0.3521
  305LIG      N 4561   9.318   7.507   3.169 -0.6771  0.4370 -0.4612
  305LIG     H1 4562   9.388   7.484   3.242  1.1686  0.7418 -2.0520
  305LIG     H2 4563   9.229   7.453   3.177 -0.3648 -0.2520 -1.4235
  305LIG     H3 4564   9.359   7.489   3.075  2.0803 -2.2067  1.0432
  305LIG     CA 4565   9.289   7.652   3.177 -0.3749  0.3404 -0.7644
  305LIG     HA 4566   9.380   7.708   3.176 -0.8653  1.1758  0.0449
  305LIG     CB 4567   9.193   7.697   3.054  0.4965 -0.3496  0.0425
  305LIG    HB1 4568   9.162   7.803   3.069  2.0732  0.4756 -1.9478
  305LIG    HB2 4569   9.103   7.634   3.045  0.6673 -0.3921 -1.8769
  305LIG     CG 4570   9.269   7.675   2.930 -0.0315  0.3595 -0.2985
  305LIG    OD1 4571   9.211   7.685   2.817 -0.3763 -1.0752 -0.5441
  305LIG    OD2 4572   9.387   7.642   2.934  0.0557 -0.3400  0.4312
  305LIG      C 4573   9.211   7.679   3.306 -0.3141  0.4406 -0.0282
  305LIG    OT1 4574   9.182   7.591   3.390  0.1938  0.1733 -0.1900
  305LIG    OT2 4575   9.156   7.793   3.303  0.7063 -0.6118 -0.8250
  306LIG      N 4576   5.414   3.544   0.991 -0.3445  0.1483  0.1604
  306LIG     H1 4577   5.499   3.595   0.959 -1.0042  0.3744 -1.3029
  306LIG     H2 4578   5.376   3.613   1.060 -3.7411  0.3658 -1.7100
  306LIG     H3 4579   5.438   3.453   1.036 -0.3168 -0.1512 -0.4558
  306LIG     CA 4580   5.326   3.519   0.876 -0.6098 -0.0740  0.4189
  306LIG     HA 4581   5.298   3.613   0.831 -0.4095 -0.1132  0.2021
  306LIG     CB 4582   5.394   3.425   0.763  0.7044 -0.4558 -0.2824
  306LIG    HB1 4583   5.328   3.414   0.674 -0.1579 -0.8159  0.3800
  306LIG    HB2 4584   5.426   3.326   0.802  0.3438  0.1083  1.5466
  306LIG     CG 4585   5.518   3.493   0.709  0.4058  0.0636  0.1238
  306LIG    OD1 4586   5.612   3.416   0.680  0.2792 -0.1053 -0.5654
  306LIG    OD2 4587   5.516   3.615   0.686  0.0722  0.0750 -0.5113
  306LIG      C 4588   5.190   3.464   0.907  0.2364 -0.5720  0.1490
  306LIG    OT1 4589   5.153   3.441   1.028 -0.0834  0.7415  0.2630
  306LIG    OT2 4590   5.114   3.451   0.809  0.0853 -0.5080 -0.2596
  307LIG      N 4591   5.022   1.534   0.813 -0.8970  0.5386  0.4374
  307LIG     H1 4592   5.053   1.615   0.871  0.0280 -0.0006  0.7119
  307LIG     H2 4593   4.989   1.460   0.879 -1.6105 -0.8795 -1.4214
  307LIG     H3 4594   5.103   1.498   0.759  0.6251  1.4031  2.0108
  307LIG     CA 4595   4.908   1.572   0.723  0.5797  0.1179  0.2018
  307LIG     HA 4596   4.880   1.487   0.663 -4.3371  1.9940 -0.6489
  307LIG     CB 4597   4.793   1.617   0.823  0.2402  1.1195  0.3457
  307LIG    HB1 4598   4.721   1.679   0.766 -1.5469  1.5638  2.9063
  307LIG    HB2 4599   4.834   1.682   0.903  2.2357  0.7377 -0.3112
  307LIG     CG 4600   4.727   1.501   0.895  0.1284 -0.3491  1.3061
  307LIG    OD1 4601   4.617   1.522   0.948  0.4048  0.2911  0.0322
  307LIG    OD2 4602   4.787   1.391   0.888 -0.4652  0.5121  0.4566
  307LIG      C 4603   4.943   1.683   0.621 -0.2204 -0.1848 -0.5693
  307LIG    OT1 4604   5.050   1.751   0.630  0.6450  0.1630 -0.5165
  307LIG    OT2 4605   4.860   1.707   0.526 -0.9619 -0.4727  0.1481
  308LIG      N 4606   0.849   0.998   4.575  0.8512  0.2044 -0.1772
  308LIG     H1 4607   0.904   1.046   4.500  0.4368  0.1349 -0.5300
  308LIG     H2 4608   0.905   0.925   4.623 -1.5703 -1.0843  0.8593
  308LIG     H3 4609   0.770   0.959   4.521  0.4983  0.2349  0.3109
  308LIG     CA 4610   0.806   1.098   4.676 -0.5887 -0.3222  0.5661
  308LIG     HA 4611   0.890   1.163   4.696 -0.4993 -0.9706  2.5153
  308LIG     CB 4612   0.677   1.175   4.639  0.5409 -0.3233  0.4507
  308LIG    HB1 4613   0.638   1.239   4.720 -0.8673 -1.1627  0.4626
  308LIG    HB2 4614   0.593   1.104   4.623 -0.9716  1.7136 -1.0561
  308LIG     CG 4615   0.703   1.265   4.519 -0.4941  0.1306  0.0964
  308LIG    OD1 4616   0.827   1.286   4.484  0.0728 -0.8100 -0.2619
  308LIG    OD2 4617   0.604   1.319   4.469  0.3031 -0.7564 -0.8785
  308LIG      C 4618   0.766   1.037   4.818 -0.4766  0.2534  1.0711
  308LIG    OT1 4619   0.782   0.911   4.839 -0.9719  0.2722  0.0285
  308LIG    OT2 4620   0.717   1.105   4.910  0.3894  0.5282 -0.3441
  309LIG      N 4621   7.741   2.750   2.019  0.3030 -0.3127  0.1724
  309LIG     H1 4622   7.734   2.743   2.122  2.6190 -0.3875  0.3764
  309LIG     H2 4623   7.645   2.781   1.993  0.9149  0.4718 -1.2006
  309LIG     H3 4624   7.761   2.660   1.971  0.1973 -0.2412 -0.0064
  309LIG     CA 4625   7.844   2.851   1.999  0.2406 -0.3437  0.8259
  309LIG     HA 4626   7.840   2.858   1.891 -1.1235 -0.5292  0.8433
  309LIG     CB 4627   7.786   2.985   2.055  0.4625  0.4969 -0.0353
  309LIG    HB1 4628   7.869   3.057   2.068  0.2210  0.6812  0.5512
  309LIG    HB2 4629   7.742   2.976   2.157  3.7400  3.6103  1.8759
  309LIG     CG 4630   7.683   3.044   1.961  0.1582  0.4701  0.3549
  309LIG    OD1 4631   7.649   2.982   1.858  0.2308 -0.1906  0.0846
  309LIG    OD2 4632   7.626   3.149   1.993  0.0985  0.4193 -1.0456
  309LIG      C 4633   7.978   2.827   2.048 -0.8598 -0.0232  0.0042
  309LIG    OT1 4634   7.992   2.731   2.134  0.8375  0.1466  0.2827
  309LIG    OT2 4635   8.078   2.887   2.007 -0.6339  0.5099  0.1527
  310LIG      N 4636   7.017   1.700   6.414  0.0578 -0.0376 -0.3386
  310LIG     H1 4637   7.097   1.638   6.440  0.5806  1.4156  1.7932
  310LIG     H2 4638   6.926   1.651   6.427 -0.4443  1.0421  0.3876
  310LIG     H3 4639   7.025   1.733   6.316 -2.2332 -2.0876 -1.3134
  310LIG     CA 4640   7.014   1.824   6.513 -0.3147  0.8531  0.2041
  310LIG     HA 4641   7.113   1.852   6.544 -0.1981 -0.6442  1.2981
  310LIG     CB 4642   6.962   1.954   6.442  0.1858 -0.4181  0.1590
  310LIG    HB1 4643   6.977   2.043   6.506  1.2573 -0.8651  0.5542
  310LIG    HB2 4644   6.852   1.945   6.429 -0.0194 -1.2116  2.0910
  310LIG     CG 4645   7.038   1.992   6.318 -0.3762 -0.2716  0.2313
  310LIG    OD1 4646   7.154   1.944   6.296  0.3260  0.6011  0.3671
  310LIG    OD2 4647   6.985   2.069   6.240  0.7114  0.1321  0.4673
  310LIG      C 4648   6.929   1.792   6.648  0.0207 -0.1901 -0.5751
  310LIG    OT1 4649   6.871   1.683   6.650 -0.3082 -0.0793  0.9122
  310LIG    OT2 4650   6.919   1.882   6.734 -0.1771 -0.1493 -0.0365
  311LIG      N 4651   3.150   4.951   9.495  0.4048  0.5142  0.2397
  311LIG     H1 4652   3.173   4.934   9.595  0.3574  0.5565  0.2582
  311LIG     H2 4653   3.173   5.051   9.480  0.2484  0.8974  2.2837
  311LIG     H3 4654   3.049   4.935   9.474  0.6282  2.0898 -2.4363
  311LIG     CA 4655   3.235   4.868   9.403 -0.4302 -0.4334  0.3263
  311LIG     HA 4656   3.332   4.878   9.448 -1.6786  2.2253  2.7965
  311LIG     CB 4657   3.171   4.730   9.408 -0.1765  0.7231 -0.1509
  311LIG    HB1 4658   3.071   4.718   9.359 -0.5040 -4.2075  1.1733
  311LIG    HB2 4659   3.162   4.692   9.512 -0.1027 -0.6006 -0.6117
  311LIG     CG 4660   3.269   4.633   9.348 -0.6071  0.2738  0.3412
  311LIG    OD1 4661   3.230   4.538   9.278 -0.1470 -0.2539 -0.9086
  311LIG    OD2 4662   3.386   4.638   9.393  0.8459 -0.3741 -0.2548
  311LIG      C 4663   3.223   4.931   9.259 -0.3086 -0.4862 -0.2457
  311LIG    OT1 4664   3.150   5.034   9.238 -0.1679 -0.4440  0.1747
  311LIG    OT2 4665   3.291   4.886   9.161  0.0866 -0.3557 -0.0658
  312LIG      N 4666   5.647   3.189   4.400  0.0197 -1.1948  0.1275
  312LIG     H1 4667   5.706   3.238   4.330 -1.8826 -1.4892 -1.7834
  312LIG     H2 4668   5.572   3.167   4.332  0.7203  2.4985 -2.1330
  312LIG     H3 4669   5.617   3.252   4.478 -1.4049 -0.6873 -0.7858
  312LIG     CA 4670   5.710   3.059   4.433 -0.7167 -0.1612  0.6613
  312LIG     HA 4671   5.647   3.006   4.502 -0.8398  0.0172  0.6848
  312LIG     CB 4672   5.728   2.982   4.297  0.0392  0.5795  0.3100
  312LIG    HB1 4673   5.789   2.890   4.305 -1.6009 -0.4629  1.6979
  312LIG    HB2 4674   5.775   3.049   4.222 -1.7563  1.8407  0.2440
  312LIG     CG 4675   5.596   2.944   4.236  0.3008 -0.0537 -0.7554
  312LIG    OD1 4676   5.499   3.022   4.246 -0.0154 -0.2412 -0.1866
  312LIG    OD2 4677   5.584   2.844   4.164 -0.5981 -0.2063 -0.2873
  312LIG      C 4678   5.851   3.074   4.496  0.5488 -0.0528 -0.2721
  312LIG    OT1 4679   5.909   3.183   4.527  0.2218 -0.2686  0.0463
  312LIG    OT2 4680   5.899   2.968   4.536 -0.0307  0.2351 -0.0329
  313LIG      N 4681   5.726   3.669   4.579 -0.2482  0.6407  0.2323
  313LIG     H1 4682   5.803   3.642   4.645  1.9893  2.0814 -1.6213
  313LIG     H2 4683   5.718   3.594   4.508 -1.7616  0.8132  0.1948
  313LIG     H3 4684   5.744   3.756   4.525 -2.4888  1.5923  0.8883
  313LIG     CA 4685   5.589   3.675   4.646 -0.2517 -0.1571 -0.1692
  313LIG     HA 4686   5.522   3.705   4.566 -1.7768  0.8783  1.4307
  313LIG     CB 4687   5.546   3.534   4.712  0.2093 -0.6690 -0.4930
  313LIG    HB1 4688   5.446   3.552   4.755  0.4518  2.1866 -0.9091
  313LIG    HB2 4689   5.620   3.498   4.787  2.0574 -0.5160 -2.1393
  313LIG     CG 4690   5.544   3.424   4.604 -0.8627  0.5885 -0.2858
  313LIG    OD1 4691   5.577   3.458   4.490 -0.7150  0.3946 -0.4104
  313LIG    OD2 4692   5.530   3.306   4.645 -0.1128 -0.2424  0.2419
  313LIG      C 4693   5.575   3.790   4.753  0.0161  0.2314  0.0690
  313LIG    OT1 4694   5.665   3.872   4.771 -0.0846 -0.1214  0.4001
  313LIG    OT2 4695   5.463   3.796   4.813  0.4941  0.4804 -0.3293
  314LIG      N 4696   1.888   4.775   4.136  0.1792  0.2440 -0.6332
  314LIG     H1 4697   1.985   4.782   4.171  0.2128  1.6669 -0.9495
  314LIG     H2 4698   1.846   4.871   4.132  1.0318  0.7707  1.7584
  314LIG     H3 4699   1.831   4.713   4.197 -0.1811  0.1875 -1.0228
  314LIG     CA 4700   1.892   4.720   3.992  0.3888 -0.1246 -0.9174
  314LIG     HA 4701   1.800   4.747   3.944  1.5572 -0.8651 -3.7543
  314LIG     CB 4702   2.018   4.784   3.916 -0.2738  0.3648  0.1811
  314LIG    HB1 4703   2.028   4.724   3.823 -0.9977  0.4817  0.0197
  314LIG    HB2 4704   2.117   4.781   3.966 -0.4775  1.2931  0.6707
  314LIG     CG 4705   1.976   4.920   3.869 -0.5266 -0.5870 -0.6353
  314LIG    OD1 4706   1.860   4.963   3.889  0.3901 -0.0659 -0.2836
  314LIG    OD2 4707   2.057   4.996   3.816  0.2655 -0.4659 -0.7454
  314LIG      C 4708   1.901   4.563   3.998  0.7206 -0.0800 -0.2519
  314LIG    OT1 4709   1.901   4.496   4.101  0.7728  0.8773  0.0685
  314LIG    OT2 4710   1.909   4.509   3.883  0.3410  0.2273 -0.0500
  315LIG      N 4711   5.783   5.294   8.251  0.1648  0.1289 -0.1190
  315LIG     H1 4712   5.886   5.282   8.255  0.5833  3.0901  0.5255
  315LIG     H2 4713   5.751   5.210   8.199  1.5036  0.4894 -1.5822
  315LIG     H3 4714   5.768   5.385   8.202 -0.2713  0.3518  0.4179
  315LIG     CA 4715   5.708   5.300   8.378  0.0825 -0.4458 -0.0688
  315LIG     HA 4716   5.743   5.223   8.446 -0.3751 -0.6370 -0.0417
  315LIG     CB 4717   5.743   5.432   8.445  0.5214 -0.1517 -0.0051
  315LIG    HB1 4718   5.678   5.447   8.533  0.4444  0.3818 -0.1506
  315LIG    HB2 4719   5.720   5.516   8.375 -0.1644 -1.1297 -1.0022
  315LIG     CG 4720   5.886   5.442   8.489  0.2413  0.6480 -0.2505
  315LIG    OD1 4721   5.935   5.555   8.492  0.1190 -0.1779  0.0730
  315LIG    OD2 4722   5.952   5.344   8.518  0.2441 -0.0142  0.0605
  315LIG      C 4723   5.556   5.277   8.357  0.3203  0.3567  0.6664
  315LIG    OT1 4724   5.516   5.265   8.239  0.1300 -0.4811  0.6829
  315LIG    OT2 4725   5.472   5.269   8.451  0.1006  0.2472  0.1214
  316LIG      N 4726   7.873   0.808   6.666 -0.0881 -0.4434  0.2556
  316LIG     H1 4727   7.854   0.895   6.612  3.2802  0.4698  0.2908
  316LIG     H2 4728   7.904   0.738   6.595 -1.3206  1.2825 -2.1054
  316LIG     H3 4729   7.782   0.780   6.708  0.1328  1.3970  2.0998
  316LIG     CA 4730   7.967   0.838   6.772 -0.4867  0.3874  0.3686
  316LIG     HA 4731   8.059   0.870   6.725  1.4495  0.1155  3.6354
  316LIG     CB 4732   7.925   0.958   6.863  0.3799  0.4444 -0.1647
  316LIG    HB1 4733   8.005   0.982   6.937  0.1535  0.8239 -0.0346
  316LIG    HB2 4734   7.825   0.943   6.909  0.1468  1.9645 -0.1017
  316LIG     CG 4735   7.913   1.083   6.782  0.5255  0.1659  0.0323
  316LIG    OD1 4736   7.889   1.087   6.653 -1.4473 -0.3540 -0.1787
  316LIG    OD2 4737   7.913   1.197   6.841 -0.0666  0.5804 -0.2344
  316LIG      C 4738   7.997   0.708   6.859  0.7128 -0.3191  0.0207
  316LIG    OT1 4739   7.943   0.598   6.834  0.2443 -0.1117 -0.5932
  316LIG    OT2 4740   8.085   0.732   6.945 -0.9927  0.5020  0.0337
  317LIG      N 4741   0.614   2.858   2.232  0.5500  0.5879 -0.4013
  317LIG     H1 4742   0.520   2.870   2.189 -0.4622 -1.5935  1.0519
  317LIG     H2 4743   0.609   2.872   2.335  1.2912  1.9720 -0.5251
  317LIG     H3 4744   0.662   2.947   2.205 -2.1121  2.8738  1.7221
  317LIG     CA 4745   0.677   2.732   2.189  0.0080 -0.1436 -0.0504
  317LIG     HA 4746   0.612   2.654   2.227  1.2547 -0.8322  0.7556
  317LIG     CB 4747   0.677   2.742   2.031 -0.2462 -0.1233 -0.3425
  317LIG    HB1 4748   0.769   2.802   2.012 -1.1132  1.6386  0.7110
  317LIG    HB2 4749   0.587   2.794   1.990  0.6401  1.1578 -0.7375
  317LIG     CG 4750   0.682   2.605   1.969 -0.1877  0.1424  0.3786
  317LIG    OD1 4751   0.589   2.522   1.992 -0.2403  0.7374 -0.3996
  317LIG    OD2 4752   0.783   2.576   1.901 -0.2494 -0.2763  0.2699
  317LIG      C 4753   0.818   2.707   2.251 -0.5958  0.0735  0.0289
  317LIG    OT1 4754   0.867   2.800   2.321  0.0995  0.4009  0.2703
  317LIG    OT2 4755   0.887   2.606   2.221  0.6149 -0.4986 -0.1345
  318LIG      N 4756   1.735   2.790   7.166 -0.3027  0.3500  0.9081
  318LIG     H1 4757   1.817   2.772   7.228  1.1498 -0.6189 -1.1838
  318LIG     H2 4758   1.743   2.719   7.091  1.7028 -0.1170  1.5091
  318LIG     H3 4759   1.736   2.885   7.123 -0.4873 -0.4143 -0.8442
  318LIG     CA 4760   1.612   2.766   7.247  0.5151  0.4192  0.1134
  318LIG     HA 4761   1.639   2.691   7.320 -1.5183 -0.0910  0.4150
  318LIG     CB 4762   1.576   2.899   7.328 -0.0838  0.2573 -0.1901
  318LIG    HB1 4763   1.490   2.871   7.392 -0.2660 -0.5115 -0.7489
  318LIG    HB2 4764   1.541   2.977   7.257 -1.4128  0.4885  0.6917
  318LIG     CG 4765   1.688   2.945   7.416  0.3781  0.8268  0.5949
  318LIG    OD1 4766   1.671   3.056   7.471 -0.4150 -0.0010  0.6864
  318LIG    OD2 4767   1.792   2.876   7.432 -0.2424 -0.0239 -0.3092
  318LIG      C 4768   1.480   2.727   7.171 -0.1699  0.5038 -1.0578
  318LIG    OT1 4769   1.480   2.721   7.047 -0.1374  0.4785 -0.5425
  318LIG    OT2 4770   1.376   2.689   7.230 -0.1443  0.3310  0.1320
  319LIG      N 4771   8.487   8.180   1.699 -0.0266  0.3644 -0.6731
  319LIG     H1 4772   8.426   8.130   1.632  1.9803 -2.7526 -0.3891
  319LIG     H2 4773   8.492   8.283   1.691 -0.8292  0.6128  1.3951
  319LIG     H3 4774   8.579   8.130   1.692 -0.6900 -0.8729 -0.8002
  319LIG     CA 4775   8.426   8.139   1.831  0.3579 -0.7891 -0.1766
  319LIG     HA 4776   8.331   8.190   1.837  0.4380 -0.5648 -0.6992
  319LIG     CB 4777   8.394   7.987   1.834 -0.3988 -0.2335  0.0017
  319LIG    HB1 4778   8.333   7.967   1.925 -0.0176 -1.9971 -0.0876
  319LIG    HB2 4779   8.491   7.933   1.831 -0.3267 -0.3053  2.0493
  319LIG     CG 4780   8.309   7.934   1.720 -0.7890  0.3475 -0.0539
  319LIG    OD1 4781   8.273   8.007   1.625 -0.2686  0.0391 -0.2484
  319LIG    OD2 4782   8.282   7.810   1.726 -0.4934 -0.2705  0.6933
  319LIG      C 4783   8.504   8.196   1.952 -0.3892  0.1604 -0.4387
  319LIG    OT1 4784   8.617   8.244   1.938  0.0598  0.4573 -0.3932
  319LIG    OT2 4785   8.458   8.180   2.070 -0.1843 -0.1286  0.1571
  320LIG      N 4786   6.909   5.118   7.388 -0.0932  0.5638 -0.3718
  320LIG     H1 4787   6.808   5.114   7.363 -0.7173  1.2187  1.7742
  320LIG     H2 4788   6.932   5.044   7.457  1.7423  2.1746  0.8637
  320LIG     H3 4789   6.905   5.213   7.432 -0.5669  0.1272  0.5544
  320LIG     CA 4790   7.005   5.125   7.272 -0.7601 -0.9000 -0.1857
  320LIG     HA 4791   6.998   5.047   7.197 -1.2580 -1.0121 -0.0219
  320LIG     CB 4792   6.968   5.261   7.194 -0.0098  0.9077  0.2667
  320LIG    HB1 4793   7.046   5.272   7.116  0.6327 -1.0455  0.5770
  320LIG    HB2 4794   6.970   5.353   7.257 -1.4224  1.0607  0.1114
  320LIG     CG 4795   6.842   5.235   7.116  0.1358  0.0844 -0.1552
  320LIG    OD1 4796   6.807   5.119   7.080 -0.4596  0.9219  0.2831
  320LIG    OD2 4797   6.785   5.342   7.077 -0.1613 -0.5426 -0.3255
  320LIG      C 4798   7.155   5.133   7.313  0.3365  0.1156  1.0284
  320LIG    OT1 4799   7.189   5.144   7.428 -0.6908 -0.2191 -0.2623
  320LIG    OT2 4800   7.239   5.123   7.214  0.0312  0.2971  0.8399
  321LIG      N 4801   5.766   5.755   8.981  0.0828  0.1310 -0.2128
  321LIG     H1 4802   5.683   5.815   8.965  0.2464  1.0211  1.8774
  321LIG     H2 4803   5.798   5.694   8.904  2.4413 -0.5894  1.2187
  321LIG     H3 4804   5.740   5.687   9.056 -0.2879  0.6795  0.1710
  321LIG     CA 4805   5.878   5.834   9.023 -0.4703 -0.6926  0.3233
  321LIG     HA 4806   5.831   5.901   9.094 -0.3163 -0.6766  0.4103
  321LIG     CB 4807   5.987   5.744   9.094 -0.3397  0.3955  0.6141
  321LIG    HB1 4808   6.083   5.798   9.104  0.4547 -1.0995  1.2618
  321LIG    HB2 4809   6.011   5.656   9.031  1.2272  2.0852 -1.3274
  321LIG     CG 4810   5.946   5.707   9.231 -0.7862 -0.4681 -0.6033
  321LIG    OD1 4811   6.023   5.679   9.328 -0.3423  0.2821  0.7394
  321LIG    OD2 4812   5.825   5.691   9.240  0.4917  0.0650 -0.2985
  321LIG      C 4813   5.934   5.916   8.900  0.4315  0.1056 -0.4112
  321LIG    OT1 4814   5.879   5.882   8.788  0.3356 -0.2286  0.2407
  321LIG    OT2 4815   6.009   6.016   8.914  0.7718 -0.0351 -0.0831
  322LIG      N 4816   0.491   6.031   0.142 -0.1670 -0.7734  0.5950
  322LIG     H1 4817   0.418   6.026   0.215 -1.3657 -0.4143 -0.5418
  322LIG     H2 4818   0.462   6.117   0.092 -1.8404 -0.2520  2.3441
  322LIG     H3 4819   0.478   5.948   0.080  0.2109 -0.9917  0.8049
  322LIG     CA 4820   0.613   6.065   0.215 -0.5820  0.0546 -0.1991
  322LIG     HA 4821   0.695   6.111   0.163  0.5535 -1.5233  0.1169
  322LIG     CB 4822   0.575   6.177   0.321  0.7312 -0.6699 -0.4594
  322LIG    HB1 4823   0.656   6.210   0.390 -0.3627  1.3487 -0.0501
  322LIG    HB2 4824   0.483   6.142   0.373 -1.1511  0.5752 -2.7109
  322LIG     CG 4825   0.526   6.310   0.261  0.0132 -0.1786  0.1311
  322LIG    OD1 4826   0.485   6.407   0.331 -0.6476  0.3835  0.1621
  322LIG    OD2 4827   0.532   6.327   0.135 -0.0520 -0.3825  0.5218
  322LIG      C 4828   0.685   5.925   0.268  0.6340  0.0694 -0.0424
  322LIG    OT1 4829   0.652   5.816   0.213  0.1092  0.0305 -0.2677
  322LIG    OT2 4830   0.772   5.931   0.355 -0.0698  0.4939 -0.0975
  323LIG      N 4831   7.394   2.796   2.924 -1.1992 -0.2357  0.8281
  323LIG     H1 4832   7.293   2.785   2.945 -1.8853  3.1044 -0.1632
  323LIG     H2 4833   7.452   2.836   3.001 -1.3899  1.6421  0.0454
  323LIG     H3 4834   7.394   2.852   2.836  1.8968 -2.5121 -0.8106
  323LIG     CA 4835   7.450   2.665   2.881 -0.4084 -0.0167  0.2220
  323LIG     HA 4836   7.451   2.614   2.976 -1.8109  0.6430  0.6133
  323LIG     CB 4837   7.373   2.606   2.753  0.2933 -0.7380 -0.2875
  323LIG    HB1 4838   7.429   2.519   2.713  2.3265  0.4024 -0.0590
  323LIG    HB2 4839   7.356   2.686   2.678  1.5787 -0.8445 -0.7122
  323LIG     CG 4840   7.249   2.545   2.795 -0.0942  0.2066 -0.3061
  323LIG    OD1 4841   7.155   2.525   2.713  0.0886  0.9142 -0.9073
  323LIG    OD2 4842   7.240   2.501   2.913 -0.2308 -0.3389  0.7061
  323LIG      C 4843   7.602   2.666   2.845 -0.2176  0.3680  0.1151
  323LIG    OT1 4844   7.671   2.773   2.849 -0.3431 -0.0366 -0.6433
  323LIG    OT2 4845   7.664   2.560   2.807 -0.2402 -0.1598  0.0591
  324LIG      N 4846   7.142   5.561   4.945 -0.7087  0.2703  0.4872
  324LIG     H1 4847   7.055   5.617   4.940  0.3869  1.9212 -2.4924
  324LIG     H2 4848   7.152   5.501   5.030  1.2502  1.8454  1.4613
  324LIG     H3 4849   7.227   5.615   4.917 -1.2380  1.8083  1.7539
  324LIG     CA 4850   7.113   5.458   4.835 -0.2502  0.3752 -0.0932
  324LIG     HA 4851   7.028   5.397   4.862  0.2309 -0.8287 -1.1849
  324LIG     CB 4852   7.079   5.528   4.704  0.3835  0.1652 -0.1319
  324LIG    HB1 4853   7.057   5.445   4.633  0.5196 -1.2644  1.4320
  324LIG    HB2 4854   7.158   5.602   4.678 -1.2961  2.3108  0.5600
  324LIG     CG 4855   6.952   5.611   4.704  0.4365  0.3839 -0.8098
  324LIG    OD1 4856   6.904   5.637   4.816 -0.4854 -0.1326 -0.3867
  324LIG    OD2 4857   6.907   5.655   4.595 -0.4095  0.0486  0.1810
  324LIG      C 4858   7.242   5.369   4.803  1.2520 -0.5425 -0.2725
  324LIG    OT1 4859   7.339   5.376   4.878 -0.0434  0.2758 -0.1516
  324LIG    OT2 4860   7.230   5.298   4.703 -0.3563  0.0606 -0.7990
  325LIG      N 4861   7.031   7.933   5.296  0.3665  0.0286  0.4313
  325LIG     H1 4862   6.955   7.960   5.231 -0.4130 -1.9559  0.4548
  325LIG     H2 4863   7.009   7.851   5.356  0.0410 -0.8301 -0.8041
  325LIG     H3 4864   7.051   8.008   5.364  1.2293  0.6661 -0.5035
  325LIG     CA 4865   7.140   7.903   5.199  0.0186  0.0980  0.7399
  325LIG     HA 4866   7.093   7.830   5.134 -1.4174  1.1753  0.5096
  325LIG     CB 4867   7.163   8.033   5.115  0.1808  0.0790 -0.1226
  325LIG    HB1 4868   7.244   8.012   5.042  1.0462  3.0320 -0.1048
  325LIG    HB2 4869   7.190   8.117   5.182  1.1285  0.9667 -1.5832
  325LIG     CG 4870   7.034   8.068   5.042 -0.2765  0.5824 -0.1786
  325LIG    OD1 4871   7.038   8.159   4.953  0.5247  0.1402  0.2255
  325LIG    OD2 4872   6.923   8.015   5.070  0.2345  0.1396 -0.0006
  325LIG      C 4873   7.273   7.845   5.260  0.4308  0.3027 -0.9934
  325LIG    OT1 4874   7.277   7.812   5.383 -0.6802 -0.0874  0.1400
  325LIG    OT2 4875   7.374   7.835   5.188  0.0863  0.3226 -0.3062
  326LIG      N 4876   1.789   5.143   5.465  0.3898 -0.2553 -0.4784
  326LIG     H1 4877   1.746   5.107   5.553  0.7030  1.1339  0.2754
  326LIG     H2 4878   1.776   5.244   5.446 -0.8175 -0.7147 -2.4426
  326LIG     H3 4879   1.737   5.088   5.393  0.4176 -3.8477  1.9674
  326LIG     CA 4880   1.927   5.085   5.444  0.0557 -0.2279  0.4872
  326LIG     HA 4881   1.915   4.978   5.449  1.2082 -0.3974 -0.0697
  326LIG     CB 4882   1.974   5.129   5.301  0.3591 -0.8663  0.2083
  326LIG    HB1 4883   2.027   5.227   5.300 -1.9647  0.5636  2.9150
  326LIG    HB2 4884   1.888   5.135   5.231 -1.3448  0.3967  2.2722
  326LIG     CG 4885   2.060   5.019   5.233  0.6168  0.1292 -0.8534
  326LIG    OD1 4886   2.079   4.906   5.288  0.5364 -0.0789  0.9183
  326LIG    OD2 4887   2.113   5.051   5.128  0.3675  0.2507  0.0864
  326LIG      C 4888   2.034   5.128   5.549 -0.5501 -0.2788  0.6614
  326LIG    OT1 4889   2.007   5.191   5.650  0.1935  0.3759  0.0890
  326LIG    OT2 4890   2.156   5.095   5.525 -0.3091  0.0956 -0.0025
  327LIG      N 4891   0.131   0.167   3.664 -0.2123  0.1708  0.1419
  327LIG     H1 4892   0.114   0.222   3.751  1.2683  1.0906 -0.1234
  327LIG     H2 4893   0.041   0.151   3.615 -0.6950 -1.3179  1.4367
  327LIG     H3 4894   0.178   0.079   3.693 -2.8581 -0.7887  1.9313
  327LIG     CA 4895   0.239   0.235   3.575  0.3183  0.4266 -0.5007
  327LIG     HA 4896   0.237   0.202   3.473  3.9198 -0.1420 -0.5440
  327LIG     CB 4897   0.237   0.389   3.587 -0.7067 -0.0378 -0.3766
  327LIG    HB1 4898   0.321   0.439   3.533 -1.0958  0.3453 -0.6299
  327LIG    HB2 4899   0.248   0.411   3.695 -0.4002  0.3236 -0.4763
  327LIG     CG 4900   0.110   0.452   3.532 -0.0997  1.1275  0.5044
  327LIG    OD1 4901   0.083   0.570   3.545 -0.2317 -0.1361 -0.2373
  327LIG    OD2 4902   0.042   0.365   3.461  0.3371 -0.6660 -0.9597
  327LIG      C 4903   0.389   0.202   3.617 -0.5440  0.4938  0.3190
  327LIG    OT1 4904   0.415   0.125   3.715  0.6426  0.6540  0.0512
  327LIG    OT2 4905   0.480   0.248   3.540  0.0971  0.2785 -0.0370
  328LIG      N 4906   7.543   2.986   4.057  1.0434 -0.3286  0.3715
  328LIG     H1 4907   7.529   3.085   4.027 -1.2296 -0.5981  0.3746
  328LIG     H2 4908   7.599   2.978   4.145  1.3453  0.0432  0.2156
  328LIG     H3 4909   7.582   2.925   3.982 -1.8222 -1.9741  0.0583
  328LIG     CA 4910   7.403   2.935   4.090 -0.8590 -0.2663  0.1100
  328LIG     HA 4911   7.365   2.999   4.169  2.9212  0.9283  1.1865
  328LIG     CB 4912   7.315   2.943   3.964  0.1275  0.6182 -0.6810
  328LIG    HB1 4913   7.212   2.904   3.980  0.7301 -0.6175  0.3387
  328LIG    HB2 4914   7.354   2.872   3.888 -0.2736 -0.9888  0.5703
  328LIG     CG 4915   7.289   3.080   3.916 -0.8477 -0.3019 -0.2539
  328LIG    OD1 4916   7.197   3.102   3.837  0.1322  0.1597 -0.0535
  328LIG    OD2 4917   7.369   3.165   3.968 -1.5492 -0.0425 -0.3872
  328LIG      C 4918   7.415   2.796   4.147  0.0610 -0.3468  0.1648
  328LIG    OT1 4919   7.527   2.746   4.188  0.2368  0.0382 -0.1258
  328LIG    OT2 4920   7.303   2.732   4.166  0.1782 -0.0711  0.2637
  329LIG      N 4921   3.018   3.172   8.401  0.8225 -0.0557 -0.0820
  329LIG     H1 4922   3.033   3.128   8.308  1.5221 -2.1004  0.9416
  329LIG     H2 4923   3.114   3.191   8.434  1.1171 -0.4742 -0.6611
  329LIG     H3 4924   2.968   3.109   8.467  0.7935  3.3451  3.4227
  329LIG     CA 4925   2.940   3.297   8.378  0.0980  0.3885  0.2179
  329LIG     HA 4926   2.924   3.339   8.476 -2.6737 -1.8333  0.8419
  329LIG     CB 4927   3.016   3.398   8.290  0.0727 -0.0599  0.4783
  329LIG    HB1 4928   2.954   3.488   8.309 -1.5711 -1.0680  0.0987
  329LIG    HB2 4929   3.010   3.376   8.181 -0.6505 -2.8687  0.9941
  329LIG     CG 4930   3.151   3.437   8.338 -0.0120 -1.3448  0.4114
  329LIG    OD1 4931   3.201   3.368   8.432 -0.1593 -0.2761  0.7050
  329LIG    OD2 4932   3.211   3.540   8.290 -0.6110  0.0468  0.0413
  329LIG      C 4933   2.793   3.266   8.323 -0.3364  0.0995  0.6479
  329LIG    OT1 4934   2.746   3.153   8.300  0.1693 -0.2623  0.3236
  329LIG    OT2 4935   2.724   3.369   8.293 -0.1829 -0.0745 -0.4215
  330LIG      N 4936   9.586   3.948   1.050  0.0646  0.4037  0.1411
  330LIG     H1 4937   9.503   3.905   1.096  0.4197  1.5456  1.9616
  330LIG     H2 4938   9.598   3.896   0.961 -0.4325 -0.6028  0.6445
  330LIG     H3 4939   9.666   3.921   1.111  0.0513  2.0602  0.9407
  330LIG     CA 4940   9.586   4.089   1.019 -0.0174  0.1986 -0.1586
  330LIG     HA 4941   9.485   4.122   1.005 -0.3944  0.1836  2.0941
  330LIG     CB 4942   9.633   4.175   1.136 -0.0530  0.0607 -0.2820
  330LIG    HB1 4943   9.614   4.282   1.114  0.5147  0.0637 -0.7659
  330LIG    HB2 4944   9.742   4.157   1.149 -0.4099 -3.4474 -1.0961
  330LIG     CG 4945   9.565   4.152   1.270 -0.2762  0.0326 -0.7194
  330LIG    OD1 4946   9.605   4.212   1.370 -0.1391 -0.3730 -0.3444
  330LIG    OD2 4947   9.472   4.062   1.277 -0.3719 -0.7906  0.3442
  330LIG      C 4948   9.669   4.108   0.894 -0.9386 -0.0718  1.2402
  330LIG    OT1 4949   9.722   4.008   0.833  0.0910 -0.1202  0.3571
  330LIG    OT2 4950   9.681   4.223   0.845 -0.4494 -0.3792 -0.4572
  331LIG      N 4951   9.570   0.568   3.573  0.5963 -0.6563  0.4045
  331LIG     H1 4952   9.527   0.617   3.492  0.0158 -2.0250 -0.1367
  331LIG     H2 4953   9.669   0.597   3.569  1.0394 -1.3982  3.4901
  331LIG     H3 4954   9.564   0.466   3.557 -2.0612 -0.6798  1.0099
  331LIG     CA 4955   9.505   0.608   3.702  0.6841  0.2735 -0.8425
  331LIG     HA 4956   9.400   0.583   3.691  1.1612 -2.8449  0.6346
  331LIG     CB 4957   9.573   0.529   3.828 -0.1248 -0.3646 -0.2819
  331LIG    HB1 4958   9.520   0.556   3.921 -3.1722 -0.3106 -1.9160
  331LIG    HB2 4959   9.680   0.558   3.826  0.0455 -1.0123 -1.9393
  331LIG     CG 4960   9.570   0.383   3.826  0.1744  0.1095 -0.0732
  331LIG    OD1 4961   9.529   0.333   3.715  0.8937  0.1100  0.0614
  331LIG    OD2 4962   9.612   0.311   3.926 -0.1825 -0.5004  0.1001
  331LIG      C 4963   9.511   0.758   3.741 -0.7033 -0.2558 -0.1819
  331LIG    OT1 4964   9.588   0.832   3.679  0.7433  0.6253  0.2575
  331LIG    OT2 4965   9.450   0.798   3.842  0.7749 -0.3106  0.0196
  332LIG      N 4966   2.521   8.985   7.423 -0.6106 -0.0136 -0.2176
  332LIG     H1 4967   2.479   9.001   7.329  1.5884  0.3962 -1.1888
  332LIG     H2 4968   2.479   8.911   7.484  0.7825 -0.1834  0.5787
  332LIG     H3 4969   2.510   9.073   7.477  0.2924  1.2717 -2.0170
  332LIG     CA 4970   2.664   8.958   7.395  0.2397 -0.0812  0.1081
  332LIG     HA 4971   2.690   8.868   7.342 -0.4807 -1.1260  1.4814
  332LIG     CB 4972   2.713   9.086   7.314  0.0575 -0.7734  0.0982
  332LIG    HB1 4973   2.819   9.070   7.286 -0.4238 -0.5457 -1.9863
  332LIG    HB2 4974   2.703   9.183   7.367 -0.3101  0.1663 -1.6232
  332LIG     CG 4975   2.638   9.103   7.184 -0.0663  0.1309  0.0031
  332LIG    OD1 4976   2.531   9.042   7.163  0.7813 -0.1945 -0.0884
  332LIG    OD2 4977   2.682   9.182   7.098 -0.1523 -0.5147 -0.5258
  332LIG      C 4978   2.741   8.949   7.526  0.1647  0.0495  0.2010
  332LIG    OT1 4979   2.694   8.975   7.640  0.4125 -0.3100 -0.4005
  332LIG    OT2 4980   2.853   8.911   7.517 -0.1659 -0.1131 -0.4082
  333LIG      N 4981   1.657   5.590   2.705  0.1287  0.6383  0.0246
  333LIG     H1 4982   1.697   5.558   2.614 -3.2508 -2.2899 -0.6568
  333LIG     H2 4983   1.559   5.623   2.694 -0.3937 -0.6921  0.4331
  333LIG     H3 4984   1.700   5.679   2.737  2.3012 -0.2622 -0.1799
  333LIG     CA 4985   1.656   5.480   2.807 -0.3970  0.1468  0.8232
  333LIG     HA 4986   1.568   5.419   2.791 -0.7104  0.6111  0.7732
  333LIG     CB 4987   1.783   5.393   2.781  0.0076  0.3709  0.4236
  333LIG    HB1 4988   1.801   5.309   2.852  0.2832 -0.2776 -0.4006
  333LIG    HB2 4989   1.870   5.458   2.806 -0.9429  1.1000  2.0047
  333LIG     CG 4990   1.780   5.327   2.645 -0.1036 -0.1791  0.0121
  333LIG    OD1 4991   1.673   5.330   2.575  0.1092  0.2245 -0.1803
  333LIG    OD2 4992   1.882   5.268   2.603  0.3090 -0.0810 -1.0812
  333LIG      C 4993   1.636   5.515   2.958 -0.2878 -0.1508  0.2862
  333LIG    OT1 4994   1.615   5.631   2.988  0.0422 -0.4892 -0.6850
  333LIG    OT2 4995   1.634   5.416   3.041  0.4070  0.2460 -0.0400
  334LIG      N 4996   7.547   1.221   2.919  0.2853  0.3888 -0.3441
  334LIG     H1 4997   7.533   1.295   2.847 -0.7889 -0.8115 -1.4340
  334LIG     H2 4998   7.478   1.243   2.994  1.8041 -0.6619  1.4447
  334LIG     H3 4999   7.645   1.228   2.953  0.3433 -0.3066 -0.3558
  334LIG     CA 5000   7.530   1.087   2.847  0.4775  0.6493 -0.0825
  334LIG     HA 5001   7.556   1.005   2.912 -1.7197 -2.1761 -2.4657
  334LIG     CB 5002   7.381   1.073   2.802 -0.4482 -0.0442  0.0109
  334LIG    HB1 5003   7.384   0.991   2.727  2.5891 -2.0572  2.0938
  334LIG    HB2 5004   7.348   1.172   2.764 -1.2666  0.3480  1.6276
  334LIG     CG 5005   7.296   1.017   2.910 -0.4053  0.1440  0.2050
  334LIG    OD1 5006   7.180   0.984   2.871  0.3864 -0.5420 -0.2948
  334LIG    OD2 5007   7.343   0.993   3.023  0.0310  0.1225  0.2712
  334LIG      C 5008   7.616   1.072   2.720  0.1676 -0.9431 -0.2785
  334LIG    OT1 5009   7.677   1.176   2.672  0.6569 -0.2782 -0.5807
  334LIG    OT2 5010   7.613   0.966   2.657 -0.2437 -0.3179 -0.7206
  335LIG      N 5011   5.615   3.352   7.978 -0.2924  0.0256 -0.3448
  335LIG     H1 5012   5.677   3.360   8.061  0.0590 -1.5964 -0.4058
  335LIG     H2 5013   5.601   3.252   7.951  1.0042 -0.0530 -0.8196
  335LIG     H3 5014   5.662   3.396   7.896  1.2959 -0.6833  0.1497
  335LIG     CA 5015   5.494   3.418   8.003  0.0893 -1.3894 -0.0410
  335LIG     HA 5016   5.522   3.518   8.033 -0.7669 -0.7554 -1.2024
  335LIG     CB 5017   5.416   3.427   7.873  0.4936  0.9290  0.1246
  335LIG    HB1 5018   5.309   3.449   7.890  0.3504 -0.1660  0.7762
  335LIG    HB2 5019   5.417   3.333   7.813 -0.8438  0.4516  0.8095
  335LIG     CG 5020   5.467   3.543   7.785 -0.1918  0.3876  0.3742
  335LIG    OD1 5021   5.526   3.642   7.835 -0.2558 -0.5095  0.3836
  335LIG    OD2 5022   5.433   3.541   7.667 -0.1192 -0.0515 -0.3080
  335LIG      C 5023   5.416   3.354   8.119  0.3980 -0.1527  0.0233
  335LIG    OT1 5024   5.447   3.237   8.164  0.5764  0.3845 -0.9058
  335LIG    OT2 5025   5.319   3.411   8.176  0.0514  0.1499  0.3556
  336LIG      N 5026   2.016   8.750   7.608  0.3037  0.0495  0.0358
  336LIG     H1 5027   1.944   8.710   7.545 -0.5878  1.1153  0.3378
  336LIG     H2 5028   2.100   8.697   7.636  1.8819  1.8736 -0.9822
  336LIG     H3 5029   1.957   8.775   7.691  0.4102  1.4406 -0.2841
  336LIG     CA 5030   2.052   8.879   7.544  0.2433  0.1034 -0.6346
  336LIG     HA 5031   2.105   8.854   7.454  0.1873 -0.7651 -0.4440
  336LIG     CB 5032   1.921   8.960   7.512  0.4337 -0.0303  0.1788
  336LIG    HB1 5033   1.955   9.041   7.445 -0.4183 -0.4043 -0.7260
  336LIG    HB2 5034   1.877   9.012   7.600 -0.7994 -0.1400 -0.3529
  336LIG     CG 5035   1.818   8.879   7.443  0.7827  0.0990 -0.3029
  336LIG    OD1 5036   1.702   8.931   7.455  0.2342 -0.2129  0.8390
  336LIG    OD2 5037   1.833   8.765   7.398  0.3668  0.2505 -0.2715
  336LIG      C 5038   2.142   8.972   7.630  0.1822  0.8160 -0.2678
  336LIG    OT1 5039   2.179   8.927   7.744  0.1946 -0.1729  0.1230
  336LIG    OT2 5040   2.185   9.085   7.593 -0.1498  0.3491 -0.1453
  337LIG      N 5041   2.442   5.430   1.743  0.4143 -0.8275  0.2293
  337LIG     H1 5042   2.402   5.341   1.779  0.0698 -0.8290 -0.1530
  337LIG     H2 5043   2.458   5.479   1.833  0.4003  0.4399 -0.4477
  337LIG     H3 5044   2.376   5.476   1.678  1.2323 -0.2129 -0.1869
  337LIG     CA 5045   2.562   5.394   1.663 -0.2927 -0.1482 -0.5188
  337LIG     HA 5046   2.539   5.303   1.611 -1.3589  1.2158 -2.5588
  337LIG     CB 5047   2.596   5.498   1.546 -0.3712 -0.0522  0.0105
  337LIG    HB1 5048   2.688   5.462   1.497 -1.7360  1.4342 -4.0280
  337LIG    HB2 5049   2.606   5.605   1.575 -0.4392  0.9391 -3.2883
  337LIG     CG 5050   2.483   5.489   1.442  0.0728  0.4315  0.7355
  337LIG    OD1 5051   2.488   5.575   1.353  0.4001  0.2095 -0.3607
  337LIG    OD2 5052   2.385   5.415   1.459  0.2079 -0.3324  0.2364
  337LIG      C 5053   2.678   5.369   1.764 -0.5535  0.6879  0.5738
  337LIG    OT1 5054   2.652   5.334   1.881  0.2505  0.0785 -0.4066
  337LIG    OT2 5055   2.800   5.375   1.715  0.5900  0.0502 -0.4028
  338LIG      N 5056   5.331   0.788   7.396  0.0185  0.3494 -0.2086
  338LIG     H1 5057   5.383   0.797   7.306  0.5322 -0.9377 -0.0543
  338LIG     H2 5058   5.396   0.763   7.473 -1.1925 -0.4625  0.5791
  338LIG     H3 5059   5.255   0.717   7.386 -0.3760  0.8461 -0.8599
  338LIG     CA 5060   5.259   0.920   7.418  0.1747 -0.4051  0.3523
  338LIG     HA 5061   5.328   1.003   7.409 -0.6410  0.0108 -4.7940
  338LIG     CB 5062   5.169   0.953   7.294 -1.0163  0.8690 -0.2845
  338LIG    HB1 5063   5.101   1.038   7.314 -4.1108 -1.7346  1.3341
  338LIG    HB2 5064   5.106   0.862   7.280 -1.3093  0.7131  1.7795
  338LIG     CG 5065   5.243   0.969   7.172 -0.8917  0.1908  0.1768
  338LIG    OD1 5066   5.184   1.008   7.069 -0.5494 -0.3470  0.1587
  338LIG    OD2 5067   5.365   0.938   7.167  0.5180 -0.0256  0.6325
  338LIG      C 5068   5.162   0.936   7.544  0.3720  1.1467 -0.1804
  338LIG    OT1 5069   5.138   0.832   7.613 -0.8158 -0.4168  0.1552
  338LIG    OT2 5070   5.112   1.046   7.581  0.3936 -0.0405  0.3461
  339LIG      N 5071   8.489   4.389   8.114 -0.1895 -0.1553  0.7127
  339LIG     H1 5072   8.559   4.447   8.163  2.7953 -3.3683  0.6579
  339LIG     H2 5073   8.393   4.403   8.153 -0.5896 -0.4469 -0.1432
  339LIG     H3 5074   8.516   4.289   8.121  1.1010  0.1353  0.0819
  339LIG     CA 5075   8.492   4.436   7.967 -0.3361  0.3309 -0.3729
  339LIG     HA 5076   8.465   4.540   7.968 -1.7700  0.0838  3.2012
  339LIG     CB 5077   8.634   4.433   7.908  0.2273 -0.2626  1.1996
  339LIG    HB1 5078   8.647   4.468   7.804  0.3066  2.6492  2.0915
  339LIG    HB2 5079   8.676   4.330   7.910 -0.9603 -0.8270 -0.4685
  339LIG     CG 5080   8.724   4.533   7.987  0.1385  0.4575 -0.1728
  339LIG    OD1 5081   8.666   4.601   8.076 -1.0987  0.4444  0.3989
  339LIG    OD2 5082   8.843   4.542   7.955  0.0340  0.7107 -0.6486
  339LIG      C 5083   8.398   4.361   7.873 -0.1664  0.0957 -0.6951
  339LIG    OT1 5084   8.327   4.265   7.919 -0.0729  0.2249 -0.1299
  339LIG    OT2 5085   8.384   4.393   7.753 -0.3287  0.0899  0.4899
  340LIG      N 5086   6.181   8.655   5.501 -0.0193 -0.2783 -0.1477
  340LIG     H1 5087   6.225   8.748   5.489  0.9913 -0.8116 -0.7447
  340LIG     H2 5088   6.123   8.627   5.420 -1.6596 -0.9955  1.2189
  340LIG     H3 5089   6.107   8.663   5.573 -1.1238  0.2963 -1.3099
  340LIG     CA 5090   6.279   8.548   5.535  0.1120  0.0688  0.4627
  340LIG     HA 5091   6.349   8.539   5.454 -0.8841  0.2524 -0.4422
  340LIG     CB 5092   6.353   8.576   5.671  0.0929  0.1684  0.5127
  340LIG    HB1 5093   6.410   8.485   5.698 -0.5792 -0.5697 -0.4663
  340LIG    HB2 5094   6.280   8.609   5.748  0.8244 -0.1789  1.3608
  340LIG     CG 5095   6.462   8.677   5.649  0.3382  0.2431 -0.4333
  340LIG    OD1 5096   6.549   8.674   5.560 -0.3550 -0.4202 -0.2645
  340LIG    OD2 5097   6.487   8.754   5.748 -0.2113 -0.0980  0.4292
  340LIG      C 5098   6.206   8.413   5.547  0.5466  0.5971 -0.0908
  340LIG    OT1 5099   6.079   8.408   5.527 -0.4176 -0.0116 -0.1329
  340LIG    OT2 5100   6.267   8.307   5.582 -0.1804 -0.1659 -0.3866
  341LIG      N 5101   9.615   0.841   4.314  0.1605  0.6039  0.6386
  341LIG     H1 5102   9.694   0.789   4.357  0.6309  0.3697 -0.4764
  341LIG     H2 5103   9.616   0.825   4.211  1.1162  1.6986  0.4497
  341LIG     H3 5104   9.622   0.945   4.323  0.3600  0.4503  2.7858
  341LIG     CA 5105   9.487   0.789   4.378 -0.7958 -0.3061  0.0231
  341LIG     HA 5106   9.493   0.682   4.391 -0.8545 -0.0820  2.3791
  341LIG     CB 5107   9.470   0.852   4.523 -0.8120 -0.5706  0.5898
  341LIG    HB1 5108   9.369   0.835   4.566 -1.4006 -0.2659 -0.6352
  341LIG    HB2 5109   9.489   0.959   4.499  0.9972 -0.8690  0.4916
  341LIG     CG 5110   9.574   0.804   4.616 -0.3072  0.2874 -0.1337
  341LIG    OD1 5111   9.647   0.707   4.587  0.0743  0.0074  0.0091
  341LIG    OD2 5112   9.577   0.862   4.725 -0.1093  0.0847  0.1746
  341LIG      C 5113   9.358   0.820   4.298  0.4273 -0.6288 -0.7576
  341LIG    OT1 5114   9.360   0.898   4.201  0.2535 -0.3666 -0.0575
  341LIG    OT2 5115   9.258   0.757   4.324  0.6848 -0.2132 -0.5464
  342LIG      N 5116   5.220   4.526   0.138  0.1370 -0.7842  0.8660
  342LIG     H1 5117   5.190   4.439   0.089  1.5040 -1.0831  0.5204
  342LIG     H2 5118   5.281   4.494   0.216  0.2345  0.0428  1.1356
  342LIG     H3 5119   5.143   4.586   0.173  1.2580  1.0914  0.2711
  342LIG     CA 5120   5.310   4.612   0.051  0.3277 -0.5356 -0.6582
  342LIG     HA 5121   5.239   4.639  -0.026 -2.7271  0.1510  2.1648
  342LIG     CB 5122   5.338   4.742   0.131 -0.2804 -0.1868 -0.4811
  342LIG    HB1 5123   5.415   4.802   0.079 -0.7115  0.3834 -0.4799
  342LIG    HB2 5124   5.397   4.722   0.222  1.8324  2.0866 -1.2561
  342LIG     CG 5125   5.220   4.831   0.151  1.1069 -0.7734  0.5791
  342LIG    OD1 5126   5.110   4.809   0.092  0.3098 -0.4421  0.8195
  342LIG    OD2 5127   5.241   4.934   0.223 -0.2496  0.2067 -0.0308
  342LIG      C 5128   5.433   4.551  -0.013 -0.7969 -0.3408 -0.4683
  342LIG    OT1 5129   5.489   4.443   0.038  0.0199 -1.0868  0.3547
  342LIG    OT2 5130   5.474   4.605  -0.116  0.3109  0.0972 -0.1443
  343LIG      N 5131   2.961   5.770   8.023 -0.2796 -0.1155  0.2669
  343LIG     H1 5132   2.905   5.857   8.032  2.2059  1.7005 -0.7887
  343LIG     H2 5133   2.895   5.693   8.004  1.1771 -2.1155  2.6198
  343LIG     H3 5134   3.016   5.750   8.109 -1.2119 -2.0835  0.4642
  343LIG     CA 5135   3.047   5.785   7.899 -0.3550  0.2903  0.4320
  343LIG     HA 5136   3.141   5.816   7.943 -0.3426  1.1192 -0.1489
  343LIG     CB 5137   3.065   5.646   7.828 -0.1711 -0.5121  1.0588
  343LIG    HB1 5138   3.149   5.650   7.756 -1.0152 -1.8792 -0.0397
  343LIG    HB2 5139   2.975   5.611   7.774  0.0542  1.1069 -0.4627
  343LIG     CG 5140   3.118   5.549   7.927 -0.0206  0.0409 -0.8856
  343LIG    OD1 5141   3.117   5.426   7.905  0.2620  0.1065  0.2533
  343LIG    OD2 5142   3.171   5.595   8.035  0.5317  0.3786 -0.2280
  343LIG      C 5143   3.002   5.893   7.798  0.0971  0.4757  0.1869
  343LIG    OT1 5144   2.890   5.946   7.808 -0.1762  0.7568  0.5657
  343LIG    OT2 5145   3.079   5.914   7.699  0.4788 -0.1601 -0.2712
  344LIG      N 5146   8.752   6.726   5.892  0.3234 -0.3340 -0.1186
  344LIG     H1 5147   8.828   6.683   5.950  1.4100  0.7692 -0.6951
  344LIG     H2 5148   8.675   6.662   5.866  0.3338 -0.1255 -0.6668
  344LIG     H3 5149   8.799   6.766   5.809  3.8378 -0.2513  1.6677
  344LIG     CA 5150   8.709   6.850   5.961  0.3726  0.0356 -0.3896
  344LIG     HA 5151   8.796   6.893   6.009  0.2680 -2.1242  1.9300
  344LIG     CB 5152   8.647   6.954   5.864 -0.1529  0.5942 -0.0310
  344LIG    HB1 5153   8.636   7.054   5.912 -0.0570  0.9857 -0.8056
  344LIG    HB2 5154   8.548   6.915   5.835  0.8782 -2.4670  0.1899
  344LIG     CG 5155   8.743   6.983   5.746 -0.0824  0.1770 -0.1966
  344LIG    OD1 5156   8.848   6.915   5.739  0.8530 -0.5417 -0.3968
  344LIG    OD2 5157   8.704   7.065   5.659  0.4202 -0.6768 -0.3377
  344LIG      C 5158   8.608   6.827   6.080 -0.8450 -0.6292  0.9257
  344LIG    OT1 5159   8.580   6.708   6.109  0.5918  0.7308  0.1354
  344LIG    OT2 5160   8.567   6.930   6.144 -0.6298  0.2868  0.3516
  345LIG      N 5161   9.107   3.672   8.354 -0.2596 -0.3277  0.0250
  345LIG     H1 5162   9.092   3.774   8.367  0.5721 -0.2132  0.0881
  345LIG     H2 5163   9.042   3.625   8.421 -0.8180 -1.5008 -1.2838
  345LIG     H3 5164   9.205   3.644   8.372 -0.8255 -1.8686  0.8922
  345LIG     CA 5165   9.071   3.642   8.213 -0.4361  0.0174  0.1845
  345LIG     HA 5166   9.152   3.695   8.164 -1.4549  2.1416  0.6807
  345LIG     CB 5167   9.052   3.488   8.193 -0.0012 -0.4853 -0.0310
  345LIG    HB1 5168   9.004   3.475   8.094 -0.1036 -2.3403  0.2404
  345LIG    HB2 5169   8.988   3.452   8.276  1.3668  0.5195  1.5390
  345LIG     CG 5170   9.187   3.419   8.191 -0.2747  0.4230 -0.5325
  345LIG    OD1 5171   9.189   3.305   8.133 -0.2895 -0.2808 -0.0692
  345LIG    OD2 5172   9.287   3.470   8.255  0.1470 -0.3631  0.0865
  345LIG      C 5173   8.940   3.713   8.169 -0.2690 -0.5514 -0.5887
  345LIG    OT1 5174   8.878   3.793   8.244 -0.3355 -0.3845 -0.2722
  345LIG    OT2 5175   8.886   3.677   8.057 -0.4403 -0.2239 -0.0076
  346LIG      N 5176   0.241   4.062   0.840  0.0267 -0.3875 -0.3316
  346LIG     H1 5177   0.143   4.029   0.838 -0.9538  2.2738  0.1689
  346LIG     H2 5178   0.266   4.066   0.941 -0.0440 -1.9788 -0.2258
  346LIG     H3 5179   0.250   4.158   0.801  0.3462  0.6156  2.0417
  346LIG     CA 5180   0.338   3.965   0.768 -0.3809 -0.2837  0.0923
  346LIG     HA 5181   0.438   3.990   0.799 -1.0075  3.1281 -0.2973
  346LIG     CB 5182   0.297   3.815   0.807  0.3618 -0.5776 -1.0397
  346LIG    HB1 5183   0.370   3.743   0.765 -0.1648 -1.5876 -0.2575
  346LIG    HB2 5184   0.194   3.797   0.771 -0.3071 -0.2034  0.6037
  346LIG     CG 5185   0.303   3.795   0.960  0.5051 -0.5507 -0.2627
  346LIG    OD1 5186   0.316   3.891   1.031 -0.7998 -0.1361 -0.8584
  346LIG    OD2 5187   0.309   3.679   1.007  0.2675  0.9308  1.0204
  346LIG      C 5188   0.325   3.972   0.614 -0.0868 -0.3754  0.3681
  346LIG    OT1 5189   0.253   4.066   0.562 -0.3558  0.6092  0.5437
  346LIG    OT2 5190   0.389   3.892   0.542  0.0858  0.3198 -0.8925
  347LIG      N 5191   3.529   2.844   7.761 -0.3327 -0.1153  0.0071
  347LIG     H1 5192   3.503   2.931   7.812  1.9374  2.4915 -2.9253
  347LIG     H2 5193   3.438   2.800   7.735 -0.6674 -0.7298  1.9842
  347LIG     H3 5194   3.573   2.785   7.835 -0.3784  0.1241  0.2283
  347LIG     CA 5195   3.621   2.879   7.647 -0.0556 -0.2516 -0.1235
  347LIG     HA 5196   3.689   2.956   7.681 -1.8785  0.5342  1.9818
  347LIG     CB 5197   3.702   2.747   7.606  0.5931 -0.5068  0.3366
  347LIG    HB1 5198   3.745   2.758   7.504 -1.2173  3.0283 -0.2030
  347LIG    HB2 5199   3.636   2.657   7.606  1.3354 -1.0842 -1.1905
  347LIG     CG 5200   3.820   2.715   7.700 -0.9312 -0.2815  0.2348
  347LIG    OD1 5201   3.894   2.616   7.673  0.5314  0.1472 -0.1891
  347LIG    OD2 5202   3.823   2.789   7.801  0.4428 -0.2927 -0.1049
  347LIG      C 5203   3.556   2.936   7.516  0.4793 -0.3229  0.7570
  347LIG    OT1 5204   3.428   2.923   7.502 -0.1215 -0.7029 -0.5577
  347LIG    OT2 5205   3.631   2.998   7.436  0.7535 -0.0780 -0.0380
  348LIG      N 5206   5.660   6.288   5.417 -0.1714 -0.1187 -0.0074
  348LIG     H1 5207   5.702   6.242   5.500 -0.0666 -1.4037 -0.7436
  348LIG     H2 5208   5.667   6.391   5.428  0.2296 -0.2600  1.1341
  348LIG     H3 5209   5.560   6.257   5.416 -0.3561  0.4577  0.4562
  348LIG     CA 5210   5.732   6.234   5.297 -0.7603  0.6715  0.6270
  348LIG     HA 5211   5.727   6.307   5.218  0.9837 -0.3391 -0.4807
  348LIG     CB 5212   5.884   6.220   5.326 -0.1861 -0.3678  0.1278
  348LIG    HB1 5213   5.931   6.177   5.235  0.4709  1.4862 -0.4521
  348LIG    HB2 5214   5.901   6.168   5.423  0.2930 -1.2959 -0.4309
  348LIG     CG 5215   5.948   6.354   5.349 -0.2655 -0.3894  0.3314
  348LIG    OD1 5216   5.890   6.461   5.341  0.1619 -0.0215 -0.4093
  348LIG    OD2 5217   6.073   6.351   5.376 -0.0853 -0.1802 -0.0992
  348LIG      C 5218   5.668   6.098   5.251  0.4445 -0.2711 -0.0703
  348LIG    OT1 5219   5.583   6.033   5.323  0.0133 -0.7970  0.2443
  348LIG    OT2 5220   5.700   6.056   5.135  0.0433 -0.3846 -0.4514
  349LIG      N 5221   4.656   6.718   7.926  0.0019 -0.0252 -0.0246
  349LIG     H1 5222   4.590   6.638   7.925  0.0158 -0.2751 -4.9457
  349LIG     H2 5223   4.747   6.686   7.887  0.1444  1.4834 -1.0295
  349LIG     H3 5224   4.676   6.775   8.012 -0.6298  0.0331  0.0819
  349LIG     CA 5225   4.588   6.804   7.822 -0.5100  0.2560 -1.3044
  349LIG     HA 5226   4.485   6.804   7.854 -0.3113 -2.2553 -0.4306
  349LIG     CB 5227   4.652   6.952   7.822 -0.8187  0.6207 -0.4234
  349LIG    HB1 5228   4.605   7.012   7.742 -0.5188  2.1431  0.4928
  349LIG    HB2 5229   4.759   6.941   7.794 -1.5803 -2.3176 -2.6523
  349LIG     CG 5230   4.635   7.014   7.957  0.3647 -0.1069  1.3060
  349LIG    OD1 5231   4.635   7.139   7.966 -0.7545  0.6040  0.4677
  349LIG    OD2 5232   4.618   6.939   8.060  0.1466  0.2164 -0.3227
  349LIG      C 5233   4.570   6.759   7.676 -0.1775  1.1148  0.0489
  349LIG    OT1 5234   4.645   6.665   7.625 -0.3270 -0.3039  0.5714
  349LIG    OT2 5235   4.472   6.800   7.613 -0.9167  0.1422  0.9913
  350LIG      N 5236   3.165   5.347   8.174  0.0144 -0.3489 -0.1604
  350LIG     H1 5237   3.265   5.320   8.177  0.1767  0.2515  1.7875
  350LIG     H2 5238   3.148   5.424   8.107 -1.8976  0.0627  0.7104
  350LIG     H3 5239   3.142   5.378   8.271 -1.2527 -2.4591  0.2827
  350LIG     CA 5240   3.070   5.235   8.139  0.1772 -0.3131  0.0481
  350LIG     HA 5241   3.096   5.205   8.039  1.0651 -0.7577  0.4071
  350LIG     CB 5242   3.100   5.111   8.230 -0.0536 -0.3993 -0.9224
  350LIG    HB1 5243   3.017   5.038   8.221  0.6684 -1.9291  2.7635
  350LIG    HB2 5244   3.081   5.134   8.337 -1.7440 -0.9921 -1.0595
  350LIG     CG 5245   3.233   5.035   8.206  0.2969  0.4699  0.7146
  350LIG    OD1 5246   3.331   5.103   8.171  0.0866  0.1067 -0.2928
  350LIG    OD2 5247   3.241   4.914   8.244 -0.7135 -0.1325  0.3888
  350LIG      C 5248   2.926   5.271   8.139 -0.2781  0.2964 -0.3461
  350LIG    OT1 5249   2.887   5.385   8.172  0.0069 -0.2545  0.3497
  350LIG    OT2 5250   2.837   5.198   8.090 -0.0938  0.1666 -0.8138
  351LIG      N 5251   4.400   0.393   7.992 -0.1302 -0.8309 -0.3706
  351LIG     H1 5252   4.395   0.395   7.888 -1.5438  0.9934 -0.3210
  351LIG     H2 5253   4.334   0.472   8.011  0.5510  0.3326 -2.5399
  351LIG     H3 5254   4.488   0.425   8.037 -0.0443  0.4987 -1.4382
  351LIG     CA 5255   4.353   0.265   8.056 -0.4899 -0.4589 -0.0437
  351LIG     HA 5256   4.432   0.200   8.023 -0.5970 -0.9997  0.7496
  351LIG     CB 5257   4.335   0.280   8.214  0.2147 -0.2495  0.0805
  351LIG    HB1 5258   4.305   0.181   8.254  0.7217 -0.3532  0.2119
  351LIG    HB2 5259   4.262   0.357   8.247  0.2275 -0.6960  1.1701
  351LIG     CG 5260   4.468   0.312   8.285  0.1816  0.1079  0.6630
  351LIG    OD1 5261   4.564   0.319   8.214 -0.3897 -0.3280 -0.6851
  351LIG    OD2 5262   4.477   0.324   8.407  0.1720 -0.1605  0.8440
  351LIG      C 5263   4.216   0.215   8.007 -0.4202  0.0448 -0.0406
  351LIG    OT1 5264   4.163   0.277   7.914  0.1087 -0.4078  0.3782
  351LIG    OT2 5265   4.171   0.111   8.055 -0.2093  0.0255 -0.6930
  352LIG      N 5266   8.504   2.174   5.178  0.1233  0.1210 -0.2815
  352LIG     H1 5267   8.516   2.161   5.075  0.1567 -1.3242 -0.1082
  352LIG     H2 5268   8.413   2.133   5.207  0.4611  0.8044  1.8663
  352LIG     H3 5269   8.496   2.275   5.202 -2.0448 -0.0270 -0.2208
  352LIG     CA 5270   8.616   2.113   5.251 -0.0142 -0.2065 -0.0795
  352LIG     HA 5271   8.620   2.008   5.225 -0.3207 -0.7809  2.0195
  352LIG     CB 5272   8.744   2.191   5.214 -0.0880 -0.6690 -0.1358
  352LIG    HB1 5273   8.818   2.174   5.296  0.1263 -1.1989 -0.4348
  352LIG    HB2 5274   8.730   2.300   5.222 -1.0248 -0.8895  1.7432
  352LIG     CG 5275   8.807   2.155   5.078 -0.5510  0.6792  0.2227
  352LIG    OD1 5276   8.919   2.208   5.054  0.1022  0.7173  0.1632
  352LIG    OD2 5277   8.753   2.069   5.007  0.2758 -0.3545  0.2811
  352LIG      C 5278   8.586   2.112   5.406  0.6216  0.3100 -0.1177
  352LIG    OT1 5279   8.475   2.160   5.446  0.5663  0.3411 -0.8109
  352LIG    OT2 5280   8.672   2.070   5.481 -0.2983  0.2450  0.3275
  353LIG      N 5281   1.365   7.185   4.397  0.4516 -0.1299 -0.3277
  353LIG     H1 5282   1.288   7.254   4.388  0.1566 -0.0512  2.2732
  353LIG     H2 5283   1.409   7.214   4.487 -1.6034  0.0587  0.6630
  353LIG     H3 5284   1.424   7.215   4.316 -1.6608  2.3376 -1.0887
  353LIG     CA 5285   1.343   7.038   4.383 -0.7000 -0.4567 -0.1346
  353LIG     HA 5286   1.286   7.017   4.472  0.3690  1.7025  1.1423
  353LIG     CB 5287   1.272   7.002   4.249  0.2104  0.2571  0.4483
  353LIG    HB1 5288   1.260   6.893   4.231 -3.1922  0.6394 -0.2632
  353LIG    HB2 5289   1.328   7.044   4.163 -1.5264  1.5664 -0.0899
  353LIG     CG 5290   1.134   7.055   4.230  0.4741  0.3855  0.1871
  353LIG    OD1 5291   1.066   7.016   4.128 -0.2254  0.5991  0.0219
  353LIG    OD2 5292   1.090   7.145   4.301  0.3797 -0.2837 -0.5113
  353LIG      C 5293   1.463   6.955   4.398  0.3445 -0.2938 -0.3692
  353LIG    OT1 5294   1.572   7.011   4.403  0.4320 -0.7140  0.1090
  353LIG    OT2 5295   1.449   6.829   4.411 -0.6037  0.0836 -0.8008
  354LIG      N 5296   9.527   5.316   9.491 -0.3064  0.8775 -0.0868
  354LIG     H1 5297   9.624   5.278   9.481 -0.5437  0.5243 -1.2767
  354LIG     H2 5298   9.530   5.407   9.541 -1.4421  1.2667 -0.6963
  354LIG     H3 5299   9.472   5.254   9.553  0.2856 -0.1159 -0.5310
  354LIG     CA 5300   9.463   5.330   9.349  0.4464 -0.5577  0.1316
  354LIG     HA 5301   9.363   5.365   9.369  0.0791 -0.6061 -1.5067
  354LIG     CB 5302   9.551   5.430   9.269 -0.6663  0.6644  0.2977
  354LIG    HB1 5303   9.527   5.434   9.161  0.6830  1.1163 -0.0013
  354LIG    HB2 5304   9.658   5.403   9.282 -0.9476  0.1946  1.7921
  354LIG     CG 5305   9.535   5.564   9.325 -0.0520 -0.4085  1.0661
  354LIG    OD1 5306   9.630   5.640   9.292  0.8348  0.4970 -0.7829
  354LIG    OD2 5307   9.428   5.601   9.386 -0.7106  0.0141 -0.1013
  354LIG      C 5308   9.457   5.192   9.274  0.3147 -0.0079  0.2282
  354LIG    OT1 5309   9.492   5.084   9.325 -0.6978 -0.5114  0.2296
  354LIG    OT2 5310   9.431   5.196   9.149  0.2651  0.2226  0.6967
  355LIG      N 5311   8.369   1.653   5.540 -0.3563  0.2033  0.1999
  355LIG     H1 5312   8.307   1.601   5.474  1.4145 -1.7593  0.0031
  355LIG     H2 5313   8.352   1.613   5.634 -0.6899 -0.3271 -0.0800
  355LIG     H3 5314   8.343   1.753   5.557 -2.6299 -0.5213  1.4295
  355LIG     CA 5315   8.512   1.646   5.496  0.9696  0.0712  0.0159
  355LIG     HA 5316   8.545   1.543   5.498 -0.1420 -0.2940  1.1739
  355LIG     CB 5317   8.524   1.715   5.353 -0.3642  0.5385 -1.0757
  355LIG    HB1 5318   8.623   1.765   5.344 -0.9389  1.4568 -2.6373
  355LIG    HB2 5319   8.457   1.803   5.346 -1.7352 -0.3911 -0.1350
  355LIG     CG 5320   8.506   1.611   5.246 -0.7091 -0.3459  0.6138
  355LIG    OD1 5321   8.509   1.644   5.126 -0.1011  0.2489  0.4029
  355LIG    OD2 5322   8.500   1.492   5.281  0.0678 -0.0605  0.1450
  355LIG      C 5323   8.599   1.712   5.608  0.7321  0.4910  0.3728
  355LIG    OT1 5324   8.548   1.772   5.704 -0.0528  0.0801  0.4303
  355LIG    OT2 5325   8.723   1.697   5.592 -0.0591 -0.4286 -0.2635
  356LIG      N 5326   8.799   5.328   0.271 -0.0123 -0.2509 -0.6899
  356LIG     H1 5327   8.719   5.352   0.334  0.2158 -1.4455  0.0848
  356LIG     H2 5328   8.777   5.350   0.172 -0.0704 -0.7295 -0.7870
  356LIG     H3 5329   8.824   5.227   0.280 -0.5032 -0.2849  0.4920
  356LIG     CA 5330   8.899   5.419   0.329  0.6201 -0.5487  0.6595
  356LIG     HA 5331   8.855   5.517   0.315 -1.7077 -1.5119  0.7771
  356LIG     CB 5332   8.930   5.390   0.479  0.0138 -0.3237 -0.6229
  356LIG    HB1 5333   8.992   5.470   0.525 -2.2092  0.7345  0.7599
  356LIG    HB2 5334   8.986   5.295   0.490  0.6229  0.1717  0.7742
  356LIG     CG 5335   8.805   5.384   0.566  0.2598  0.1746  0.5875
  356LIG    OD1 5336   8.696   5.411   0.509 -0.7064 -0.2265  0.0375
  356LIG    OD2 5337   8.811   5.342   0.680 -0.1307  0.1813  0.5165
  356LIG      C 5338   9.033   5.429   0.240  0.0368  0.2984 -0.1478
  356LIG    OT1 5339   9.043   5.351   0.141 -0.2750 -0.3728  0.0033
  356LIG    OT2 5340   9.118   5.517   0.274 -0.7610 -0.2533 -0.5551
  357LIG      N 5341   2.986   8.765   9.444  0.2534  0.7481  0.5799
  357LIG     H1 5342   2.992   8.673   9.493  1.2584  1.1869  1.3029
  357LIG     H2 5343   2.884   8.782   9.433 -0.3873 -2.5241  0.2693
  357LIG     H3 5344   3.027   8.770   9.349 -0.3648  1.2612  0.3352
  357LIG     CA 5345   3.051   8.864   9.531 -0.7611  0.2316  0.5409
  357LIG     HA 5346   2.987   8.879   9.616 -2.2905  0.3254 -0.5733
  357LIG     CB 5347   3.196   8.806   9.574  0.0576 -0.4014  0.1540
  357LIG    HB1 5348   3.264   8.888   9.606 -0.3775 -0.7420  2.0855
  357LIG    HB2 5349   3.248   8.758   9.489 -0.0291 -0.3309  0.0620
  357LIG     CG 5350   3.188   8.714   9.691 -0.5409  0.0761  0.8157
  357LIG    OD1 5351   3.298   8.682   9.744  0.0658 -0.3835 -0.2600
  357LIG    OD2 5352   3.078   8.661   9.727 -0.2313 -0.1966 -0.7273
  357LIG      C 5353   3.073   9.008   9.466  0.6134  0.0585 -0.1197
  357LIG    OT1 5354   3.023   9.028   9.351  0.0905 -0.4474 -0.3929
  357LIG    OT2 5355   3.135   9.091   9.529 -0.3005 -0.0112 -0.0401
  358LIG      N 5356   4.413   8.169   9.680 -0.4425  0.5830  0.4503
  358LIG     H1 5357   4.434   8.254   9.624  1.4198  0.3409  0.7209
  358LIG     H2 5358   4.492   8.156   9.747 -0.8267 -2.5367  0.4776
  358LIG     H3 5359   4.419   8.091   9.612 -0.5284  1.4454 -0.5677
  358LIG     CA 5360   4.279   8.161   9.741  1.0172 -0.5322 -0.0872
  358LIG     HA 5361   4.268   8.059   9.773 -1.2180 -0.2389  0.2451
  358LIG     CB 5362   4.263   8.263   9.858  0.8706  0.0586 -0.0975
  358LIG    HB1 5363   4.157   8.267   9.893  1.0392 -0.3794  0.4907
  358LIG    HB2 5364   4.292   8.363   9.820  0.6766 -0.6974 -2.4054
  358LIG     CG 5365   4.340   8.221   9.990 -0.3223 -0.4227  0.2156
  358LIG    OD1 5366   4.340   8.304  10.083 -0.6356 -0.3180 -0.3442
  358LIG    OD2 5367   4.406   8.115   9.999  0.4469 -0.3011  0.8676
  358LIG      C 5368   4.156   8.174   9.648  0.0829 -0.2018  0.5694
  358LIG    OT1 5369   4.173   8.207   9.527 -0.1084 -0.2738  0.2059
  358LIG    OT2 5370   4.045   8.152   9.695  0.5774  0.8423  0.5145
  359LIG      N 5371   6.790   1.500   0.277  0.4182  0.4172  0.2823
  359LIG     H1 5372   6.749   1.405   0.284 -1.2553  1.2044  2.0058
  359LIG     H2 5373   6.716   1.571   0.264  1.1712  1.5783  1.9110
  359LIG     H3 5374   6.867   1.499   0.207  0.8780 -1.0900  0.7708
  359LIG     CA 5375   6.849   1.529   0.412 -0.3553 -0.4714 -0.3837
  359LIG     HA 5376   6.770   1.533   0.485  1.9142 -0.0783  2.1942
  359LIG     CB 5377   6.936   1.416   0.456 -0.3264 -0.3311 -0.0916
  359LIG    HB1 5378   6.986   1.447   0.551 -0.9739  2.6652 -0.6358
  359LIG    HB2 5379   7.016   1.384   0.386  0.9113  2.5934 -0.1846
  359LIG     CG 5380   6.859   1.287   0.479 -0.4315  0.0689  0.3402
  359LIG    OD1 5381   6.731   1.293   0.482  0.1769  0.0190 -0.5244
  359LIG    OD2 5382   6.927   1.180   0.491 -0.0959  0.2405 -0.0430
  359LIG      C 5383   6.933   1.658   0.417 -0.5755 -0.1975 -0.7717
  359LIG    OT1 5384   6.952   1.717   0.304  0.2198  0.1302 -0.6049
  359LIG    OT2 5385   6.986   1.707   0.524  0.5283 -0.0379  0.8194
  360LIG      N 5386   2.388   4.402   5.724 -0.0057 -0.1446 -0.0582
  360LIG     H1 5387   2.480   4.355   5.718  0.8529  1.6641 -3.3541
  360LIG     H2 5388   2.339   4.384   5.634  0.7477 -1.2505 -0.2616
  360LIG     H3 5389   2.413   4.501   5.740  2.7563 -0.7135 -0.4759
  360LIG     CA 5390   2.316   4.346   5.844  0.0741  0.3838 -0.1406
  360LIG     HA 5391   2.343   4.403   5.931  0.1425 -2.0411  1.5268
  360LIG     CB 5392   2.161   4.339   5.820  0.5232 -0.4145  0.7986
  360LIG    HB1 5393   2.109   4.254   5.869  0.2982 -0.5931  0.2690
  360LIG    HB2 5394   2.143   4.323   5.711 -3.4500  1.3556  0.9978
  360LIG     CG 5395   2.083   4.475   5.845  0.1661 -0.1412 -0.0741
  360LIG    OD1 5396   1.961   4.481   5.813 -0.5414  0.5550 -0.1973
  360LIG    OD2 5397   2.144   4.559   5.914 -0.1336 -0.8665  0.0442
  360LIG      C 5398   2.379   4.203   5.872 -0.5769  0.3938 -0.0691
  360LIG    OT1 5399   2.465   4.151   5.791  0.2542  0.8978 -0.6493
  360LIG    OT2 5400   2.332   4.149   5.976  0.0062 -0.5233 -0.2716
  361LIG      N 5401   6.759   6.025   7.175  0.0544 -0.6246  0.1013
  361LIG     H1 5402   6.677   6.071   7.132 -0.6115 -0.6022  1.3512
  361LIG     H2 5403   6.786   5.934   7.133  1.0213 -0.0137 -0.6495
  361LIG     H3 5404   6.725   6.000   7.270  0.4713 -2.0581 -0.1061
  361LIG     CA 5405   6.864   6.133   7.170 -0.4515  0.1964  0.0027
  361LIG     HA 5406   6.953   6.090   7.213 -0.0922 -0.0243 -0.9249
  361LIG     CB 5407   6.886   6.173   7.018  0.5102  0.3212 -0.0374
  361LIG    HB1 5408   6.973   6.241   7.010  0.4742  0.1580 -2.2195
  361LIG    HB2 5409   6.795   6.226   6.982  1.1018  0.2976 -1.6186
  361LIG     CG 5410   6.913   6.060   6.920  0.2872  0.4382 -0.4981
  361LIG    OD1 5411   6.929   6.094   6.802  0.7547  0.1765 -0.0755
  361LIG    OD2 5412   6.914   5.940   6.950 -0.0060 -0.8337 -0.1968
  361LIG      C 5413   6.826   6.257   7.245  0.7857 -0.4143 -0.0346
  361LIG    OT1 5414   6.714   6.258   7.307  0.1953  0.0788  0.3199
  361LIG    OT2 5415   6.904   6.355   7.258 -0.0716  0.6200 -0.1540
  362LIG      N 5416   0.111   3.439   6.383 -0.2131  0.5304  0.9950
  362LIG     H1 5417   0.109   3.393   6.476 -1.7594 -0.8276  0.3375
  362LIG     H2 5418   0.106   3.542   6.401  1.0017  0.8749 -0.4391
  362LIG     H3 5419   0.036   3.404   6.319  2.0623 -0.7408 -1.1729
  362LIG     CA 5420   0.247   3.432   6.319  0.4034  0.2344 -0.4625
  362LIG     HA 5421   0.223   3.483   6.228 -0.2362  2.1668  0.7318
  362LIG     CB 5422   0.336   3.508   6.418  0.9483 -0.4847  0.2484
  362LIG    HB1 5423   0.444   3.503   6.392  0.3095 -1.1538 -2.5289
  362LIG    HB2 5424   0.323   3.464   6.520  1.5120  0.7594  0.8814
  362LIG     CG 5425   0.307   3.661   6.433 -0.3400 -0.6311  0.3730
  362LIG    OD1 5426   0.211   3.708   6.364  0.3970 -0.3750 -0.7791
  362LIG    OD2 5427   0.385   3.733   6.503 -0.0609 -0.0208 -0.6847
  362LIG      C 5428   0.295   3.293   6.280  0.2085 -0.1023  0.1683
  362LIG    OT1 5429   0.220   3.191   6.302 -0.2688 -0.4808 -0.5152
  362LIG    OT2 5430   0.406   3.285   6.221 -0.2605  0.3079  0.2274
  363LIG      N 5431   8.004   6.054   6.327  0.3949  0.1830  0.2603
  363LIG     H1 5432   8.021   6.062   6.225  2.6869  0.5768  0.6339
  363LIG     H2 5433   8.037   6.137   6.380 -0.2869  0.4104  0.3459
  363LIG     H3 5434   8.061   5.975   6.362 -0.6908 -0.2540  1.1430
  363LIG     CA 5435   7.859   6.033   6.347 -0.1011  0.0059  0.0893
  363LIG     HA 5436   7.812   6.128   6.368 -1.3935 -0.4398 -0.6989
  363LIG     CB 5437   7.783   5.971   6.223  0.5541  0.1245  0.0070
  363LIG    HB1 5438   7.673   5.958   6.240  0.3162 -1.0385 -2.0559
  363LIG    HB2 5439   7.806   5.863   6.211  1.0852  0.2045  0.2859
  363LIG     CG 5440   7.804   6.058   6.099  0.0491  0.3122  0.7802
  363LIG    OD1 5441   7.840   6.174   6.120 -0.2699  0.4220  0.4668
  363LIG    OD2 5442   7.781   6.009   5.983  0.2695 -0.1936 -0.4731
  363LIG      C 5443   7.817   5.947   6.474 -0.1209 -0.0834 -0.0233
  363LIG    OT1 5444   7.901   5.907   6.556 -0.3912  0.5433  0.2924
  363LIG    OT2 5445   7.698   5.927   6.491  0.4166 -0.2024 -0.4743
  364LIG      N 5446   2.924   6.111   0.665 -0.3281  0.1588 -0.0451
  364LIG     H1 5447   2.971   6.201   0.686  1.2967 -0.3108 -1.4732
  364LIG     H2 5448   2.996   6.037   0.667  0.9256  1.3489  2.3759
  364LIG     H3 5449   2.884   6.124   0.569  0.2303 -1.2469 -0.4855
  364LIG     CA 5450   2.825   6.084   0.769  0.1202  0.2847  0.0069
  364LIG     HA 5451   2.838   6.147   0.856  0.8901  0.5144 -0.2584
  364LIG     CB 5452   2.686   6.082   0.710  0.3394  0.2814  1.0574
  364LIG    HB1 5453   2.618   6.025   0.777 -1.0890  2.0410  1.1816
  364LIG    HB2 5454   2.682   6.027   0.613  0.2892 -0.0469  1.2446
  364LIG     CG 5455   2.637   6.223   0.688 -0.6124 -0.5670 -0.0643
  364LIG    OD1 5456   2.696   6.319   0.743 -0.0277 -0.0479 -0.0986
  364LIG    OD2 5457   2.535   6.242   0.618  0.7966  0.1894  0.1627
  364LIG      C 5458   2.863   5.940   0.826  0.0615  0.6383  0.2633
  364LIG    OT1 5459   2.963   5.872   0.783  0.5592 -0.2913 -0.1294
  364LIG    OT2 5460   2.784   5.889   0.912  0.6074 -0.7110  0.4925
  365LIG      N 5461   6.804   8.919   7.317  0.5821  0.1820  0.1758
  365LIG     H1 5462   6.757   8.856   7.384 -0.5704  1.7935  0.9673
  365LIG     H2 5463   6.857   8.863   7.248  0.3461  0.1687  0.0032
  365LIG     H3 5464   6.867   8.986   7.365 -0.5788  2.2029 -0.9533
  365LIG     CA 5465   6.705   8.996   7.236 -0.0556  0.4585 -0.4285
  365LIG     HA 5466   6.691   8.934   7.149  1.9549 -1.0781  0.2488
  365LIG     CB 5467   6.600   9.060   7.319 -0.4531 -0.4902  0.6612
  365LIG    HB1 5468   6.533   9.130   7.265  1.0927  2.0403  1.8780
  365LIG    HB2 5469   6.652   9.119   7.397 -0.5460  2.2784 -1.2542
  365LIG     CG 5470   6.511   8.955   7.382  0.1553 -0.6214  0.2701
  365LIG    OD1 5471   6.514   8.837   7.342  0.4681 -0.4438  0.5200
  365LIG    OD2 5472   6.429   9.000   7.463  0.5711  0.4616  0.3165
  365LIG      C 5473   6.774   9.118   7.163 -0.2010  0.1397 -0.1598
  365LIG    OT1 5474   6.900   9.116   7.163  0.0955 -0.0829  0.3757
  365LIG    OT2 5475   6.695   9.199   7.102 -0.4000 -0.0839  0.6103
  366LIG      N 5476   2.323   4.135   4.848 -0.6554 -0.3481 -0.6211
  366LIG     H1 5477   2.302   4.208   4.919 -0.4153 -1.6878  0.8883
  366LIG     H2 5478   2.401   4.168   4.787  0.0888  1.3841  1.1384
  366LIG     H3 5479   2.237   4.118   4.792 -2.1244 -0.3581  1.5150
  366LIG     CA 5480   2.368   4.002   4.901  0.2057 -0.2851 -0.0054
  366LIG     HA 5481   2.287   3.978   4.969 -2.4130  1.6915 -2.1870
  366LIG     CB 5482   2.371   3.896   4.790 -0.3983 -0.0874  0.6463
  366LIG    HB1 5483   2.413   3.801   4.830 -1.0551 -0.8725 -0.4994
  366LIG    HB2 5484   2.427   3.924   4.698 -1.8004 -0.8618 -0.4727
  366LIG     CG 5485   2.230   3.860   4.750 -0.4504 -0.3825 -0.3857
  366LIG    OD1 5486   2.136   3.933   4.799 -0.6104  0.1081 -0.0539
  366LIG    OD2 5487   2.216   3.761   4.674  0.1760 -0.2572  0.3001
  366LIG      C 5488   2.486   3.999   4.997  0.5201 -1.6974  0.0236
  366LIG    OT1 5489   2.551   4.106   5.005 -0.2109  0.2936 -0.4541
  366LIG    OT2 5490   2.516   3.899   5.062 -0.0574  0.3141 -0.4127
  367LIG      N 5491   3.956   4.002   7.517 -0.2625  0.0955 -0.2084
  367LIG     H1 5492   4.008   3.913   7.529 -1.1756 -0.3933  0.2180
  367LIG     H2 5493   4.026   4.078   7.529  0.8435 -0.1363 -3.8239
  367LIG     H3 5494   3.877   4.012   7.584  2.2847 -1.1722  3.2415
  367LIG     CA 5495   3.900   4.023   7.386 -0.5828 -0.1562  0.0974
  367LIG     HA 5496   3.985   4.008   7.322  1.2853  1.8157  1.9337
  367LIG     CB 5497   3.787   3.925   7.353  0.3169  1.1579 -0.3147
  367LIG    HB1 5498   3.759   3.958   7.251  0.9090  0.5613 -0.6742
  367LIG    HB2 5499   3.701   3.932   7.423  2.1193  0.5547  2.0878
  367LIG     CG 5500   3.824   3.778   7.345 -0.6031 -0.1806 -1.3323
  367LIG    OD1 5501   3.946   3.748   7.328 -0.9414  0.1231  0.2203
  367LIG    OD2 5502   3.730   3.690   7.357 -0.3336 -0.3588  0.0577
  367LIG      C 5503   3.850   4.169   7.373  0.0220  0.1807 -0.5875
  367LIG    OT1 5504   3.884   4.247   7.465  0.0737  0.2872 -0.1892
  367LIG    OT2 5505   3.784   4.212   7.270 -0.5122 -0.5682  0.4320
  368LIG      N 5506   6.001   6.666   5.210 -0.2092  0.3889  0.1660
  368LIG     H1 5507   5.963   6.586   5.264  2.0921 -0.1715  1.0865
  368LIG     H2 5508   6.089   6.643   5.160 -0.3240 -0.5179  0.3756
  368LIG     H3 5509   6.019   6.746   5.275  1.2977  0.5120 -0.3678
  368LIG     CA 5510   5.907   6.701   5.108  0.5534 -0.2941  0.4822
  368LIG     HA 5511   5.945   6.778   5.042 -4.2348  1.1352 -1.0006
  368LIG     CB 5512   5.864   6.582   5.023 -0.0227 -0.1690  0.3393
  368LIG    HB1 5513   5.777   6.612   4.962 -0.3081 -1.0659  0.2874
  368LIG    HB2 5514   5.829   6.497   5.086 -2.0157  1.0461  0.9526
  368LIG     CG 5515   5.981   6.541   4.932 -0.0568  0.3201 -0.6384
  368LIG    OD1 5516   5.961   6.465   4.833 -0.0556 -0.6923 -0.2842
  368LIG    OD2 5517   6.095   6.578   4.972 -0.5114  0.1758  0.1270
  368LIG      C 5518   5.777   6.760   5.165  0.1132 -0.0700 -0.6024
  368LIG    OT1 5519   5.755   6.775   5.289  0.2724 -0.6975  0.3334
  368LIG    OT2 5520   5.692   6.799   5.079 -0.0628  0.5612  0.1605
  369LIG      N 5521   9.500   2.656   3.109  0.0385 -0.7653 -0.6622
  369LIG     H1 5522   9.529   2.587   3.180 -0.2776 -1.4349 -1.1753
  369LIG     H2 5523   9.509   2.746   3.161 -0.1103 -1.1040 -0.0379
  369LIG     H3 5524   9.402   2.650   3.074 -0.4794  2.9875 -0.3462
  369LIG     CA 5525   9.595   2.645   2.992 -0.5312 -0.1428 -0.7047
  369LIG     HA 5526   9.569   2.564   2.926 -0.9308 -0.7664  0.2104
  369LIG     CB 5527   9.588   2.773   2.902  0.1679  0.2451 -0.3840
  369LIG    HB1 5528   9.676   2.766   2.834 -0.4543 -1.0837 -1.0913
  369LIG    HB2 5529   9.607   2.873   2.947  1.3504  1.0504 -2.5057
  369LIG     CG 5530   9.459   2.783   2.820 -0.3715  0.5846 -0.9926
  369LIG    OD1 5531   9.461   2.857   2.718  0.1652  0.4572 -0.4310
  369LIG    OD2 5532   9.356   2.740   2.873 -0.1950  0.2787 -0.4472
  369LIG      C 5533   9.738   2.615   3.045 -0.1303  1.0554 -0.4582
  369LIG    OT1 5534   9.762   2.603   3.170 -0.1517  0.7720  0.1608
  369LIG    OT2 5535   9.828   2.610   2.958  0.5752  0.5042  0.1896
  370LIG      N 5536   9.734   0.607   6.653  0.1263  0.1723  0.1755
  370LIG     H1 5537   9.678   0.543   6.593 -1.6867  2.1339 -0.3287
  370LIG     H2 5538   9.775   0.679   6.591 -0.3211  1.3272  1.1804
  370LIG     H3 5539   9.818   0.561   6.695  0.5919  2.4651  1.9322
  370LIG     CA 5540   9.653   0.659   6.773  0.0917  0.2018 -0.2075
  370LIG     HA 5541   9.549   0.667   6.748  0.2480  1.7575 -0.4754
  370LIG     CB 5542   9.670   0.554   6.887  0.0263  0.3809  0.4933
  370LIG    HB1 5543   9.630   0.587   6.985  1.8054  3.8595  0.2031
  370LIG    HB2 5544   9.778   0.543   6.911  0.2349  0.4203 -0.3965
  370LIG     CG 5545   9.599   0.423   6.851 -0.6024 -0.0513 -0.3549
  370LIG    OD1 5546   9.623   0.328   6.931  0.2931 -0.1320 -0.6770
  370LIG    OD2 5547   9.504   0.430   6.766  0.3136 -0.0396  0.5704
  370LIG      C 5548   9.695   0.800   6.822  0.1723 -0.7693  0.9570
  370LIG    OT1 5549   9.783   0.866   6.753 -0.3548  0.2203 -0.4645
  370LIG    OT2 5550   9.638   0.841   6.931 -0.6889  0.2615  0.3556
  371LIG      N 5551   8.620   5.398   4.381 -0.1971 -0.3856 -0.4168
  371LIG     H1 5552   8.539   5.373   4.321  0.6181  1.8622 -2.6395
  371LIG     H2 5553   8.581   5.439   4.468 -0.2305 -3.0978  0.9297
  371LIG     H3 5554   8.678   5.471   4.334 -2.9643  1.2035 -1.6314
  371LIG     CA 5555   8.704   5.294   4.429  0.3048  0.6613  0.0301
  371LIG     HA 5556   8.752   5.257   4.340 -2.7918 -1.1286 -1.0329
  371LIG     CB 5557   8.820   5.353   4.519 -0.3810  0.0145 -0.1738
  371LIG    HB1 5558   8.903   5.278   4.520 -0.8695 -0.5755 -1.7131
  371LIG    HB2 5559   8.789   5.370   4.624  1.3413  1.3994  0.1679
  371LIG     CG 5560   8.883   5.481   4.479 -0.5025 -0.9387  0.2716
  371LIG    OD1 5561   8.853   5.538   4.372 -0.3603  0.3833  0.3816
  371LIG    OD2 5562   8.962   5.534   4.560  0.3368  0.2528  0.4341
  371LIG      C 5563   8.631   5.167   4.487  0.5705  0.9017 -0.5223
  371LIG    OT1 5564   8.507   5.145   4.473 -0.4768  0.1692 -0.2284
  371LIG    OT2 5565   8.706   5.084   4.551 -0.7417  0.1600  0.4321
  372LIG      N 5566   2.151   1.331   1.183  0.0393 -0.1960  0.1247
  372LIG     H1 5567   2.093   1.391   1.121 -0.0416  1.9991  2.1482
  372LIG     H2 5568   2.083   1.285   1.247 -1.1307  0.5874 -0.5241
  372LIG     H3 5569   2.209   1.388   1.248 -1.0105 -1.1691  2.0072
  372LIG     CA 5570   2.219   1.222   1.110 -0.4289  0.9709  0.3961
  372LIG     HA 5571   2.293   1.182   1.178 -0.1163  0.1053 -0.4103
  372LIG     CB 5572   2.107   1.099   1.069 -0.4360 -0.5873  0.4985
  372LIG    HB1 5573   2.162   1.011   1.028  0.1163 -0.2439  0.4968
  372LIG    HB2 5574   2.048   1.160   0.997  0.1892  1.4448  1.6365
  372LIG     CG 5575   2.013   1.046   1.186  0.1401 -0.5041  0.4606
  372LIG    OD1 5576   2.053   1.066   1.298 -0.1075  0.0168 -0.5830
  372LIG    OD2 5577   1.908   0.979   1.169  0.2906  0.5219  0.5472
  372LIG      C 5578   2.291   1.272   0.981  0.9393  0.9642  0.9403
  372LIG    OT1 5579   2.274   1.390   0.953 -0.3819 -0.3039  0.2860
  372LIG    OT2 5580   2.358   1.188   0.916  0.1342 -0.1490  0.0826
  373LIG      N 5581   8.259   5.312   9.140 -0.1373 -0.3186  1.0526
  373LIG     H1 5582   8.211   5.298   9.231  0.4295  0.0559  1.4120
  373LIG     H2 5583   8.257   5.411   9.107  1.4632 -0.3458  0.7903
  373LIG     H3 5584   8.206   5.260   9.067  1.6288 -1.4789  0.5407
  373LIG     CA 5585   8.401   5.276   9.133 -0.1266 -0.6402 -0.4868
  373LIG     HA 5586   8.447   5.334   9.211 -1.5568 -1.1193  0.7729
  373LIG     CB 5587   8.423   5.127   9.146 -0.0271  0.9855  0.2076
  373LIG    HB1 5588   8.529   5.098   9.134 -0.2846 -0.1341  0.4596
  373LIG    HB2 5589   8.376   5.063   9.068 -0.3540  0.8811  0.4853
  373LIG     CG 5590   8.381   5.086   9.287  0.5699 -0.1297  0.6805
  373LIG    OD1 5591   8.363   5.176   9.375  0.0230 -0.6334  0.0995
  373LIG    OD2 5592   8.399   4.965   9.308 -0.7890 -0.2171 -0.1327
  373LIG      C 5593   8.473   5.324   9.008  0.1840  0.2915  0.3135
  373LIG    OT1 5594   8.403   5.371   8.916 -0.1280  0.1974 -0.1348
  373LIG    OT2 5595   8.599   5.311   9.002 -0.2009 -0.3341  0.1137
  374LIG      N 5596   6.304   3.275   6.534  0.4607  0.3942  0.2746
  374LIG     H1 5597   6.288   3.185   6.483 -1.0477 -1.2085  3.2931
  374LIG     H2 5598   6.405   3.300   6.528  0.8697 -1.2629 -0.5340
  374LIG     H3 5599   6.279   3.251   6.632  0.6960 -3.0085 -0.3759
  374LIG     CA 5600   6.220   3.380   6.479 -0.0661  0.1165  0.1795
  374LIG     HA 5601   6.125   3.337   6.449 -0.3910 -1.1487  2.7712
  374LIG     CB 5602   6.207   3.488   6.583  0.3966 -0.1861 -0.7754
  374LIG    HB1 5603   6.157   3.582   6.549  0.9015  0.1158 -0.7011
  374LIG    HB2 5604   6.311   3.518   6.609  0.4640 -2.0588  1.3401
  374LIG     CG 5605   6.132   3.436   6.701 -0.0984 -0.1704  0.0751
  374LIG    OD1 5606   6.134   3.513   6.799 -0.5425 -0.0379  0.3844
  374LIG    OD2 5607   6.078   3.327   6.697  0.2555  0.8450 -0.2318
  374LIG      C 5608   6.274   3.427   6.346  0.1459 -0.5871 -0.4982
  374LIG    OT1 5609   6.394   3.399   6.318  0.0256  0.1125  0.0989
  374LIG    OT2 5610   6.207   3.511   6.279 -0.3703 -0.2733  0.2092
  375LIG      N 5611   9.356   6.397   3.318 -0.6132  0.6213  0.1086
  375LIG     H1 5612   9.277   6.420   3.380 -1.4603 -1.8426  0.0385
  375LIG     H2 5613   9.412   6.479   3.288 -0.4695 -0.0177 -1.4691
  375LIG     H3 5614   9.312   6.361   3.231 -0.1498 -3.2606  1.2952
  375LIG     CA 5615   9.435   6.287   3.366  0.3613  0.5919 -0.1254
  375LIG     HA 5616   9.475   6.238   3.278 -0.8835 -0.5716 -0.0728
  375LIG     CB 5617   9.554   6.343   3.455 -0.1064 -0.3389 -0.4541
  375LIG    HB1 5618   9.624   6.266   3.494  1.4751  1.7388  1.0481
  375LIG    HB2 5619   9.511   6.394   3.544  0.4929  0.0656 -0.3973
  375LIG     CG 5620   9.652   6.432   3.378  0.2118 -0.2888  0.1181
  375LIG    OD1 5621   9.635   6.447   3.256  0.9838  0.5035  0.1806
  375LIG    OD2 5622   9.746   6.487   3.441  0.0437 -0.2512 -0.3278
  375LIG      C 5623   9.348   6.179   3.432 -0.2730 -0.0730  0.5260
  375LIG    OT1 5624   9.220   6.196   3.434 -0.3916  0.3123 -0.5502
  375LIG    OT2 5625   9.398   6.075   3.482 -0.2403  0.6684  0.2387
  376LIG      N 5626   6.550   1.194   2.806 -0.6922 -0.3426  0.3245
  376LIG     H1 5627   6.487   1.197   2.723  2.0286 -0.0872 -1.8985
  376LIG     H2 5628   6.531   1.115   2.870  1.7269 -0.7842  0.6025
  376LIG     H3 5629   6.535   1.286   2.852 -2.1779 -0.2921 -0.2221
  376LIG     CA 5630   6.695   1.183   2.773  0.0842  0.3272  0.2566
  376LIG     HA 5631   6.699   1.103   2.700  1.5322  0.4692  0.1484
  376LIG     CB 5632   6.750   1.313   2.714 -0.0634 -0.0862  0.0120
  376LIG    HB1 5633   6.860   1.302   2.700  0.1711 -1.0365  2.3389
  376LIG    HB2 5634   6.742   1.400   2.782 -0.0630 -1.0904  1.3185
  376LIG     CG 5635   6.690   1.333   2.574 -0.0493 -0.1473  0.4718
  376LIG    OD1 5636   6.643   1.240   2.505  0.1090  0.4479  0.5280
  376LIG    OD2 5637   6.708   1.452   2.524 -0.3054 -0.0626 -0.1738
  376LIG      C 5638   6.787   1.141   2.886  0.6236 -0.7840  1.1404
  376LIG    OT1 5639   6.752   1.152   3.003  0.2064  0.1207  0.1510
  376LIG    OT2 5640   6.901   1.091   2.863  0.1661  0.4117  0.5825
  377LIG      N 5641   5.824   7.172   8.893  0.1680 -0.5228 -0.2939
  377LIG     H1 5642   5.776   7.108   8.959 -0.1534 -1.6342 -1.5750
  377LIG     H2 5643   5.767   7.260   8.894 -1.5279 -1.5613  1.3218
  377LIG     H3 5644   5.819   7.120   8.803 -1.8127 -0.7341 -0.1175
  377LIG     CA 5645   5.957   7.208   8.950  0.8990 -0.7885 -0.4761
  377LIG     HA 5646   5.948   7.230   9.056  1.8139 -1.7829 -0.1737
  377LIG     CB 5647   6.057   7.095   8.921 -0.4449 -0.2600  0.2564
  377LIG    HB1 5648   6.162   7.131   8.923  0.7657 -3.3732 -1.2407
  377LIG    HB2 5649   6.033   7.062   8.818 -3.4131 -0.4551  0.9158
  377LIG     CG 5650   6.040   6.969   9.011 -0.4786 -0.2938 -0.0531
  377LIG    OD1 5651   5.963   6.978   9.109 -0.4624 -0.1474 -0.2706
  377LIG    OD2 5652   6.116   6.870   8.991  0.3383 -0.2963 -0.0323
  377LIG      C 5653   6.011   7.340   8.882 -0.5591  0.1654  0.0674
  377LIG    OT1 5654   5.936   7.406   8.812 -0.0828 -0.1254 -0.2792
  377LIG    OT2 5655   6.136   7.366   8.897  0.1256 -0.2245 -0.6422
  378LIG      N 5656   6.784   2.229   6.337 -0.4992  0.5321  0.0490
  378LIG     H1 5657   6.744   2.185   6.423  0.8146 -1.1083 -0.1316
  378LIG     H2 5658   6.719   2.217   6.257  0.0015 -0.1087 -0.2700
  378LIG     H3 5659   6.871   2.185   6.303 -0.1890  0.4714  0.8859
  378LIG     CA 5660   6.791   2.376   6.368 -0.1026  0.0984 -0.3927
  378LIG     HA 5661   6.688   2.403   6.349 -0.3446 -1.0693 -0.7903
  378LIG     CB 5662   6.821   2.401   6.526 -0.3895 -0.7394  0.0752
  378LIG    HB1 5663   6.819   2.507   6.560  1.1617 -0.2313 -1.3160
  378LIG    HB2 5664   6.911   2.350   6.566 -0.5878 -0.8382  0.4016
  378LIG     CG 5665   6.704   2.342   6.606 -0.1761  0.2563 -0.5884
  378LIG    OD1 5666   6.668   2.223   6.586  0.2160  0.1897 -0.2562
  378LIG    OD2 5667   6.656   2.410   6.696 -0.5030  0.1300 -0.4492
  378LIG      C 5668   6.880   2.451   6.264  0.2960  0.5725  0.4409
  378LIG    OT1 5669   6.941   2.393   6.168 -0.3611 -0.5339  0.5323
  378LIG    OT2 5670   6.889   2.577   6.270 -0.0045  0.2586 -0.0598
  379LIG      N 5671   0.004   2.502   6.683  0.4361 -0.1850  0.2623
  379LIG     H1 5672   0.043   2.578   6.623  0.2245 -0.4344 -0.2025
  379LIG     H2 5673   0.059   2.414   6.673  0.8299 -0.2372  2.4400
  379LIG     H3 5674  -0.095   2.480   6.657  0.7001 -1.2315  0.1025
  379LIG     CA 5675   0.007   2.543   6.826  0.3205  0.8895 -0.2048
  379LIG     HA 5676  -0.055   2.473   6.879  0.2148  0.0452 -1.3869
  379LIG     CB 5677   0.154   2.537   6.874 -0.1684 -0.1134  0.0419
  379LIG    HB1 5678   0.172   2.600   6.964  1.5439 -2.9545  1.8525
  379LIG    HB2 5679   0.231   2.555   6.797  0.9767 -1.0086  0.9353
  379LIG     CG 5680   0.185   2.403   6.940  0.0925 -0.0666  0.0624
  379LIG    OD1 5681   0.099   2.312   6.933 -0.2216  0.1388 -0.2592
  379LIG    OD2 5682   0.296   2.399   7.009  0.5514 -0.1656  0.2926
  379LIG      C 5683  -0.071   2.673   6.873  0.6624  0.3527  0.3819
  379LIG    OT1 5684  -0.135   2.736   6.785  0.3885 -0.2598 -0.0894
  379LIG    OT2 5685  -0.083   2.709   6.995  0.1017  0.3763 -0.8895
  380LIG      N 5686   7.482   4.381   7.636 -0.6525  0.0603 -0.3871
  380LIG     H1 5687   7.543   4.427   7.566 -0.2061  2.3075  1.3483
  380LIG     H2 5688   7.392   4.355   7.591 -0.2539 -0.1943 -1.0525
  380LIG     H3 5689   7.465   4.457   7.705 -1.5984  1.4125 -2.0168
  380LIG     CA 5690   7.536   4.271   7.717  0.4779 -0.2825 -0.3752
  380LIG     HA 5691   7.631   4.307   7.757 -0.9350  1.7504  1.4272
  380LIG     CB 5692   7.440   4.242   7.829 -0.4283 -0.4633 -0.5430
  380LIG    HB1 5693   7.474   4.158   7.894  0.7452  1.3124  1.2670
  380LIG    HB2 5694   7.348   4.202   7.783  0.1800 -2.4388 -0.1383
  380LIG     CG 5695   7.408   4.353   7.929 -0.3872  0.1653  0.0466
  380LIG    OD1 5696   7.334   4.330   8.024  0.2451  0.0008 -0.1975
  380LIG    OD2 5697   7.435   4.470   7.890 -0.2925  0.3793  0.3206
  380LIG      C 5698   7.569   4.153   7.629 -0.1856  0.2004  0.0958
  380LIG    OT1 5699   7.543   4.162   7.502  0.3081  0.0733  0.3454
  380LIG    OT2 5700   7.617   4.049   7.680 -0.0749  0.6334 -0.7184
  381LIG      N 5701   9.388   2.681   3.814  0.1371 -0.5119  0.0327
  381LIG     H1 5702   9.397   2.785   3.807  2.4834 -0.6276  0.4665
  381LIG     H2 5703   9.441   2.637   3.735 -0.5341  0.0367 -0.7455
  381LIG     H3 5704   9.288   2.654   3.806  0.0059 -0.6192  1.7830
  381LIG     CA 5705   9.441   2.631   3.942  0.4284  0.3433  0.5594
  381LIG     HA 5706   9.541   2.670   3.948  0.0077  1.8874 -1.3245
  381LIG     CB 5707   9.367   2.672   4.062  0.1048  0.5577  0.2495
  381LIG    HB1 5708   9.397   2.625   4.158  2.2492 -0.5733 -0.8872
  381LIG    HB2 5709   9.257   2.668   4.049  0.1758  0.2560 -0.2682
  381LIG     CG 5710   9.392   2.821   4.078 -0.1562 -0.1685  0.5121
  381LIG    OD1 5711   9.463   2.885   3.997  0.2286  0.2568  0.2615
  381LIG    OD2 5712   9.342   2.872   4.177  1.7072  0.2049  0.3267
  381LIG      C 5713   9.461   2.473   3.949 -0.2706  0.8304  0.2566
  381LIG    OT1 5714   9.433   2.398   3.853  0.0804  0.4951 -0.2494
  381LIG    OT2 5715   9.522   2.436   4.054  0.0879 -0.1193 -0.2747
  382LIG      N 5716   1.869   0.970   7.222  0.6423  0.4121  0.0247
  382LIG     H1 5717   1.860   0.979   7.325 -0.9439  0.5309 -0.1040
  382LIG     H2 5718   1.967   0.975   7.186 -0.3509 -0.2958 -3.1059
  382LIG     H3 5719   1.828   1.053   7.173 -0.4932  0.2559  0.6865
  382LIG     CA 5720   1.821   0.835   7.188  0.4501  0.5581  0.9075
  382LIG     HA 5721   1.885   0.767   7.243  0.6677  0.4470  0.5234
  382LIG     CB 5722   1.667   0.832   7.220 -0.3906 -0.0271 -0.4222
  382LIG    HB1 5723   1.618   0.733   7.204 -3.3982  1.4835 -1.1417
  382LIG    HB2 5724   1.607   0.909   7.167 -0.6607  1.4692  1.9154
  382LIG     CG 5725   1.641   0.860   7.371 -0.4088 -0.0690  0.6628
  382LIG    OD1 5726   1.521   0.841   7.397 -0.4142  0.5005  0.0249
  382LIG    OD2 5727   1.726   0.905   7.452  0.0918  0.2035  0.1970
  382LIG      C 5728   1.850   0.786   7.046  0.3828  0.2881  0.1949
  382LIG    OT1 5729   1.937   0.843   6.973 -0.3069  0.3647  0.1483
  382LIG    OT2 5730   1.784   0.692   6.995  0.5001 -0.2088 -0.4142
  383LIG      N 5731   2.750   0.243   0.329  0.9479 -0.0313  0.0052
  383LIG     H1 5732   2.761   0.144   0.300  1.7282  0.2261 -0.5816
  383LIG     H2 5733   2.815   0.303   0.275  1.7201  0.8806  1.8489
  383LIG     H3 5734   2.767   0.244   0.432 -0.2449 -0.5880  0.2307
  383LIG     CA 5735   2.610   0.292   0.304  0.3422 -1.1313 -0.7901
  383LIG     HA 5736   2.542   0.212   0.331  0.2905 -1.2686 -1.2992
  383LIG     CB 5737   2.580   0.417   0.388 -0.6885 -0.3724  0.4419
  383LIG    HB1 5738   2.481   0.466   0.371 -0.9994 -1.0311  0.2928
  383LIG    HB2 5739   2.655   0.498   0.378  1.2657 -2.1174  0.2095
  383LIG     CG 5740   2.582   0.371   0.531 -0.5282  0.3265 -0.3364
  383LIG    OD1 5741   2.682   0.303   0.577 -0.4879  0.2870  0.0034
  383LIG    OD2 5742   2.477   0.394   0.602  0.1426  0.0295 -0.1256
  383LIG      C 5743   2.576   0.323   0.157 -0.5651  0.4262  0.1769
  383LIG    OT1 5744   2.676   0.316   0.077 -0.3894  0.2065  0.4553
  383LIG    OT2 5745   2.465   0.370   0.124 -0.5603  0.2942  0.0837
  384LIG      N 5746   2.319   1.938   3.954  0.2354  0.1460  0.1686
  384LIG     H1 5747   2.247   1.867   3.927 -1.6207  1.7446  0.6644
  384LIG     H2 5748   2.398   1.887   3.999  1.3473  0.9963 -0.7654
  384LIG     H3 5749   2.284   1.993   4.035  0.0322 -1.4888  1.2557
  384LIG     CA 5750   2.362   2.006   3.828  0.5684 -0.2824 -0.1010
  384LIG     HA 5751   2.301   2.090   3.799  2.6574  0.2920 -3.3281
  384LIG     CB 5752   2.499   2.086   3.843  0.9347  0.3203 -0.0303
  384LIG    HB1 5753   2.524   2.131   3.745 -2.1383  1.1316 -0.5613
  384LIG    HB2 5754   2.581   2.015   3.868 -0.5413 -1.5164 -0.1538
  384LIG     CG 5755   2.506   2.197   3.942  1.2203 -0.0895  0.1427
  384LIG    OD1 5756   2.410   2.267   3.970  0.1521  0.6462 -0.2384
  384LIG    OD2 5757   2.621   2.218   3.986 -0.4426 -0.3831  0.6890
  384LIG      C 5758   2.364   1.912   3.701 -0.0205 -0.0600  0.1553
  384LIG    OT1 5759   2.307   1.803   3.709  0.4534  0.4108  0.6354
  384LIG    OT2 5760   2.411   1.955   3.590 -0.1140  0.5468 -0.0069
  385LIG      N 5761   6.756   7.978   7.368 -0.5789  0.7352 -0.8056
  385LIG     H1 5762   6.693   8.008   7.291 -1.2153 -0.6014 -0.8325
  385LIG     H2 5763   6.712   7.898   7.417  1.2947 -0.5861 -1.1837
  385LIG     H3 5764   6.787   8.055   7.432 -0.2072  0.5548 -0.7693
  385LIG     CA 5765   6.887   7.922   7.314  0.8101 -0.3566 -0.5587
  385LIG     HA 5766   6.938   8.000   7.260  0.1299  0.7678  0.3712
  385LIG     CB 5767   6.974   7.865   7.436 -0.0572 -0.6314  0.4237
  385LIG    HB1 5768   7.067   7.819   7.396  0.2477 -0.9276  1.4334
  385LIG    HB2 5769   6.915   7.791   7.495 -1.2403 -0.0818 -0.0367
  385LIG     CG 5770   7.021   7.970   7.531  0.4321  0.1010  0.1290
  385LIG    OD1 5771   6.975   8.083   7.509 -0.4760  0.1155  0.9693
  385LIG    OD2 5772   7.102   7.940   7.621  0.3920  0.1525 -0.5121
  385LIG      C 5773   6.864   7.798   7.223 -0.0538 -0.2258 -0.0528
  385LIG    OT1 5774   6.748   7.753   7.204 -0.0953  0.2247  0.0984
  385LIG    OT2 5775   6.969   7.761   7.161 -0.0880 -0.0196 -0.0654
  386LIG      N 5776   3.231   9.031   9.178  0.6004  0.0824 -0.6589
  386LIG     H1 5777   3.231   9.135   9.181  1.8358  0.0884 -0.0208
  386LIG     H2 5778   3.136   8.996   9.201  0.5408  1.0947  0.8069
  386LIG     H3 5779   3.297   8.998   9.251  1.4357  0.3339 -1.2846
  386LIG     CA 5780   3.270   8.989   9.041 -0.6029 -0.3335 -0.6076
  386LIG     HA 5781   3.265   8.881   9.048 -1.5619 -0.2435  0.4586
  386LIG     CB 5782   3.148   9.028   8.953  0.1489 -0.9719  0.2167
  386LIG    HB1 5783   3.170   9.023   8.845  0.3240 -0.2651  0.2161
  386LIG    HB2 5784   3.141   9.136   8.978  1.3350 -0.8096 -0.0676
  386LIG     CG 5785   3.013   8.959   8.973  0.6409 -0.0593 -0.4131
  386LIG    OD1 5786   2.910   9.026   8.948 -0.5742 -0.2822  0.0092
  386LIG    OD2 5787   3.011   8.841   9.016 -0.6285 -0.4645 -0.2746
  386LIG      C 5788   3.405   9.046   8.994  0.3861  0.3687 -0.7598
  386LIG    OT1 5789   3.468   9.113   9.076 -0.3050  0.2415 -0.3610
  386LIG    OT2 5790   3.455   9.009   8.884  0.7785 -0.2012  0.1673
  387LIG      N 5791   7.854   4.861   1.215  0.5342 -0.0888  0.0163
  387LIG     H1 5792   7.825   4.952   1.174  1.0270 -0.0751 -0.3029
  387LIG     H2 5793   7.781   4.808   1.268  0.6110  0.7796  1.0401
  387LIG     H3 5794   7.933   4.883   1.279  0.2709 -0.1291  0.3579
  387LIG     CA 5795   7.917   4.766   1.129  0.1574 -0.5637  0.1970
  387LIG     HA 5796   7.994   4.810   1.068  0.5389  0.6756  1.5316
  387LIG     CB 5797   7.966   4.646   1.219  0.2493  0.0952  0.2374
  387LIG    HB1 5798   8.010   4.577   1.144 -1.8553 -2.0641  0.8536
  387LIG    HB2 5799   7.888   4.593   1.278 -0.9788  1.3594 -0.1963
  387LIG     CG 5800   8.079   4.687   1.314 -0.2419  1.0278 -0.6961
  387LIG    OD1 5801   8.091   4.812   1.344 -0.1895 -0.0350 -0.1915
  387LIG    OD2 5802   8.143   4.597   1.376 -0.4125 -0.2206 -0.0928
  387LIG      C 5803   7.815   4.710   1.026 -0.2860  0.0310  0.2676
  387LIG    OT1 5804   7.698   4.748   1.017  0.4320  0.0343 -0.0542
  387LIG    OT2 5805   7.853   4.611   0.959 -0.8430  0.3502  0.4030
  388LIG      N 5806   1.459   8.007   1.172  0.2069 -0.5484  0.9551
  388LIG     H1 5807   1.403   7.924   1.200 -0.4088  0.1932  1.9671
  388LIG     H2 5808   1.518   7.972   1.094  1.1949 -1.7998  2.2166
  388LIG     H3 5809   1.527   8.041   1.243 -1.5788  0.3783  2.2806
  388LIG     CA 5810   1.351   8.110   1.142 -0.0858 -0.7649  0.5805
  388LIG     HA 5811   1.266   8.056   1.104 -1.1180  1.2371 -0.0372
  388LIG     CB 5812   1.312   8.183   1.272 -0.3763 -0.0711 -0.3867
  388LIG    HB1 5813   1.238   8.262   1.246 -3.0440 -1.3123  2.6935
  388LIG    HB2 5814   1.390   8.232   1.333 -0.6050 -1.1701  0.8347
  388LIG     CG 5815   1.234   8.089   1.364 -0.2305  0.2099  0.1383
  388LIG    OD1 5816   1.233   7.964   1.343 -0.2242 -0.0162 -0.2040
  388LIG    OD2 5817   1.170   8.147   1.457  0.1301  0.5874  0.4018
  388LIG      C 5818   1.394   8.219   1.036  0.5033  0.4266  0.3621
  388LIG    OT1 5819   1.517   8.225   0.992  0.7110  0.2809  0.6707
  388LIG    OT2 5820   1.299   8.294   1.001  0.1306 -0.4115  0.3096
  389LIG      N 5821   3.063   7.455   5.120  0.3089 -0.0628 -0.5339
  389LIG     H1 5822   2.989   7.405   5.174  1.0856 -0.0171  0.6203
  389LIG     H2 5823   3.155   7.432   5.163 -1.1336 -0.0910  2.8753
  389LIG     H3 5824   3.048   7.557   5.133  1.4663 -0.1039  1.5897
  389LIG     CA 5825   3.064   7.425   4.973  0.6927  0.2489 -0.7227
  389LIG     HA 5826   2.967   7.452   4.935 -0.9149 -3.9801 -0.1995
  389LIG     CB 5827   3.174   7.494   4.900 -0.0429  0.1906  0.0033
  389LIG    HB1 5828   3.170   7.439   4.804 -3.4615 -2.0009  1.2303
  389LIG    HB2 5829   3.276   7.482   4.944  0.5522  0.9043 -1.1149
  389LIG     CG 5830   3.141   7.634   4.886 -0.4023  0.4686  0.8437
  389LIG    OD1 5831   3.207   7.696   4.799  0.6811  0.1487  0.3638
  389LIG    OD2 5832   3.045   7.685   4.945  0.1856 -0.0533  0.1018
  389LIG      C 5833   3.078   7.279   4.940 -0.5112  0.2470 -0.0467
  389LIG    OT1 5834   3.110   7.201   5.031 -0.7846  0.2850  0.3274
  389LIG    OT2 5835   3.054   7.237   4.822 -0.1174 -0.0933 -0.0229
  390LIG      N 5836   1.919   8.764   8.456 -0.2925 -0.4271 -0.1436
  390LIG     H1 5837   1.890   8.790   8.553 -0.2286  1.9857 -0.6893
  390LIG     H2 5838   1.916   8.852   8.400  2.8671 -1.3132 -1.9506
  390LIG     H3 5839   1.861   8.683   8.425  0.5917 -0.9439 -0.4669
  390LIG     CA 5840   2.060   8.708   8.446  0.1573  0.2933 -0.6521
  390LIG     HA 5841   2.068   8.602   8.460 -1.1545  0.2268 -0.2703
  390LIG     CB 5842   2.121   8.742   8.306 -0.3120  0.5465  0.3483
  390LIG    HB1 5843   2.231   8.733   8.303  0.1327  4.1112  1.1961
  390LIG    HB2 5844   2.109   8.849   8.277 -0.0764  0.8504  1.3337
  390LIG     CG 5845   2.074   8.651   8.192  0.7317 -0.5229 -0.4227
  390LIG    OD1 5846   1.981   8.569   8.218 -0.1386 -0.1293  0.4330
  390LIG    OD2 5847   2.109   8.670   8.074  0.0373  0.1059 -0.0023
  390LIG      C 5848   2.155   8.776   8.556  0.1979 -0.4940 -0.0784
  390LIG    OT1 5849   2.113   8.875   8.625 -1.0488 -0.0170 -0.1945
  390LIG    OT2 5850   2.271   8.749   8.567 -0.0906 -0.1140  0.1649
  391LIG      N 5851   2.945   8.159   3.287 -0.1425  1.0924  0.2419
  391LIG     H1 5852   2.914   8.060   3.283 -0.3847  1.1544  0.6510
  391LIG     H2 5853   2.892   8.200   3.366 -1.7420 -2.5155  1.2052
  391LIG     H3 5854   2.913   8.202   3.198  0.6274  0.4445 -0.3679
  391LIG     CA 5855   3.084   8.182   3.310 -0.7640  0.1843 -0.1830
  391LIG     HA 5856   3.136   8.141   3.224  1.7209 -1.3536  1.9025
  391LIG     CB 5857   3.114   8.330   3.341  0.0120 -0.5698 -0.3530
  391LIG    HB1 5858   3.223   8.333   3.359 -0.3430 -0.3004  2.2314
  391LIG    HB2 5859   3.072   8.357   3.441  0.5950 -3.2464  0.7195
  391LIG     CG 5860   3.065   8.424   3.231 -0.4754 -0.3932 -0.6482
  391LIG    OD1 5861   2.989   8.385   3.140  0.0813  0.1931 -0.7413
  391LIG    OD2 5862   3.095   8.544   3.245  0.1329 -0.1425 -0.2785
  391LIG      C 5863   3.135   8.103   3.438  0.0936 -0.1483 -0.3840
  391LIG    OT1 5864   3.053   8.040   3.514  0.8730  0.6527  0.4808
  391LIG    OT2 5865   3.255   8.123   3.464 -0.2287 -0.3418 -0.0877
  392LIG      N 5866   7.536   5.519   4.756 -0.2822 -0.1737  0.1200
  392LIG     H1 5867   7.611   5.455   4.725 -0.1141 -0.8650  1.8506
  392LIG     H2 5868   7.466   5.466   4.812  1.2103 -2.0534  0.3002
  392LIG     H3 5869   7.490   5.555   4.669  0.1819 -1.1289 -0.5346
  392LIG     CA 5870   7.597   5.638   4.817 -0.0311 -0.4086 -0.4124
  392LIG     HA 5871   7.665   5.607   4.895  0.0444  2.0375  0.5901
  392LIG     CB 5872   7.678   5.730   4.717 -0.1895 -0.4552 -0.2667
  392LIG    HB1 5873   7.700   5.826   4.769 -0.6827 -0.1563 -0.6053
  392LIG    HB2 5874   7.618   5.758   4.628  1.5660  1.3816 -0.9483
  392LIG     CG 5875   7.808   5.674   4.678 -0.4056  0.0470  0.0009
  392LIG    OD1 5876   7.888   5.737   4.604 -0.1363 -0.2015 -0.4945
  392LIG    OD2 5877   7.846   5.563   4.720 -0.7143 -1.1877 -0.5075
  392LIG      C 5878   7.490   5.729   4.893 -0.0099  0.8106 -0.0323
  392LIG    OT1 5879   7.368   5.697   4.877 -0.3081  0.2362 -0.0065
  392LIG    OT2 5880   7.524   5.832   4.950  0.6092  0.3218  0.1098
  393LIG      N 5881   1.063   7.395   3.145  0.5286 -0.2823 -0.2290
  393LIG     H1 5882   1.146   7.458   3.148 -0.2947  0.8347  2.3950
  393LIG     H2 5883   1.070   7.348   3.053  2.3382  1.0192 -0.8194
  393LIG     H3 5884   0.973   7.448   3.155  1.2040  1.0156 -0.7478
  393LIG     CA 5885   1.093   7.287   3.252 -0.6782  0.1225 -0.3559
  393LIG     HA 5886   1.001   7.231   3.254 -0.9034  0.2637 -3.1078
  393LIG     CB 5887   1.217   7.207   3.204 -0.0416 -0.1585  0.0865
  393LIG    HB1 5888   1.248   7.142   3.288  0.1375 -1.6267 -1.0703
  393LIG    HB2 5889   1.313   7.261   3.190  0.2160 -0.0671  2.0473
  393LIG     CG 5890   1.178   7.125   3.086 -0.3151 -0.7590  0.3985
  393LIG    OD1 5891   1.262   7.054   3.021 -0.1045  0.3730  0.0014
  393LIG    OD2 5892   1.060   7.124   3.048  0.1045 -0.1936 -0.1802
  393LIG      C 5893   1.127   7.357   3.390 -0.1650 -0.3483 -0.0993
  393LIG    OT1 5894   1.150   7.481   3.406  0.8830 -0.5694  0.2568
  393LIG    OT2 5895   1.151   7.279   3.484 -0.7410 -0.0534  0.5378
  394LIG      N 5896   8.512   4.915   6.584  0.5072  0.0741  0.0664
  394LIG     H1 5897   8.576   4.997   6.576  2.3343 -1.2877 -0.0387
  394LIG     H2 5898   8.448   4.911   6.503 -0.2650 -0.6336  0.6935
  394LIG     H3 5899   8.452   4.921   6.669 -1.4874  0.9887 -1.3442
  394LIG     CA 5900   8.582   4.781   6.571  0.9796 -0.5508 -0.7479
  394LIG     HA 5901   8.644   4.757   6.656  1.6339 -1.4358 -1.4570
  394LIG     CB 5902   8.466   4.675   6.583 -0.7694  0.7376 -0.0218
  394LIG    HB1 5903   8.511   4.573   6.585  1.0627  1.5248  1.2946
  394LIG    HB2 5904   8.386   4.675   6.505 -3.0005 -1.7365  2.0808
  394LIG     CG 5905   8.395   4.688   6.716  0.4352 -0.1348 -0.1584
  394LIG    OD1 5906   8.392   4.794   6.784 -0.1133  0.7107  0.4187
  394LIG    OD2 5907   8.324   4.591   6.755  0.1463  0.7283  0.4470
  394LIG      C 5908   8.680   4.756   6.450  0.8067 -0.1286  0.3524
  394LIG    OT1 5909   8.715   4.853   6.377  0.0733 -0.0911 -0.0591
  394LIG    OT2 5910   8.731   4.645   6.437  1.2395 -0.2074 -0.0484
  395LIG      N 5911   8.994   3.775   3.011 -0.4464  0.0325 -0.3962
  395LIG     H1 5912   8.989   3.765   2.907 -1.7896 -0.0270 -0.3426
  395LIG     H2 5913   9.056   3.857   3.024  1.8892 -1.8275  1.1259
  395LIG     H3 5914   9.038   3.693   3.059 -1.0954  0.2830  0.6650
  395LIG     CA 5915   8.858   3.806   3.077 -0.3227  0.5074  0.1892
  395LIG     HA 5916   8.788   3.739   3.030  0.1399  0.0439  0.1527
  395LIG     CB 5917   8.865   3.766   3.238 -0.0059  0.3096  0.5640
  395LIG    HB1 5918   8.763   3.779   3.279 -0.8413 -0.5684 -1.1263
  395LIG    HB2 5919   8.943   3.830   3.285  1.4728 -0.8055 -0.2783
  395LIG     CG 5920   8.901   3.624   3.257 -0.1446  0.9078 -0.6346
  395LIG    OD1 5921   8.919   3.578   3.372  0.5442 -0.1334 -0.9325
  395LIG    OD2 5922   8.914   3.547   3.158  0.0345  0.5118  0.2343
  395LIG      C 5923   8.824   3.965   3.055  0.3779 -0.3642 -0.1216
  395LIG    OT1 5924   8.908   4.052   3.007 -0.4723  0.5033  0.1860
  395LIG    OT2 5925   8.713   4.004   3.092 -0.0411  0.0349 -0.6866
  396LIG      N 5926   3.069   6.588   7.786  0.5904  0.3117  0.5180
  396LIG     H1 5927   2.978   6.553   7.752  0.9893  0.4239 -0.7031
  396LIG     H2 5928   3.101   6.646   7.706  0.4344 -3.1642 -2.2880
  396LIG     H3 5929   3.131   6.507   7.806  0.6658  0.5586  1.3333
  396LIG     CA 5930   3.059   6.653   7.917 -0.8359  0.1165 -0.2779
  396LIG     HA 5931   3.144   6.719   7.924 -0.0191 -0.8985 -0.3460
  396LIG     CB 5932   2.950   6.756   7.935  0.1395 -0.0393 -0.3360
  396LIG    HB1 5933   2.957   6.834   7.857 -3.2544 -0.8243 -1.5971
  396LIG    HB2 5934   2.955   6.792   8.040  2.5334  0.3248 -0.5224
  396LIG     CG 5935   2.815   6.689   7.929  0.0983  0.6434 -0.2845
  396LIG    OD1 5936   2.798   6.579   7.872  0.3042  0.6222  0.5898
  396LIG    OD2 5937   2.723   6.752   7.979  0.5685  0.0990 -0.0859
  396LIG      C 5938   3.078   6.555   8.033  0.0084  0.4672  0.3969
  396LIG    OT1 5939   3.092   6.434   8.007  0.2525  0.3530  0.1071
  396LIG    OT2 5940   3.072   6.604   8.153 -0.5894 -0.3998  0.9111
  397LIG      N 5941   2.940   1.155   0.355 -0.2227 -0.0972 -0.0211
  397LIG     H1 5942   2.879   1.218   0.298 -0.8867  0.6565  1.4614
  397LIG     H2 5943   3.026   1.211   0.371 -1.3866  1.4643  1.0878
  397LIG     H3 5944   2.958   1.068   0.302  1.6082 -1.2455  2.3191
  397LIG     CA 5945   2.872   1.123   0.488  0.4157  0.3800 -0.0196
  397LIG     HA 5946   2.831   1.217   0.521  0.0135  0.1717  0.0748
  397LIG     CB 5947   2.757   1.019   0.467  0.6167 -0.1505 -0.0995
  397LIG    HB1 5948   2.712   1.005   0.568 -2.7414  3.5240 -0.8444
  397LIG    HB2 5949   2.793   0.930   0.411 -1.9750  0.0460 -2.3202
  397LIG     CG 5950   2.643   1.069   0.374  0.0784  1.0360 -0.5475
  397LIG    OD1 5951   2.555   0.990   0.341  0.5869 -0.0731  0.0033
  397LIG    OD2 5952   2.643   1.186   0.333 -0.2799  0.1744  0.2192
  397LIG      C 5953   2.970   1.082   0.599 -0.2755 -0.6257  0.1875
  397LIG    OT1 5954   3.094   1.084   0.574  0.0231 -0.2791  0.0674
  397LIG    OT2 5955   2.920   1.055   0.706 -0.4185 -0.1654 -0.0164
  398LIG      N 5956   1.245   7.103   1.961  1.0915  0.0181 -0.5098
  398LIG     H1 5957   1.330   7.101   1.902  1.2823 -1.1915 -0.2080
  398LIG     H2 5958   1.237   7.022   2.026 -1.5996 -0.2370 -1.0121
  398LIG     H3 5959   1.163   7.090   1.897  0.9065 -3.6572  0.2420
  398LIG     CA 5960   1.247   7.227   2.038  0.1627  0.0367  0.0995
  398LIG     HA 5961   1.341   7.230   2.091 -1.2768  0.7640  2.8036
  398LIG     CB 5962   1.235   7.353   1.946 -0.1911  0.3524  0.4651
  398LIG    HB1 5963   1.271   7.441   2.004 -0.5786  0.1456  1.0297
  398LIG    HB2 5964   1.132   7.382   1.915  0.2440  2.4173  0.7760
  398LIG     CG 5965   1.330   7.363   1.835  0.1772  0.0202 -0.4455
  398LIG    OD1 5966   1.332   7.457   1.757 -0.3961  0.2873  0.5625
  398LIG    OD2 5967   1.422   7.277   1.832 -0.1522 -0.1412  0.2441
  398LIG      C 5968   1.143   7.223   2.152  0.5392  0.4807 -0.3594
  398LIG    OT1 5969   1.079   7.118   2.190 -0.0164 -0.1004 -0.3696
  398LIG    OT2 5970   1.120   7.336   2.200  0.1911 -0.4999  0.6640
  399LIG      N 5971   7.651   7.757   4.796  0.2605  0.1609  0.3809
  399LIG     H1 5972   7.689   7.768   4.700  1.7213  0.8262  1.0007
  399LIG     H2 5973   7.548   7.771   4.803  0.4301  1.8149  0.0433
  399LIG     H3 5974   7.703   7.829   4.851  1.9363 -0.6474 -0.0759
  399LIG     CA 5975   7.685   7.627   4.858  0.4175  0.0539 -0.0579
  399LIG     HA 5976   7.783   7.600   4.823 -0.0407  0.3409 -1.6233
  399LIG     CB 5977   7.682   7.639   5.009  0.4786  0.3259 -0.1714
  399LIG    HB1 5978   7.697   7.534   5.045  0.3093 -0.9403 -3.4742
  399LIG    HB2 5979   7.579   7.673   5.031  0.1947 -0.8485  0.4286
  399LIG     CG 5980   7.790   7.722   5.070  0.1321  0.3349 -1.0537
  399LIG    OD1 5981   7.883   7.770   5.006  0.3384  0.6989 -0.0702
  399LIG    OD2 5982   7.786   7.732   5.196  0.0485  0.1714 -0.3764
  399LIG      C 5983   7.601   7.501   4.802  0.3384 -0.0667 -0.5095
  399LIG    OT1 5984   7.528   7.526   4.698 -0.3692  0.2047  0.1845
  399LIG    OT2 5985   7.606   7.389   4.857  0.3368  0.0920  0.4184
  400LIG      N 5986   5.385   9.712   3.321  0.0290  0.7101 -0.2669
  400LIG     H1 5987   5.451   9.634   3.304 -1.5204 -0.7260  0.1282
  400LIG     H2 5988   5.423   9.787   3.383  1.2385 -0.0844 -0.0202
  400LIG     H3 5989   5.310   9.668   3.378  0.8723 -2.2025 -1.2713
  400LIG     CA 5990   5.318   9.763   3.206 -0.8332 -0.0693 -0.2587
  400LIG     HA 5991   5.247   9.832   3.249  1.2317  1.5049  0.7615
  400LIG     CB 5992   5.426   9.825   3.112  0.0239 -0.1220 -0.1699
  400LIG    HB1 5993   5.372   9.853   3.019  0.3779 -1.1713 -0.7111
  400LIG    HB2 5994   5.512   9.758   3.090 -1.0975 -1.9110  0.6756
  400LIG     CG 5995   5.466   9.956   3.189 -0.5308 -0.6495  0.3598
  400LIG    OD1 5996   5.584   9.970   3.229 -0.2434 -0.1640 -0.1874
  400LIG    OD2 5997   5.368  10.032   3.214  0.3713  0.2924  0.0212
  400LIG      C 5998   5.255   9.649   3.126 -0.6710 -0.1848  0.1209
  400LIG    OT1 5999   5.277   9.532   3.170 -0.1301 -0.1541  0.1108
  400LIG    OT2 6000   5.189   9.667   3.022  0.1194 -0.1760  0.5009
  401LIG      N 6001   7.151   5.401   7.845  0.0642 -0.6943  0.9344
  401LIG     H1 6002   7.228   5.345   7.886  0.6054 -0.7056 -0.0580
  401LIG     H2 6003   7.062   5.350   7.862  0.5757 -1.8558  0.2444
  401LIG     H3 6004   7.158   5.389   7.742  0.2214 -2.0073  1.0810
  401LIG     CA 6005   7.160   5.539   7.895  0.3401  0.3469 -0.5969
  401LIG     HA 6006   7.144   5.542   8.002 -1.1132  0.0943 -0.7867
  401LIG     CB 6007   7.289   5.598   7.851 -0.3641 -0.0902  0.0698
  401LIG    HB1 6008   7.288   5.708   7.864  0.7607  0.1627 -1.6167
  401LIG    HB2 6009   7.312   5.580   7.743  0.4144  0.8178  0.0680
  401LIG     CG 6010   7.397   5.535   7.937  0.7123  0.0452  0.0644
  401LIG    OD1 6011   7.371   5.441   8.021 -0.1877 -0.6489  0.4245
  401LIG    OD2 6012   7.514   5.571   7.919  0.0414 -0.1060 -0.2090
  401LIG      C 6013   7.031   5.617   7.835 -0.2717  0.0431 -0.5712
  401LIG    OT1 6014   6.968   5.568   7.739 -0.1418  0.6782 -0.1996
  401LIG    OT2 6015   7.003   5.731   7.888  0.1634 -0.3685  0.1018
  402LIG      N 6016   8.551   3.756   2.008  0.1784 -0.0976 -0.5059
  402LIG     H1 6017   8.577   3.719   1.914 -1.0132 -1.7403 -0.2329
  402LIG     H2 6018   8.636   3.738   2.066  0.5947  1.2649 -0.6519
  402LIG     H3 6019   8.470   3.710   2.053  1.2835 -1.5738  0.0477
  402LIG     CA 6020   8.518   3.901   2.000 -0.1461 -0.2498 -0.5003
  402LIG     HA 6021   8.480   3.917   2.100 -2.6273 -3.6218 -0.7389
  402LIG     CB 6022   8.634   4.005   1.971  0.1855  0.1677 -0.0003
  402LIG    HB1 6023   8.589   4.105   1.953 -2.1570 -1.0865 -1.6345
  402LIG    HB2 6024   8.677   3.979   1.872  1.5924  1.7558  0.1347
  402LIG     CG 6025   8.726   3.999   2.088 -0.1170  0.3412  0.8461
  402LIG    OD1 6026   8.686   3.967   2.205 -0.1109  0.2676 -0.1775
  402LIG    OD2 6027   8.846   4.035   2.069 -0.4066 -0.1886  0.4770
  402LIG      C 6028   8.398   3.927   1.910 -0.4238  0.4379  0.0456
  402LIG    OT1 6029   8.359   3.837   1.834  0.2501 -0.1651  0.1090
  402LIG    OT2 6030   8.338   4.041   1.920  0.0128  0.4865  0.3493
  403LIG      N 6031   0.083   2.594   2.220 -0.3005 -0.3848 -0.3420
  403LIG     H1 6032   0.085   2.607   2.117  0.3283 -0.6920 -0.3713
  403LIG     H2 6033   0.182   2.575   2.246 -1.0376 -1.1928  2.1511
  403LIG     H3 6034   0.017   2.521   2.252  0.5515 -1.3348 -0.7096
  403LIG     CA 6035   0.054   2.733   2.284  0.0121  0.0545  0.5316
  403LIG     HA 6036   0.088   2.742   2.386  1.6865  1.8391 -0.1220
  403LIG     CB 6037   0.127   2.836   2.200 -0.4496  0.0827 -0.2846
  403LIG    HB1 6038   0.090   2.939   2.220 -0.0410  0.3249 -0.7513
  403LIG    HB2 6039   0.113   2.823   2.090  0.5090 -0.6606 -0.3410
  403LIG     CG 6040   0.280   2.834   2.216  0.3666  0.4260  0.7477
  403LIG    OD1 6041   0.363   2.912   2.158  0.1610  0.2499 -0.3971
  403LIG    OD2 6042   0.320   2.748   2.293 -0.0738  0.6469  0.1941
  403LIG      C 6043  -0.093   2.776   2.282  0.3702  1.0132 -0.3244
  403LIG    OT1 6044  -0.185   2.708   2.224 -0.2807  0.1235  0.4945
  403LIG    OT2 6045  -0.117   2.871   2.360  0.8405 -0.2154  0.1904
  404LIG      N 6046   7.411   6.984   2.416 -0.3391 -0.1557  0.1389
  404LIG     H1 6047   7.356   7.068   2.443  0.2353 -0.0012  0.8610
  404LIG     H2 6048   7.393   6.957   2.317 -2.5839  0.8722  0.2137
  404LIG     H3 6049   7.391   6.904   2.479  2.1268  0.6503  2.1405
  404LIG     CA 6050   7.553   7.034   2.449 -0.3050  0.3661 -0.0161
  404LIG     HA 6051   7.634   6.990   2.393  0.5333  1.2689  0.4540
  404LIG     CB 6052   7.571   7.176   2.408  0.4985  0.2669  1.0582
  404LIG    HB1 6053   7.673   7.207   2.439  0.4301  2.2467 -0.5104
  404LIG    HB2 6054   7.505   7.249   2.460 -1.2045 -1.3875  1.3321
  404LIG     CG 6055   7.574   7.190   2.253  0.0531  0.0945 -0.0921
  404LIG    OD1 6056   7.531   7.296   2.201 -0.2328  0.2537  0.5949
  404LIG    OD2 6057   7.623   7.106   2.178  0.1346 -0.3129 -0.0313
  404LIG      C 6058   7.587   7.004   2.597 -0.5827  0.0856 -0.0141
  404LIG    OT1 6059   7.494   6.970   2.675  0.3953 -0.0438 -0.3973
  404LIG    OT2 6060   7.706   7.019   2.641  0.1317 -0.2499 -0.5062
  405SOL     OW 6061   2.526   2.536   6.416 -0.1269  0.1468 -0.0877
  405SOL    HW1 6062   2.604   2.547   6.471 -0.1030  1.2502 -0.3117
  405SOL    HW2 6063   2.476   2.467   6.459  1.0226 -0.6663 -0.0035
  406SOL     OW 6064   2.673   4.249   6.967 -0.0732 -0.1757 -0.0876
  406SOL    HW1 6065   2.761   4.262   6.999 -0.3649  0.5680  0.4308
  406SOL    HW2 6066   2.677   4.273   6.874  0.9283 -2.9927 -0.8859
  407SOL     OW 6067   9.036   0.104   5.631 -0.9978  0.4173  0.1657
  407SOL    HW1 6068   9.015   0.012   5.621 -0.7620  0.2928  0.7323
  407SOL    HW2 6069   9.123   0.105   5.670 -0.2544  0.9120 -1.4297
  408SOL     OW 6070   1.733   3.539   0.033 -0.4649 -1.1089 -0.1172
  408SOL    HW1 6071   1.693   3.454   0.047  0.1056 -1.3134  0.3139
  408SOL    HW2 6072   1.662   3.595   0.002 -0.8755 -1.6977 -0.2408
  409SOL     OW 6073   3.335   1.383   9.726 -0.0838 -0.2493 -0.4316
  409SOL    HW1 6074   3.303   1.418   9.643 -0.4665 -1.9061 -1.0261
  409SOL    HW2 6075   3.342   1.289   9.711  2.7828 -0.2863  0.4204
  410SOL     OW 6076   7.446   4.739   7.680 -0.8559  0.4814 -0.3096
  410SOL    HW1 6077   7.491   4.807   7.630 -1.5538  0.6597 -0.7033
  410SOL    HW2 6078   7.441   4.774   7.769  0.4222  0.1469 -0.0909
  411SOL     OW 6079   3.536   4.381   2.988  0.2431 -0.0492  0.2468
  411SOL    HW1 6080   3.621   4.406   3.026  0.3404  0.1255 -0.0788
  411SOL    HW2 6081   3.523   4.290   3.014  0.3911  0.0179  0.5523
  412SOL     OW 6082   3.683   4.614   6.635  0.1675 -0.7174 -0.0156
  412SOL    HW1 6083   3.682   4.594   6.729 -0.6658  1.1965  0.4335
  412SOL    HW2 6084   3.726   4.700   6.630  1.1542 -1.2622 -1.5255
  413SOL     OW 6085   8.573   1.554   8.243 -0.2663  0.0285  0.7162
  413SOL    HW1 6086   8.627   1.630   8.267 -1.4134  1.1824 -0.1953
  413SOL    HW2 6087   8.516   1.541   8.319 -1.0482  1.0244  0.3251
  414SOL     OW 6088   7.184   9.295   6.374  0.7243 -0.0730 -0.1391
  414SOL    HW1 6089   7.258   9.237   6.393 -0.3429 -1.1301  0.9542
  414SOL    HW2 6090   7.150   9.320   6.460  0.4701  1.2990 -0.6092
  415SOL     OW 6091   4.095   5.615   0.092  0.2910  0.1533 -0.4505
  415SOL    HW1 6092   4.113   5.705   0.120  0.4153  0.0370 -0.1505
  415SOL    HW2 6093   4.116   5.561   0.169 -4.2156  0.1977  1.1209
  416SOL     OW 6094   2.448   0.312   2.907 -0.0305 -0.2172  0.1817
  416SOL    HW1 6095   2.453   0.237   2.848 -0.8004 -0.0887 -0.0604
  416SOL    HW2 6096   2.491   0.283   2.987 -0.2158 -0.8822  0.0490
  417SOL     OW 6097   9.750   3.297   7.816  0.0110 -0.4692 -0.3959
  417SOL    HW1 6098   9.807   3.333   7.747  2.8354 -0.6233  1.6446
  417SOL    HW2 6099   9.687   3.367   7.833  0.3753  0.2764 -1.9071
  418SOL     OW 6100   4.994   7.958   4.106 -0.6151  0.2151  0.1547
  418SOL    HW1 6101   4.976   7.995   4.019 -1.2240  0.1803  0.2601
  418SOL    HW2 6102   5.037   8.030   4.153  0.0051  0.1304 -0.2711
  419SOL     OW 6103   8.221   0.164   8.157 -0.1612  0.1412 -0.4162
  419SOL    HW1 6104   8.269   0.236   8.198  0.8397  0.1480 -1.5655
  419SOL    HW2 6105   8.286   0.117   8.105 -1.1000 -0.7218 -0.8582
  420SOL     OW 6106   4.603   4.303   0.611  0.1532  0.1847 -0.5819
  420SOL    HW1 6107   4.669   4.234   0.621 -0.5071 -0.6724 -1.8836
  420SOL    HW2 6108   4.592   4.338   0.699  0.1261 -1.7616  0.2526
  421SOL     OW 6109   8.503   2.803   4.604  0.5799  0.0290 -0.3072
  421SOL    HW1 6110   8.501   2.898   4.615  1.0217 -0.1868  2.3084
  421SOL    HW2 6111   8.469   2.768   4.687 -2.0411 -2.1398 -2.0903
  422SOL     OW 6112   9.088   7.173   5.631 -0.1936 -0.6762  0.2927
  422SOL    HW1 6113   9.126   7.088   5.610  1.5568 -0.2480  1.5427
  422SOL    HW2 6114   9.027   7.156   5.703 -0.9832 -1.0781 -0.4571
  423SOL     OW 6115   6.395   4.400   7.482 -0.3453 -0.3257  0.1193
  423SOL    HW1 6116   6.443   4.371   7.404 -0.3219  1.3213 -0.5030
  423SOL    HW2 6117   6.308   4.424   7.450 -0.3872  0.2230  0.6223
  424SOL     OW 6118   5.023   8.737   7.151 -0.3484  0.1105  0.5962
  424SOL    HW1 6119   5.058   8.819   7.186  1.2184  0.6738 -2.0454
  424SOL    HW2 6120   5.096   8.675   7.155 -1.6884 -1.4971  3.1822
  425SOL     OW 6121   8.883   2.409   6.120 -0.1922  0.2482  0.5081
  425SOL    HW1 6122   8.848   2.486   6.076 -0.6288 -0.7120 -0.8797
  425SOL    HW2 6123   8.968   2.394   6.079 -0.6145 -0.6714 -0.0737
  426SOL     OW 6124   0.163   0.649   5.207 -0.6804  0.5251  0.2126
  426SOL    HW1 6125   0.134   0.701   5.133 -0.0334 -1.0680 -1.2152
  426SOL    HW2 6126   0.238   0.599   5.175 -0.8653 -0.8058  1.6899
  427SOL     OW 6127   7.756   5.454   0.567 -0.0200 -0.2596  0.2325
  427SOL    HW1 6128   7.717   5.380   0.521 -0.3825  0.3484 -0.4493
  427SOL    HW2 6129   7.822   5.414   0.624  0.4231 -1.0403 -0.7881
  428SOL     OW 6130   7.615   5.398   8.475  0.0592 -0.5859 -0.4941
  428SOL    HW1 6131   7.561   5.439   8.407  1.4098  1.5376 -0.3504
  428SOL    HW2 6132   7.700   5.385   8.434  0.2262 -1.4825  0.1019
  429SOL     OW 6133   5.069   6.021   5.550  0.1939 -0.2948 -0.1227
  429SOL    HW1 6134   5.000   6.085   5.531 -0.4650 -0.8917  0.2016
  429SOL    HW2 6135   5.120   6.061   5.621  0.3486  0.2665 -0.5483
  430SOL     OW 6136   7.053   8.731   9.029  0.3475  0.2697  0.4013
  430SOL    HW1 6137   7.052   8.686   9.113 -0.1895  0.1934  0.3568
  430SOL    HW2 6138   7.115   8.803   9.041  2.2076 -1.2145  0.0749
  431SOL     OW 6139   3.408   2.467   7.533  0.1755 -0.5939 -0.2202
  431SOL    HW1 6140   3.427   2.415   7.610 -1.6851 -1.2561 -0.1503
  431SOL    HW2 6141   3.372   2.549   7.567  0.4296 -0.4192 -0.3675
  432SOL     OW 6142   5.925   8.033   1.554 -0.3660  0.7805  0.1014
  432SOL    HW1 6143   5.993   7.988   1.604 -0.0306 -0.4540 -1.4106
  432SOL    HW2 6144   5.845   8.017   1.605  0.0799  0.1736  0.6371
  433SOL     OW 6145   2.679   0.038   8.113 -0.0498 -0.0707  0.5837
  433SOL    HW1 6146   2.720  -0.013   8.183 -1.4669 -1.4516  0.4629
  433SOL    HW2 6147   2.655   0.121   8.155 -2.9853 -1.7170  2.4916
  434SOL     OW 6148   7.694   0.776   7.946 -0.4205  0.5922  0.1722
  434SOL    HW1 6149   7.706   0.854   7.999  0.4180  1.0296 -0.6318
  434SOL    HW2 6150   7.761   0.715   7.978 -1.0065  0.2366  0.7293
  435SOL     OW 6151   8.495   9.051   2.830 -0.3019 -0.3746 -0.2546
  435SOL    HW1 6152   8.432   9.112   2.792 -0.6276 -0.2463  0.4738
  435SOL    HW2 6153   8.515   9.088   2.916  0.1789 -0.8233 -0.1682
  436SOL     OW 6154   3.177   3.441   0.079  0.3556 -0.0345 -0.8606
  436SOL    HW1 6155   3.258   3.478   0.115 -0.7889  2.0300 -0.1911
  436SOL    HW2 6156   3.151   3.374   0.142  0.9010  0.1722 -0.4084
  437SOL     OW 6157   0.661   1.166   2.657 -0.2818 -0.3567  0.3025
  437SOL    HW1 6158   0.631   1.112   2.584 -2.8069  0.9838  0.2498
  437SOL    HW2 6159   0.665   1.106   2.731 -0.6884 -1.1052 -0.2655
  438SOL     OW 6160   4.547   8.553   6.234 -0.2796 -0.1196  0.3890
  438SOL    HW1 6161   4.500   8.615   6.178 -2.3310  0.1122  2.1984
  438SOL    HW2 6162   4.568   8.603   6.313  3.1669 -0.2300 -0.3096
  439SOL     OW 6163   0.780   0.039   7.971 -0.3920 -0.0241 -0.0073
  439SOL    HW1 6164   0.792   0.124   8.014 -1.2545  1.2952 -2.2409
  439SOL    HW2 6165   0.730  -0.012   8.035  0.4645  0.9677  1.5377
  440SOL     OW 6166   9.047   3.391   6.319 -0.0969 -0.0361  0.3809
  440SOL    HW1 6167   9.093   3.454   6.376 -1.1248  2.5791 -1.5147
  440SOL    HW2 6168   8.991   3.445   6.264  0.3147 -2.4811 -2.6652
  441SOL     OW 6169   3.700   3.488   4.548  0.0301 -0.4254 -0.8720
  441SOL    HW1 6170   3.612   3.524   4.552  0.2686  0.0817  0.6601
  441SOL    HW2 6171   3.688   3.393   4.560 -0.3119 -0.3707 -0.7783
  442SOL     OW 6172   5.197   4.758   5.573 -0.0602  0.3333  0.1637
  442SOL    HW1 6173   5.106   4.765   5.544 -0.9293  2.3706  2.9230
  442SOL    HW2 6174   5.193   4.701   5.650  1.1731 -0.2263 -0.1677
  443SOL     OW 6175   3.145   8.421   2.903  0.1161  0.1155 -0.3802
  443SOL    HW1 6176   3.196   8.499   2.880 -0.9882  0.3110 -2.4394
  443SOL    HW2 6177   3.081   8.452   2.967  0.1040  0.7768 -0.7009
  444SOL     OW 6178   8.143   3.320   8.310 -0.0844 -0.5678 -0.2876
  444SOL    HW1 6179   8.113   3.404   8.274 -0.7968 -0.3085  0.8499
  444SOL    HW2 6180   8.220   3.342   8.362 -1.0869 -0.3429  1.1826
  445SOL     OW 6181   0.359   6.977   4.864 -0.6182 -0.1725  0.3237
  445SOL    HW1 6182   0.411   6.897   4.853 -0.2999  0.1032 -0.1915
  445SOL    HW2 6183   0.318   6.967   4.950 -2.4060 -1.9569 -0.6466
  446SOL     OW 6184   7.438   0.796   8.240 -0.0713  0.5048  0.1080
  446SOL    HW1 6185   7.352   0.754   8.236  0.0944 -0.0511  1.7647
  446SOL    HW2 6186   7.483   0.766   8.161 -0.3674 -1.5631  0.6640
  447SOL     OW 6187   6.576   2.213   6.153 -0.1853  0.6286  0.8559
  447SOL    HW1 6188   6.487   2.181   6.138  0.0739 -0.2124  1.0731
  447SOL    HW2 6189   6.616   2.215   6.066  0.1975 -0.8717  0.9758
  448SOL     OW 6190   1.026   0.870   0.842 -0.3863  0.0607  0.3125
  448SOL    HW1 6191   0.991   0.955   0.817 -2.1627 -0.7594 -0.1766
  448SOL    HW2 6192   1.119   0.885   0.856 -0.7042  2.1165  0.4618
  449SOL     OW 6193   7.471   5.114   7.725  0.4418 -0.6752  0.1597
  449SOL    HW1 6194   7.478   5.084   7.635  0.2978 -0.0982 -0.0479
  449SOL    HW2 6195   7.485   5.209   7.721 -0.6376 -0.4723  0.5883
  450SOL     OW 6196   5.663   6.242   7.583 -0.3872 -0.1079  0.5660
  450SOL    HW1 6197   5.666   6.200   7.497 -1.2016  0.4175  0.2712
  450SOL    HW2 6198   5.716   6.321   7.573 -2.1242  1.0259 -0.0757
  451SOL     OW 6199   4.309   9.369   4.214 -0.4610 -0.2279 -0.2631
  451SOL    HW1 6200   4.401   9.379   4.240 -0.9997  0.2047  1.5548
  451SOL    HW2 6201   4.298   9.432   4.143  0.5869 -0.1237 -0.3579
  452SOL     OW 6202   2.676   8.544   8.766 -0.0930  0.4125  0.2765
  452SOL    HW1 6203   2.719   8.629   8.771 -2.0975  1.4300  2.6547
  452SOL    HW2 6204   2.745   8.480   8.785  0.7941  1.8084  2.0223
  453SOL     OW 6205   3.656   2.708   0.563 -0.6152  0.3748  0.1962
  453SOL    HW1 6206   3.613   2.783   0.522 -1.5264 -0.3799 -0.2646
  453SOL    HW2 6207   3.628   2.633   0.511  0.4906 -0.2658  0.4897
  454SOL     OW 6208   8.518   8.895   5.313  0.5980 -0.1682 -0.0450
  454SOL    HW1 6209   8.604   8.865   5.342  0.5438 -1.7704 -1.4075
  454SOL    HW2 6210   8.536   8.945   5.233  0.4193  1.1786  0.7299
  455SOL     OW 6211   2.533   8.289   8.929 -0.6185  0.2953  0.0008
  455SOL    HW1 6212   2.497   8.375   8.949 -0.6095  0.1837  0.5129
  455SOL    HW2 6213   2.533   8.243   9.013 -1.7010 -0.6073 -0.4662
  456SOL     OW 6214   5.066   3.407   4.781 -0.3665  0.0988  0.6530
  456SOL    HW1 6215   5.127   3.382   4.712 -1.2440 -1.2839  0.3407
  456SOL    HW2 6216   5.082   3.344   4.851  0.3491  1.3385  1.6420
  457SOL     OW 6217   9.358   0.436   9.364 -0.2637  1.0997  0.0365
  457SOL    HW1 6218   9.275   0.463   9.404  1.3167  2.9384  2.2616
  457SOL    HW2 6219   9.353   0.340   9.364 -1.7800  1.1168  1.5482
  458SOL     OW 6220   4.756   3.933   5.633 -0.1229 -0.4605  0.5730
  458SOL    HW1 6221   4.756   3.864   5.566  1.7295 -1.1718  1.2589
  458SOL    HW2 6222   4.764   3.886   5.716 -0.0551  0.5366  1.1420
  459SOL     OW 6223   5.853   8.024   5.587 -0.5615 -0.0758 -0.3241
  459SOL    HW1 6224   5.881   8.112   5.612 -2.3137  0.2376  0.7065
  459SOL    HW2 6225   5.783   8.002   5.649 -1.1894 -1.5978 -1.4938
  460SOL     OW 6226   2.783   1.459   0.485 -0.1864  0.5751 -0.1936
  460SOL    HW1 6227   2.776   1.534   0.545 -0.0008 -1.1578  2.1665
  460SOL    HW2 6228   2.706   1.406   0.505  0.6521 -0.7696 -0.4400
  461SOL     OW 6229   3.962   3.310   0.953 -0.3015 -0.0726 -0.2315
  461SOL    HW1 6230   4.018   3.331   0.878  1.1172  0.0497  0.8231
  461SOL    HW2 6231   3.888   3.370   0.944 -0.3466 -0.3066 -1.7225
  462SOL     OW 6232   3.580   4.020   0.951 -0.2260  0.2521 -0.4759
  462SOL    HW1 6233   3.590   4.114   0.966  0.2662  0.1182  0.0721
  462SOL    HW2 6234   3.615   4.006   0.863  0.1147  0.5209 -0.3886
  463SOL     OW 6235   8.641   5.486   1.299  0.3178 -0.0539 -0.3557
  463SOL    HW1 6236   8.600   5.556   1.351  1.5512  0.3682  0.1054
  463SOL    HW2 6237   8.665   5.420   1.364 -0.2837 -0.6350 -0.7154
  464SOL     OW 6238   1.921   4.709   0.805 -0.1778 -0.1830  0.7607
  464SOL    HW1 6239   1.838   4.662   0.802 -0.0632 -0.3427 -0.5334
  464SOL    HW2 6240   1.963   4.690   0.721 -0.0908  2.1580  0.1976
  465SOL     OW 6241   7.235   9.694   4.345 -0.6707 -0.5988  0.0425
  465SOL    HW1 6242   7.310   9.635   4.350 -0.3912 -0.2125  0.5044
  465SOL    HW2 6243   7.236   9.726   4.255  0.6153  0.5434  0.4290
  466SOL     OW 6244   1.135   0.258   9.732  0.0522 -0.0489 -0.0508
  466SOL    HW1 6245   1.051   0.217   9.754  0.5223 -0.8704  0.2538
  466SOL    HW2 6246   1.198   0.187   9.737  1.0397  0.8629  1.3557
  467SOL     OW 6247   9.189   1.131   0.407  0.5573 -0.2940  1.3446
  467SOL    HW1 6248   9.223   1.198   0.347 -0.7183 -0.0481  0.8382
  467SOL    HW2 6249   9.141   1.181   0.473  0.1010 -0.6689  1.3020
  468SOL     OW 6250   4.115   3.732   4.123 -0.0985 -0.3369 -0.0337
  468SOL    HW1 6251   4.162   3.813   4.142 -1.2429  0.0081  1.4957
  468SOL    HW2 6252   4.051   3.757   4.056 -1.5103  0.4712  1.5364
  469SOL     OW 6253   5.359   2.316   5.169 -0.0011 -0.3195  0.1210
  469SOL    HW1 6254   5.310   2.300   5.249 -0.4476 -0.9703 -0.2713
  469SOL    HW2 6255   5.329   2.401   5.138 -0.0464 -0.2038  0.4773
  470SOL     OW 6256   0.580   0.335   6.826 -0.1744 -0.3482 -0.1512
  470SOL    HW1 6257   0.648   0.302   6.768  0.5734  2.7269 -1.2633
  470SOL    HW2 6258   0.499   0.325   6.776  0.1495  0.1812 -0.8075
  471SOL     OW 6259   7.839   5.162   8.387 -0.3018 -0.5365 -0.5427
  471SOL    HW1 6260   7.813   5.250   8.359 -1.3620 -0.5314  0.4172
  471SOL    HW2 6261   7.935   5.166   8.389 -0.3279  0.5614 -0.6015
  472SOL     OW 6262   7.870   0.858   8.505  0.4845 -0.3106  0.8271
  472SOL    HW1 6263   7.924   0.795   8.553  0.3866 -0.9553  0.1063
  472SOL    HW2 6264   7.847   0.813   8.424 -0.4668  0.2664  0.7662
  473SOL     OW 6265   3.817   7.253   0.427  0.4895  0.4118 -0.2097
  473SOL    HW1 6266   3.888   7.264   0.363  1.0229  0.7041  0.4123
  473SOL    HW2 6267   3.744   7.219   0.376  1.8798 -2.5927 -0.4266
  474SOL     OW 6268   2.935   2.709   3.583  0.5756 -0.2103  0.6215
  474SOL    HW1 6269   2.954   2.662   3.664  0.2734  0.5950  1.1672
  474SOL    HW2 6270   3.004   2.775   3.577  1.6213 -1.3497 -0.6868
  475SOL     OW 6271   7.808   4.056   0.764 -0.0215 -0.4188  0.6207
  475SOL    HW1 6272   7.760   3.976   0.742  1.4922 -0.7495 -1.9600
  475SOL    HW2 6273   7.829   4.047   0.857 -2.0670 -1.7595  1.0321
  476SOL     OW 6274   7.277   6.190   7.072  0.2287 -0.2362  0.4653
  476SOL    HW1 6275   7.372   6.181   7.062  0.0667 -1.4518 -0.1284
  476SOL    HW2 6276   7.240   6.143   6.998 -0.8637 -0.4992  1.1463
  477SOL     OW 6277   2.282   4.278   1.188 -0.2755  0.4973  0.0484
  477SOL    HW1 6278   2.270   4.183   1.187 -0.1046  0.4425 -2.2433
  477SOL    HW2 6279   2.347   4.294   1.256 -0.2454 -1.0354  0.4022
  478SOL     OW 6280   6.690   9.078   6.718  0.0829 -0.0270 -0.0902
  478SOL    HW1 6281   6.773   9.113   6.750  0.9384 -1.0570 -1.0859
  478SOL    HW2 6282   6.632   9.081   6.794  1.5177 -0.8096  1.0940
  479SOL     OW 6283   4.761   1.755   3.217  0.5255 -0.2211  0.3946
  479SOL    HW1 6284   4.807   1.757   3.134 -1.8655  0.6861 -0.9971
  479SOL    HW2 6285   4.724   1.843   3.227 -2.5228 -1.3649  0.3732
  480SOL     OW 6286   0.375   2.148   7.065  0.6950  0.3644 -0.6167
  480SOL    HW1 6287   0.323   2.149   7.146 -2.2936 -1.5625 -2.3051
  480SOL    HW2 6288   0.360   2.234   7.026 -2.6041 -0.5140 -1.6726
  481SOL     OW 6289   4.024   7.354   0.256  0.0034  0.0229  0.2137
  481SOL    HW1 6290   4.059   7.302   0.184 -1.2854 -1.1937  0.4158
  481SOL    HW2 6291   3.948   7.398   0.219  0.0436  0.3454  0.5132
  482SOL     OW 6292   3.042   8.473   9.491 -0.3497  0.2690 -0.2655
  482SOL    HW1 6293   3.070   8.423   9.568 -2.4556  0.5972  0.7716
  482SOL    HW2 6294   3.116   8.466   9.431  1.0228 -0.7255  1.4279
  483SOL     OW 6295   5.579   0.099   7.481  0.1333  0.1662  0.6638
  483SOL    HW1 6296   5.646   0.145   7.430 -0.7287 -0.1244 -0.7883
  483SOL    HW2 6297   5.497   0.142   7.457 -0.4940 -1.0639  0.5293
  484SOL     OW 6298   8.621   7.447   9.316  0.1716  0.1302  0.2696
  484SOL    HW1 6299   8.689   7.483   9.373  0.4893 -0.1071  0.0395
  484SOL    HW2 6300   8.630   7.352   9.324  1.6177  0.0442 -1.8141
  485SOL     OW 6301   9.320   3.185   9.533  0.1052 -1.0087 -0.1449
  485SOL    HW1 6302   9.248   3.159   9.475 -0.2455 -2.8516  1.0238
  485SOL    HW2 6303   9.388   3.120   9.517  0.0481 -1.4731  1.3988
  486SOL     OW 6304   0.646   3.788   4.308 -0.1103  0.3575 -0.1158
  486SOL    HW1 6305   0.571   3.729   4.313  0.4049 -0.2448  0.8464
  486SOL    HW2 6306   0.722   3.730   4.307  0.3715  0.9806 -0.3645
  487SOL     OW 6307   4.348   5.210   5.915 -0.3014 -0.6189 -0.1117
  487SOL    HW1 6308   4.413   5.237   5.980  0.2308  0.0579 -0.9001
  487SOL    HW2 6309   4.309   5.131   5.952  0.6918 -0.8191  0.5563
  488SOL     OW 6310   0.822   7.615   2.128  0.5445  0.9805 -0.1653
  488SOL    HW1 6311   0.833   7.526   2.161  0.7865  1.6583  1.7450
  488SOL    HW2 6312   0.765   7.606   2.052 -0.1966 -0.7132  0.5338
  489SOL     OW 6313   0.705   8.242   3.648 -0.5473 -0.2706  0.2382
  489SOL    HW1 6314   0.689   8.266   3.557  0.2199 -0.3454  0.0814
  489SOL    HW2 6315   0.731   8.150   3.645 -1.2130 -0.4809  0.6122
  490SOL     OW 6316   8.274   7.465   7.966 -0.7401 -0.4844  0.0221
  490SOL    HW1 6317   8.329   7.410   7.910 -1.3627 -1.9241  0.7496
  490SOL    HW2 6318   8.190   7.470   7.920 -0.1752  1.3636 -0.8864
  491SOL     OW 6319   8.102   7.457   2.207  0.3368 -0.5443  0.3513
  491SOL    HW1 6320   8.028   7.411   2.247 -0.2419 -1.5285 -1.7036
  491SOL    HW2 6321   8.160   7.388   2.177  1.0994  0.1705  0.1346
  492SOL     OW 6322   1.251   1.617   0.193  0.4579 -0.0204 -0.1626
  492SOL    HW1 6323   1.268   1.666   0.274  0.6720 -1.8545  0.9505
  492SOL    HW2 6324   1.158   1.595   0.197  0.9096 -1.9951  0.7383
  493SOL     OW 6325   4.758   3.119   9.095  0.3614  0.0956  0.4278
  493SOL    HW1 6326   4.727   3.079   9.014  1.6785  0.1961 -0.1667
  493SOL    HW2 6327   4.679   3.152   9.138 -0.4546 -0.7643 -0.3680
  494SOL     OW 6328   3.358   7.215   4.845  0.4033 -0.1640  0.0660
  494SOL    HW1 6329   3.342   7.164   4.766 -0.4992 -0.8399  0.6573
  494SOL    HW2 6330   3.274   7.256   4.864  0.8211  0.6129  0.2461
  495SOL     OW 6331   2.023   1.996   3.322  0.2924 -0.0064 -0.7035
  495SOL    HW1 6332   1.944   2.050   3.328  0.9273  1.3013 -2.9097
  495SOL    HW2 6333   2.040   1.968   3.412 -1.3282  1.6469  0.1812
  496SOL     OW 6334   2.149   2.312   2.421 -0.3477  0.7201  0.1286
  496SOL    HW1 6335   2.192   2.226   2.425 -2.6352 -0.4773  2.0833
  496SOL    HW2 6336   2.113   2.317   2.333 -0.8548 -0.7578  0.2191
  497SOL     OW 6337   2.832   5.331   5.996 -0.3682  0.0970 -0.0531
  497SOL    HW1 6338   2.745   5.295   5.980 -0.1765 -0.2172 -0.3972
  497SOL    HW2 6339   2.892   5.257   5.984  0.0280  0.5159 -0.7839
  498SOL     OW 6340   3.647   2.143   1.938  0.0939  0.4711 -0.1763
  498SOL    HW1 6341   3.702   2.114   1.865 -0.3826  0.2946 -0.4686
  498SOL    HW2 6342   3.570   2.086   1.935  0.1924  0.2772  0.6368
  499SOL     OW 6343   5.887   3.840   6.356 -0.4164  0.0428 -0.0659
  499SOL    HW1 6344   5.832   3.917   6.367 -0.5905 -0.1723  0.6307
  499SOL    HW2 6345   5.909   3.813   6.445 -0.8918 -1.0885 -0.2786
  500SOL     OW 6346   8.593   7.615   4.148 -0.2654 -0.4071 -0.2435
  500SOL    HW1 6347   8.675   7.566   4.151 -0.1140 -0.1018  1.0706
  500SOL    HW2 6348   8.567   7.626   4.240 -1.1513  0.5428 -0.5809
  501SOL     OW 6349   3.104   7.324   8.691  0.0009 -0.1033 -0.0242
  501SOL    HW1 6350   3.032   7.363   8.740  0.7526  2.0594 -0.5499
  501SOL    HW2 6351   3.152   7.398   8.654  1.0157 -1.5674 -1.8318
  502SOL     OW 6352   0.144   3.430   7.003 -0.4696 -1.3646  0.0558
  502SOL    HW1 6353   0.117   3.517   7.033  0.0470 -0.8047 -1.0248
  502SOL    HW2 6354   0.064   3.378   7.005 -1.0983 -0.4609 -0.6281
  503SOL     OW 6355   0.513   9.749   5.506  0.4096  0.1268 -0.0080
  503SOL    HW1 6356   0.510   9.701   5.423  1.7439  1.2451 -0.7319
  503SOL    HW2 6357   0.544   9.684   5.570  0.3730 -0.4724 -0.5834
  504SOL     OW 6358   7.917   7.803   3.406  0.8670 -0.4160 -0.2146
  504SOL    HW1 6359   7.898   7.871   3.471  2.2773 -1.7536  1.7018
  504SOL    HW2 6360   7.980   7.844   3.347 -0.2558  0.7480 -0.6643
  505SOL     OW 6361   3.958   1.873   7.865  0.5139  0.0457 -0.3315
  505SOL    HW1 6362   4.038   1.820   7.867  1.1558  1.0068  0.3334
  505SOL    HW2 6363   3.888   1.810   7.845  1.2671 -1.0168  0.2632
  506SOL     OW 6364   7.887   3.361   6.883 -0.4923  0.4387 -0.0974
  506SOL    HW1 6365   7.868   3.447   6.846  1.4416  0.8637 -0.2313
  506SOL    HW2 6366   7.920   3.380   6.971 -0.5268 -0.2030  0.0575
  507SOL     OW 6367   5.955   2.545   0.222  0.1695  0.1427  0.1628
  507SOL    HW1 6368   6.045   2.576   0.214  0.3451 -0.4842 -0.4302
  507SOL    HW2 6369   5.958   2.454   0.191 -0.9152  0.5281 -1.1703
  508SOL     OW 6370   3.126   8.330   0.432  0.3551 -0.0115 -0.0006
  508SOL    HW1 6371   3.144   8.274   0.357  0.6260  1.5607 -1.1658
  508SOL    HW2 6372   3.031   8.340   0.433  0.3166 -0.3789  0.1397
  509SOL     OW 6373   7.552   6.553   2.032 -0.4573  0.3204 -0.1634
  509SOL    HW1 6374   7.465   6.541   2.069 -0.5193  2.9660  0.7494
  509SOL    HW2 6375   7.611   6.540   2.106  0.0632 -2.1133 -0.9103
  510SOL     OW 6376   1.244   3.540   5.435 -0.0866  0.3602 -0.1225
  510SOL    HW1 6377   1.274   3.506   5.350 -0.2021 -0.0021 -0.0230
  510SOL    HW2 6378   1.316   3.521   5.495  0.0063  0.6413 -0.1466
  511SOL     OW 6379   6.322   3.132   1.085 -0.0143 -0.4371  0.0718
  511SOL    HW1 6380   6.399   3.161   1.135 -0.9759 -0.2599  1.5083
  511SOL    HW2 6381   6.290   3.055   1.132 -0.9789 -0.2469 -0.2499
  512SOL     OW 6382   7.752   2.307   0.504  0.4632  0.2417 -0.1225
  512SOL    HW1 6383   7.753   2.379   0.440  0.6407 -0.3519 -0.8083
  512SOL    HW2 6384   7.670   2.318   0.551 -0.8755 -0.6759 -2.0861
  513SOL     OW 6385   0.237   5.735   5.385 -0.4020 -0.2415  0.2579
  513SOL    HW1 6386   0.282   5.686   5.454  1.0760  0.0350 -0.4702
  513SOL    HW2 6387   0.144   5.729   5.409 -0.1897 -2.4203  0.7958
  514SOL     OW 6388   0.060   2.374   1.712 -0.2060 -0.1954  0.8121
  514SOL    HW1 6389   0.136   2.319   1.734  0.4483  0.6987  0.8722
  514SOL    HW2 6390   0.062   2.444   1.777  0.1459  0.9771 -0.4105
  515SOL     OW 6391   8.229   5.610   3.516 -0.2807 -0.6292  0.0031
  515SOL    HW1 6392   8.198   5.524   3.487  1.1943 -1.5679  1.0349
  515SOL    HW2 6393   8.286   5.641   3.445 -0.4712 -0.7069 -0.1831
  516SOL     OW 6394   2.133   7.982   5.360 -0.0883  0.1227 -0.3717
  516SOL    HW1 6395   2.115   8.072   5.386  3.5693  0.3376  2.1040
  516SOL    HW2 6396   2.195   7.990   5.287 -0.1103 -0.4113 -0.4537
  517SOL     OW 6397   2.159   6.194   4.317  0.3082  0.1779 -0.0181
  517SOL    HW1 6398   2.136   6.149   4.398 -1.4149  0.6586 -0.2015
  517SOL    HW2 6399   2.221   6.136   4.274  1.4348  0.0124  1.7139
  518SOL     OW 6400   7.868   2.955   7.039 -0.3246 -0.2966  0.1530
  518SOL    HW1 6401   7.851   2.999   7.122 -0.0143 -1.7538  1.0342
  518SOL    HW2 6402   7.805   2.883   7.037 -0.3212 -0.2909 -0.8841
  519SOL     OW 6403   5.847   3.837   9.287 -0.3693  0.2015  0.1910
  519SOL    HW1 6404   5.839   3.931   9.302  2.2270  0.5172  0.1230
  519SOL    HW2 6405   5.886   3.830   9.200  0.2093 -0.8839  0.5162
  520SOL     OW 6406   0.804   9.406   1.270 -0.1052 -0.4372 -0.0064
  520SOL    HW1 6407   0.772   9.316   1.279 -0.2288 -0.4833 -0.8153
  520SOL    HW2 6408   0.754   9.456   1.334 -0.7380 -0.7782 -0.2267
  521SOL     OW 6409   6.521   0.503   6.738  0.5502 -0.3030 -0.2397
  521SOL    HW1 6410   6.503   0.518   6.831 -0.5926 -0.6088 -0.4032
  521SOL    HW2 6411   6.441   0.530   6.693  1.0955 -0.1582 -1.1414
  522SOL     OW 6412   4.775   1.290   8.997 -0.6930 -0.0874 -0.0068
  522SOL    HW1 6413   4.754   1.204   9.033 -2.3925 -0.5194 -1.8829
  522SOL    HW2 6414   4.834   1.272   8.923  1.5291  0.6722  1.4503
  523SOL     OW 6415   1.427   6.721   3.581 -1.0144  0.0718 -0.0426
  523SOL    HW1 6416   1.492   6.653   3.598 -0.4082  1.1366  2.2088
  523SOL    HW2 6417   1.363   6.678   3.524 -0.2576 -2.1198  0.6385
  524SOL     OW 6418   3.425   0.428   3.848  0.1192  0.0780 -0.0605
  524SOL    HW1 6419   3.372   0.350   3.829  0.9203 -0.6215  0.5269
  524SOL    HW2 6420   3.515   0.398   3.840  0.4975  1.6551 -2.7195
  525SOL     OW 6421   7.247   1.073   3.690 -1.0764 -0.1457 -0.0354
  525SOL    HW1 6422   7.272   1.017   3.617 -1.0766 -1.5921  1.0253
  525SOL    HW2 6423   7.245   1.161   3.654  0.4820 -0.6199 -1.3947
  526SOL     OW 6424   8.964   1.646   6.253 -0.1162 -0.0497 -0.7449
  526SOL    HW1 6425   9.042   1.700   6.268 -0.5568  0.2823  0.4986
  526SOL    HW2 6426   8.892   1.708   6.250 -0.6247 -0.5170  0.6471
  527SOL     OW 6427   0.082   7.993   6.895  0.1289  0.9580  0.0641
  527SOL    HW1 6428   0.163   8.032   6.929 -0.2860  0.8910  1.1650
  527SOL    HW2 6429   0.058   7.927   6.960 -0.4969  0.5667 -0.5530
  528SOL     OW 6430   9.069   0.584   2.712 -0.0570  0.1251 -0.0547
  528SOL    HW1 6431   9.044   0.554   2.799  2.5630 -0.0651  0.7286
  528SOL    HW2 6432   9.083   0.679   2.723 -1.1050  0.3601 -0.6508
  529SOL     OW 6433   1.151   9.038   9.402 -0.5931 -0.6938 -0.0261
  529SOL    HW1 6434   1.175   8.958   9.448  1.1751 -0.9371 -1.2557
  529SOL    HW2 6435   1.157   9.107   9.467 -2.8782 -1.5952  1.2456
  530SOL     OW 6436   6.328   3.007   6.492 -0.5222  0.1014 -0.5627
  530SOL    HW1 6437   6.392   2.939   6.514  0.3925  0.3747 -2.2481
  530SOL    HW2 6438   6.244   2.972   6.523  0.2323 -0.8812  0.4232
  531SOL     OW 6439   8.220   2.542   0.379  0.2426  0.3456 -0.0839
  531SOL    HW1 6440   8.139   2.587   0.355 -0.2862 -1.3856 -1.7524
  531SOL    HW2 6441   8.192   2.472   0.438  0.7707  0.7709  0.6923
  532SOL     OW 6442   2.399   6.674   6.530 -0.2409 -0.3707 -0.4856
  532SOL    HW1 6443   2.323   6.732   6.529 -0.1681 -0.2490  0.6110
  532SOL    HW2 6444   2.444   6.693   6.447 -0.5413  0.7146 -0.4109
  533SOL     OW 6445   6.734   8.515   3.108  0.2791  0.0062 -0.5301
  533SOL    HW1 6446   6.762   8.564   3.030  0.6236 -0.4281 -0.6857
  533SOL    HW2 6447   6.816   8.486   3.148  0.0831 -0.2427 -0.3099
  534SOL     OW 6448   4.854   0.217   8.891 -0.1674  0.6456 -0.3254
  534SOL    HW1 6449   4.890   0.266   8.965 -0.6576  0.7698 -0.1591
  534SOL    HW2 6450   4.930   0.181   8.845  0.0946 -1.8038  1.8249
  535SOL     OW 6451   4.095   8.212   4.677 -0.0943 -0.2050 -0.3922
  535SOL    HW1 6452   4.179   8.171   4.659 -0.7795 -1.3718 -1.0757
  535SOL    HW2 6453   4.067   8.247   4.593 -1.2493 -1.7197 -0.6888
  536SOL     OW 6454   4.152   3.851   8.711 -0.2231  0.3888  0.5033
  536SOL    HW1 6455   4.119   3.911   8.644 -1.3481  1.0617  1.6177
  536SOL    HW2 6456   4.093   3.864   8.786  1.3609  0.1145  1.8459
  537SOL     OW 6457   3.714   7.452   7.516 -0.3285  0.1927  0.0825
  537SOL    HW1 6458   3.679   7.373   7.474 -0.3359  0.9159 -1.3383
  537SOL    HW2 6459   3.770   7.492   7.449  1.0232  0.5209  1.3565
  538SOL     OW 6460   3.392   4.775   6.178  0.0580 -0.3851 -0.6875
  538SOL    HW1 6461   3.483   4.788   6.151  0.2853 -0.4831  0.0251
  538SOL    HW2 6462   3.393   4.782   6.273 -0.5861 -0.9572 -0.6262
  539SOL     OW 6463   2.063   0.150   6.537  0.2966 -0.4538  0.4284
  539SOL    HW1 6464   2.024   0.195   6.462 -0.8307 -0.2189  1.1229
  539SOL    HW2 6465   2.152   0.184   6.543 -0.3120  1.2191  0.5319
  540SOL     OW 6466   8.835   6.144   8.599  0.0055 -0.5972  0.4184
  540SOL    HW1 6467   8.878   6.096   8.529  0.5917  0.2181  0.1938
  540SOL    HW2 6468   8.761   6.188   8.557  0.7145  0.3886  0.1482
  541SOL     OW 6469   0.095   4.184   4.696 -0.2007 -0.5839  0.1288
  541SOL    HW1 6470   0.164   4.246   4.672 -1.7346  0.8705 -0.8182
  541SOL    HW2 6471   0.138   4.120   4.752  1.5556  1.1648  0.9067
  542SOL     OW 6472   8.432   6.366   5.873  0.0349 -0.0289 -0.0063
  542SOL    HW1 6473   8.482   6.287   5.855  1.2057  0.4444  1.0394
  542SOL    HW2 6474   8.382   6.381   5.793  1.3788 -0.6558 -1.0031
  543SOL     OW 6475   8.544   0.538   3.503 -0.3073  0.4632  0.3230
  543SOL    HW1 6476   8.628   0.582   3.510 -0.5839  1.1082 -0.3058
  543SOL    HW2 6477   8.497   0.563   3.582  0.7683 -1.4410  1.6622
  544SOL     OW 6478   5.329   2.753   2.184 -0.4128  0.1823 -0.0299
  544SOL    HW1 6479   5.394   2.816   2.212 -0.4186  0.5463 -0.8115
  544SOL    HW2 6480   5.256   2.765   2.244 -0.6368  1.3124 -0.5094
  545SOL     OW 6481   2.234   8.484   1.338 -0.2203 -0.3362  0.4534
  545SOL    HW1 6482   2.237   8.541   1.260 -1.2666 -0.9729 -0.0696
  545SOL    HW2 6483   2.186   8.535   1.403  0.0836 -0.0622  0.4672
  546SOL     OW 6484   1.578   0.145   3.381 -0.2030  0.8843  0.3109
  546SOL    HW1 6485   1.634   0.171   3.454  0.0437  0.8989  0.1186
  546SOL    HW2 6486   1.575   0.222   3.324 -0.9011  1.0853  0.6104
  547SOL     OW 6487   3.465   8.278   3.443 -0.1317  0.0871  0.0220
  547SOL    HW1 6488   3.443   8.361   3.485  0.6196  1.3252 -1.8781
  547SOL    HW2 6489   3.387   8.224   3.453 -0.4328  0.7919  1.7891
  548SOL     OW 6490   7.355   0.680   2.245 -0.4276  0.1679 -0.7759
  548SOL    HW1 6491   7.383   0.767   2.273  0.7425 -0.9172  1.7792
  548SOL    HW2 6492   7.437   0.634   2.225 -0.7601 -1.2412  0.9135
  549SOL     OW 6493   5.608   5.349   6.501  0.1823 -0.9020 -0.4812
  549SOL    HW1 6494   5.686   5.399   6.476 -0.3898 -0.5286 -1.5806
  549SOL    HW2 6495   5.637   5.257   6.496  0.9166 -0.7456  0.4569
  550SOL     OW 6496   6.032   8.889   3.652  0.5092  0.3440 -0.3998
  550SOL    HW1 6497   6.070   8.804   3.674  0.9333  1.0449  1.8034
  550SOL    HW2 6498   6.100   8.934   3.601  1.0725  0.0912  0.1179
  551SOL     OW 6499   5.960   1.048   4.079 -0.4591  0.2952  0.4366
  551SOL    HW1 6500   6.002   0.962   4.074 -0.4261  0.1065  2.7163
  551SOL    HW2 6501   5.870   1.029   4.106 -0.9220  0.9102 -0.6185
  552SOL     OW 6502   9.369   1.307   2.102 -0.6905 -0.2988  0.3628
  552SOL    HW1 6503   9.420   1.258   2.165  1.2036 -0.2382 -1.0488
  552SOL    HW2 6504   9.304   1.354   2.155  2.0075  1.2676  2.5186
  553SOL     OW 6505   1.794   9.327   8.993  0.4304  0.0522 -0.2342
  553SOL    HW1 6506   1.872   9.273   9.005  0.9301  1.0286  1.3441
  553SOL    HW2 6507   1.721   9.268   9.012  0.7573 -0.8463 -1.6403
  554SOL     OW 6508   4.709   0.370   7.375 -0.6460  0.2496 -0.3809
  554SOL    HW1 6509   4.674   0.314   7.445 -0.0133  0.1697 -0.1232
  554SOL    HW2 6510   4.688   0.324   7.294  0.0303 -0.4504 -0.1604
  555SOL     OW 6511   1.137   7.141   5.798 -0.4526  0.4956 -0.3049
  555SOL    HW1 6512   1.196   7.107   5.865 -0.5129 -0.5002 -0.7297
  555SOL    HW2 6513   1.051   7.138   5.839 -0.6771 -1.3612 -0.8374
  556SOL     OW 6514   4.088   6.185   4.053 -0.5818 -0.3461  0.9216
  556SOL    HW1 6515   4.155   6.253   4.055  0.2090 -1.0728 -0.0596
  556SOL    HW2 6516   4.122   6.116   4.110  0.3302 -1.4321 -0.8675
  557SOL     OW 6517   5.910   1.304   4.433 -0.3057  0.3691  0.1707
  557SOL    HW1 6518   5.833   1.311   4.377  0.2410  1.8517 -0.4397
  557SOL    HW2 6519   5.874   1.292   4.521 -1.1819 -3.2636 -0.5142
  558SOL     OW 6520   4.358   7.527   6.292  0.4235  0.6447  0.1473
  558SOL    HW1 6521   4.390   7.446   6.331 -1.2924  1.2086  2.9992
  558SOL    HW2 6522   4.420   7.545   6.221  0.2091 -3.7079 -1.4406
  559SOL     OW 6523   3.841   5.542   1.314  0.7633  0.2350 -0.3449
  559SOL    HW1 6524   3.776   5.531   1.384  1.3415  0.8886  0.3152
  559SOL    HW2 6525   3.804   5.495   1.239 -0.3544  0.3835  0.0947
  560SOL     OW 6526   7.929   7.569   6.712  0.4554  0.0991 -0.0387
  560SOL    HW1 6527   7.850   7.516   6.711  1.3376 -1.4117  2.2613
  560SOL    HW2 6528   7.996   7.512   6.751  2.3401  1.7670 -0.6684
  561SOL     OW 6529   9.064   2.395   4.769  0.2716  0.7748  0.3108
  561SOL    HW1 6530   9.093   2.315   4.813 -0.1886  1.1554  1.3271
  561SOL    HW2 6531   9.118   2.464   4.806 -1.0133  1.2976  1.3073
  562SOL     OW 6532   6.459   2.231   1.569  0.1452 -0.3700  0.2739
  562SOL    HW1 6533   6.502   2.147   1.584  0.3911 -0.2351  0.3413
  562SOL    HW2 6534   6.504   2.267   1.492  0.5824  0.0479  0.7090
  563SOL     OW 6535   3.104   6.818   4.022 -0.0987 -0.0106 -0.4899
  563SOL    HW1 6536   3.068   6.857   3.943  0.9240  1.1584 -0.4022
  563SOL    HW2 6537   3.080   6.725   4.016  1.8263 -0.4382 -3.2684
  564SOL     OW 6538   2.556   6.234   1.723  0.3438  0.1819  0.4290
  564SOL    HW1 6539   2.602   6.226   1.640  1.3135 -0.2619  0.9929
  564SOL    HW2 6540   2.561   6.327   1.744 -0.3092  0.3729 -0.2209
  565SOL     OW 6541   3.797   5.163   2.533 -0.8000 -0.1237  0.3964
  565SOL    HW1 6542   3.844   5.178   2.615  0.5803 -0.2782 -0.3456
  565SOL    HW2 6543   3.743   5.085   2.551  1.2563 -1.6081  0.4778
  566SOL     OW 6544   9.198   7.762   4.019 -0.0714 -0.0227  0.0580
  566SOL    HW1 6545   9.208   7.678   3.975 -0.1484  0.7256 -1.4171
  566SOL    HW2 6546   9.121   7.802   3.980  0.5637  1.1918 -0.0179
  567SOL     OW 6547   7.976   5.720   3.429 -0.3750  0.0205 -0.5670
  567SOL    HW1 6548   8.050   5.670   3.393 -0.4848  0.3319 -1.2277
  567SOL    HW2 6549   7.969   5.689   3.520  1.7125  1.2715  0.0983
  568SOL     OW 6550   4.056   2.545   5.952 -0.1872 -0.3333  0.1375
  568SOL    HW1 6551   4.058   2.534   5.857  0.6782  1.3953 -0.0744
  568SOL    HW2 6552   4.099   2.629   5.968 -0.0745 -0.7092  2.0861
  569SOL     OW 6553   9.016   1.007   4.042  0.1829  0.4077 -0.2628
  569SOL    HW1 6554   9.089   0.952   4.011 -0.2859  0.7237 -2.0262
  569SOL    HW2 6555   9.044   1.035   4.129  1.8277 -0.1105 -0.5698
  570SOL     OW 6556   2.277   3.620   5.735 -0.2501 -0.0888 -0.4612
  570SOL    HW1 6557   2.280   3.530   5.704 -0.0382 -0.1887 -0.1503
  570SOL    HW2 6558   2.191   3.652   5.707  0.0145 -0.1044 -1.3447
  571SOL     OW 6559   6.951   5.466   9.294 -0.1347  0.2322 -0.3436
  571SOL    HW1 6560   6.986   5.451   9.207 -1.8289 -0.4972 -0.9495
  571SOL    HW2 6561   6.990   5.398   9.349  1.3045  0.9872 -0.3977
  572SOL     OW 6562   5.534   0.932   3.361  0.3217  0.1604  0.1193
  572SOL    HW1 6563   5.600   0.946   3.430  1.9323 -0.1935 -1.2714
  572SOL    HW2 6564   5.576   0.965   3.281 -0.4176 -1.7999 -1.1452
  573SOL     OW 6565   1.769   1.661   9.278  0.2683 -0.2802  0.2012
  573SOL    HW1 6566   1.681   1.642   9.310  0.1273  1.9588  1.3007
  573SOL    HW2 6567   1.825   1.600   9.327 -0.5978 -1.4822 -0.2503
  574SOL     OW 6568   2.355   5.544   7.463  0.2919  0.3168 -0.0479
  574SOL    HW1 6569   2.391   5.617   7.413  2.0008 -0.7957 -0.5344
  574SOL    HW2 6570   2.343   5.579   7.551  1.5150  1.0870 -0.1624
  575SOL     OW 6571   8.610   4.296   0.437  0.2336 -0.0864 -0.3127
  575SOL    HW1 6572   8.652   4.352   0.372 -0.0850 -0.0262 -0.4726
  575SOL    HW2 6573   8.520   4.329   0.441  0.3245  0.0966  0.3656
  576SOL     OW 6574   1.567   5.402   1.768 -0.0005 -0.8450 -0.1470
  576SOL    HW1 6575   1.636   5.389   1.834  1.5073  1.1327 -1.2358
  576SOL    HW2 6576   1.602   5.363   1.688 -1.2152 -1.9604 -0.1668
  577SOL     OW 6577   1.951   1.530   9.054 -0.7931  0.4530 -0.4312
  577SOL    HW1 6578   1.914   1.441   9.055 -1.5064  0.7416 -0.4882
  577SOL    HW2 6579   1.886   1.583   9.100 -0.2151  0.8928 -0.1122
  578SOL     OW 6580   6.544   4.824   0.724 -0.4159 -0.0304 -0.2575
  578SOL    HW1 6581   6.542   4.902   0.779  0.3902 -1.4639  1.9009
  578SOL    HW2 6582   6.452   4.796   0.720 -0.6879  0.8670 -0.9078
  579SOL     OW 6583   7.794   2.121   4.180 -0.0599  0.1583 -0.0220
  579SOL    HW1 6584   7.875   2.138   4.132 -0.7353 -0.8037 -1.6045
  579SOL    HW2 6585   7.731   2.183   4.143 -0.3197  0.1541  0.4071
  580SOL     OW 6586   2.128   5.217   4.432  0.5556  0.0483  0.5143
  580SOL    HW1 6587   2.164   5.137   4.395  2.0696  0.0224  1.9302
  580SOL    HW2 6588   2.178   5.287   4.391 -0.0376  0.2064  0.0604
  581SOL     OW 6589   1.673   7.065   7.772  0.0172  0.6150  0.2889
  581SOL    HW1 6590   1.670   7.161   7.766  0.5206  0.6714  0.8217
  581SOL    HW2 6591   1.582   7.038   7.781 -0.1256  1.0451  0.1459
  582SOL     OW 6592   1.764   5.856   2.777  0.0897 -0.0783 -0.3572
  582SOL    HW1 6593   1.793   5.894   2.694  2.4334  0.6454  0.7155
  582SOL    HW2 6594   1.771   5.928   2.840  0.5555 -1.1909  0.8967
  583SOL     OW 6595   2.612   2.065   5.121  0.6753  0.1908  0.4569
  583SOL    HW1 6596   2.627   2.132   5.188  2.1375 -0.1170  0.4612
  583SOL    HW2 6597   2.606   2.114   5.039  0.9471  0.4018  0.5602
  584SOL     OW 6598   5.090   6.689   4.532 -0.1534  0.0201  0.2763
  584SOL    HW1 6599   5.064   6.696   4.624  0.3008 -1.6078  0.5572
  584SOL    HW2 6600   5.077   6.777   4.496 -0.4314  0.6475  1.8654
  585SOL     OW 6601   4.182   4.792   5.192 -0.4348 -0.2834  0.5265
  585SOL    HW1 6602   4.128   4.782   5.113 -3.1522 -0.3416  2.2700
  585SOL    HW2 6603   4.224   4.878   5.181 -1.1989 -0.0364 -0.7185
  586SOL     OW 6604   0.926   4.515   0.954  0.3547 -0.3079 -0.3709
  586SOL    HW1 6605   0.996   4.513   1.018 -0.2620  0.1584  0.3410
  586SOL    HW2 6606   0.970   4.518   0.869  1.2775  2.5401  0.1077
  587SOL     OW 6607   3.646   2.874   6.595  0.1828 -0.4405 -0.2101
  587SOL    HW1 6608   3.618   2.783   6.590  0.2955 -0.4391 -1.0584
  587SOL    HW2 6609   3.741   2.870   6.600  0.1395 -0.3943  1.0164
  588SOL     OW 6610   1.693   2.105   9.162 -0.2463 -0.1151  0.4680
  588SOL    HW1 6611   1.618   2.123   9.105 -0.2652 -0.8038  0.2690
  588SOL    HW2 6612   1.667   2.139   9.247  0.2421  2.0118 -0.1732
  589SOL     OW 6613   2.373   3.579   2.145 -0.6267 -0.0070 -0.4786
  589SOL    HW1 6614   2.285   3.605   2.173 -0.6634 -2.0307  1.6121
  589SOL    HW2 6615   2.399   3.646   2.082 -2.6850  2.0181  0.6679
  590SOL     OW 6616   0.310   3.658   0.439 -0.5573 -0.2708 -0.2785
  590SOL    HW1 6617   0.395   3.658   0.395  0.0397 -2.5884  0.7489
  590SOL    HW2 6618   0.316   3.730   0.503  1.4590 -1.6381  1.1885
  591SOL     OW 6619   3.448   6.207   0.270 -0.2828 -0.6321  0.5711
  591SOL    HW1 6620   3.469   6.224   0.179 -0.0467  0.1971  0.7727
  591SOL    HW2 6621   3.522   6.155   0.302  0.1409 -0.0387  0.5617
  592SOL     OW 6622   8.050   7.423   7.191  0.0390 -0.5977 -0.0829
  592SOL    HW1 6623   7.974   7.475   7.215 -0.2654 -1.5616  1.0969
  592SOL    HW2 6624   8.015   7.355   7.132  0.3294  0.1003 -1.0939
  593SOL     OW 6625   3.602   7.204   0.265  0.2170 -0.4472 -0.3141
  593SOL    HW1 6626   3.609   7.109   0.255  0.3416 -0.3962 -0.7377
  593SOL    HW2 6627   3.593   7.237   0.175  0.3409 -0.0457 -0.1818
  594SOL     OW 6628   8.104   3.140   3.655 -0.3140  0.3750 -0.0319
  594SOL    HW1 6629   8.140   3.111   3.571 -0.3902 -0.9298  0.3681
  594SOL    HW2 6630   8.173   3.120   3.719 -0.0669  1.7796  0.1780
  595SOL     OW 6631   4.904   0.145   6.491  0.2362 -0.5545 -0.0790
  595SOL    HW1 6632   4.902   0.219   6.552 -0.0906  1.2228 -2.1111
  595SOL    HW2 6633   4.874   0.070   6.543  1.6266  0.4573  2.3531
  596SOL     OW 6634   1.001   0.592   5.133 -0.0463 -0.3361 -0.9551
  596SOL    HW1 6635   0.923   0.645   5.116  0.4919  0.9203  0.2400
  596SOL    HW2 6636   1.061   0.613   5.061 -0.6079 -0.9259 -1.6060
  597SOL     OW 6637   1.675   6.049   1.807  0.6285  0.7908 -0.1310
  597SOL    HW1 6638   1.700   6.043   1.715 -1.2159 -1.4163 -0.5606
  597SOL    HW2 6639   1.711   5.969   1.846 -1.6901 -0.1519  0.2051
  598SOL     OW 6640   1.725   3.253   9.279  0.4353  0.8746  0.0051
  598SOL    HW1 6641   1.779   3.332   9.275 -0.2049  1.2755 -1.4898
  598SOL    HW2 6642   1.751   3.203   9.201 -1.2435  1.0275 -0.6857
  599SOL     OW 6643   2.960   5.251   0.416 -0.0183 -0.2178 -0.3281
  599SOL    HW1 6644   2.880   5.267   0.366 -0.0040 -0.9882 -0.5968
  599SOL    HW2 6645   2.948   5.302   0.497  0.5743  2.1957 -1.6627
  600SOL     OW 6646   1.797   3.227   9.022  0.0606  0.3743  0.3306
  600SOL    HW1 6647   1.797   3.309   8.973 -0.0661  0.1927  0.0223
  600SOL    HW2 6648   1.752   3.165   8.965  2.0808 -0.4798 -0.4258
  601SOL     OW 6649   7.092   0.064   1.986 -0.7990  0.0707 -0.1453
  601SOL    HW1 6650   7.037   0.117   2.044 -0.1949 -0.4288  0.9090
  601SOL    HW2 6651   7.057   0.080   1.899 -2.5168 -0.0896  0.4750
  602SOL     OW 6652   4.457   8.920   5.436 -0.2708 -0.2442 -0.2650
  602SOL    HW1 6653   4.514   8.989   5.401  2.5782 -1.8816  0.8597
  602SOL    HW2 6654   4.446   8.943   5.528  1.0396 -1.4366  0.2190
  603SOL     OW 6655   4.894   6.473   4.579  0.4948 -0.1318  0.6531
  603SOL    HW1 6656   4.870   6.480   4.671  1.5481  1.1222  0.8579
  603SOL    HW2 6657   4.988   6.489   4.578  0.3643  0.6619 -0.7311
  604SOL     OW 6658   1.705   6.206   2.689 -0.5980 -0.2180 -0.0918
  604SOL    HW1 6659   1.760   6.283   2.688 -1.6493  0.6014  1.2468
  604SOL    HW2 6660   1.726   6.162   2.772 -0.7583 -0.7946 -0.3495
  605SOL     OW 6661   6.302   4.556   6.359  0.4163 -0.6561 -0.6968
  605SOL    HW1 6662   6.232   4.497   6.385  0.0879 -0.4360 -1.0658
  605SOL    HW2 6663   6.331   4.522   6.274 -1.0249  0.7625 -1.8148
  606SOL     OW 6664   1.108   1.727   5.723 -0.1338  0.2835  0.3202
  606SOL    HW1 6665   1.146   1.686   5.801 -1.5490 -1.0499  0.3614
  606SOL    HW2 6666   1.164   1.803   5.706  1.1688 -0.3221  1.6656
  607SOL     OW 6667   7.907   1.514   5.270 -1.0150 -0.3686  0.6114
  607SOL    HW1 6668   7.839   1.465   5.225 -0.4347 -0.8602  0.2593
  607SOL    HW2 6669   7.989   1.473   5.243 -0.4853  0.9550  0.0816
  608SOL     OW 6670   4.170   6.843   2.438  0.2194 -0.6294  0.1103
  608SOL    HW1 6671   4.188   6.764   2.489 -1.4362 -0.8819  0.3739
  608SOL    HW2 6672   4.155   6.911   2.504  0.3318 -0.4118 -0.0865
  609SOL     OW 6673   3.307   7.423   9.627  0.2089 -0.3485  0.1363
  609SOL    HW1 6674   3.220   7.427   9.589 -0.8038  0.9027  2.3886
  609SOL    HW2 6675   3.341   7.338   9.599 -1.4984 -0.6397 -1.2213
  610SOL     OW 6676   7.092   3.801   3.271  0.4047 -0.6383  0.1042
  610SOL    HW1 6677   7.124   3.825   3.184  0.7670 -0.9060  0.1586
  610SOL    HW2 6678   7.062   3.883   3.310  3.6459  0.1990  1.1366
  611SOL     OW 6679   8.928   9.597   1.353 -0.6094 -0.4588  0.2094
  611SOL    HW1 6680   8.857   9.534   1.341 -0.1716 -0.6307 -1.8981
  611SOL    HW2 6681   8.885   9.679   1.375 -1.4289 -0.7194 -0.3820
  612SOL     OW 6682   3.577   3.219   2.174 -0.6449 -0.1388  0.0259
  612SOL    HW1 6683   3.620   3.205   2.258 -1.3922 -1.4730  0.2216
  612SOL    HW2 6684   3.496   3.168   2.180 -1.4259  0.9321 -0.9551
  613SOL     OW 6685   2.616   9.099   1.799 -0.4295  0.1995  0.0815
  613SOL    HW1 6686   2.564   9.062   1.727 -2.2623 -0.4923  1.6801
  613SOL    HW2 6687   2.624   9.192   1.776 -1.4147  0.0992 -0.7825
  614SOL     OW 6688   5.984   7.152   5.301 -0.0910  0.2737 -0.0334
  614SOL    HW1 6689   6.020   7.221   5.357 -1.3356  0.4589  0.5629
  614SOL    HW2 6690   6.005   7.181   5.212 -1.6803  2.1254  0.1196
  615SOL     OW 6691   4.436   3.239   4.451  0.1223 -0.0450 -0.1892
  615SOL    HW1 6692   4.496   3.281   4.390  2.3155  1.4668  2.7392
  615SOL    HW2 6693   4.350   3.273   4.429  1.1770  2.2863 -0.9593
  616SOL     OW 6694   9.577   3.819   6.053 -0.4026 -0.9976 -0.0120
  616SOL    HW1 6695   9.528   3.753   6.003 -0.3216 -0.3450 -0.9636
  616SOL    HW2 6696   9.622   3.768   6.120  1.8943 -2.3690 -2.4068
  617SOL     OW 6697   1.226   0.790   6.161 -0.0923 -0.4796 -0.6992
  617SOL    HW1 6698   1.295   0.736   6.199 -0.7389  0.0885  1.4530
  617SOL    HW2 6699   1.184   0.831   6.237 -1.3940  0.8719 -2.0906
  618SOL     OW 6700   2.744   0.868   7.026  0.0278 -0.2840  0.3364
  618SOL    HW1 6701   2.729   0.801   7.093  1.4926  0.2851  1.2768
  618SOL    HW2 6702   2.835   0.893   7.037  0.3888 -0.2957 -2.0125
  619SOL     OW 6703   6.375   5.774   8.548  0.2497  0.3690  0.3084
  619SOL    HW1 6704   6.423   5.695   8.521 -0.7801  0.8162 -3.4422
  619SOL    HW2 6705   6.285   5.744   8.558 -0.4006  1.1403 -2.4171
  620SOL     OW 6706   1.402   9.364   9.159  0.0235 -0.2127  0.3426
  620SOL    HW1 6707   1.313   9.343   9.130 -0.2083  0.5841  0.4443
  620SOL    HW2 6708   1.398   9.359   9.254 -0.9363  3.3852  0.6500
  621SOL     OW 6709   6.704   1.910   4.648  0.3231  0.2643  0.0966
  621SOL    HW1 6710   6.777   1.873   4.697 -0.0573 -0.6628 -0.0057
  621SOL    HW2 6711   6.683   1.992   4.693  1.7749  0.8392 -0.2166
  622SOL     OW 6712   7.856   5.407   4.495 -0.6902  0.5776 -0.1161
  622SOL    HW1 6713   7.819   5.386   4.581  3.7318  0.3439  2.0123
  622SOL    HW2 6714   7.862   5.503   4.494  2.3162  0.5111  1.5017
  623SOL     OW 6715   4.972   2.277   9.608  0.2686  0.0599  0.7567
  623SOL    HW1 6716   4.924   2.195   9.624 -0.0653  0.1079  0.0441
  623SOL    HW2 6717   4.913   2.345   9.640  0.6255  0.0239  1.5254
  624SOL     OW 6718   7.174   8.213   0.868 -0.0886 -0.1655  0.0867
  624SOL    HW1 6719   7.267   8.194   0.877  0.1917  0.2509 -1.7014
  624SOL    HW2 6720   7.132   8.127   0.862  0.1920 -0.3492  0.7060
  625SOL     OW 6721   7.736   0.620   9.225  0.9463 -0.4804 -0.2350
  625SOL    HW1 6722   7.667   0.610   9.160  1.0806  0.7419 -0.5852
  625SOL    HW2 6723   7.817   0.608   9.176  1.0592  0.7470 -0.3873
  626SOL     OW 6724   3.269   1.596   6.934 -0.0979  0.9324 -0.1890
  626SOL    HW1 6725   3.196   1.586   6.873  0.5790 -0.9819 -0.7539
  626SOL    HW2 6726   3.283   1.509   6.969  1.8476  1.2617 -0.0167
  627SOL     OW 6727   7.534   6.094   3.724 -0.3211 -0.7373  0.0347
  627SOL    HW1 6728   7.530   6.027   3.792  1.5945 -1.9546 -0.9438
  627SOL    HW2 6729   7.598   6.157   3.756 -0.6300 -0.4395  0.0705
  628SOL     OW 6730   2.795   6.010   8.055 -0.4912  0.0859 -0.5641
  628SOL    HW1 6731   2.870   6.068   8.065 -2.6026  2.9676 -0.4373
  628SOL    HW2 6732   2.772   6.016   7.962 -0.2572 -1.2871 -0.7380
  629SOL     OW 6733   5.749   3.586   9.159 -0.0801  0.4987  0.1878
  629SOL    HW1 6734   5.827   3.549   9.118  0.0577  1.2180 -0.2024
  629SOL    HW2 6735   5.701   3.629   9.088 -0.3674  0.8504  0.5844
  630SOL     OW 6736   9.077   2.708   3.545  0.2306 -0.1402  0.1252
  630SOL    HW1 6737   9.171   2.717   3.532  0.0971 -1.4047 -2.2438
  630SOL    HW2 6738   9.069   2.663   3.630  1.7541 -0.2407  0.2435
  631SOL     OW 6739   5.822   1.112   7.183  0.0954 -0.0545  0.3647
  631SOL    HW1 6740   5.835   1.088   7.274  0.0840 -0.9049  0.1471
  631SOL    HW2 6741   5.728   1.112   7.170 -0.0385  2.2670  0.9160
  632SOL     OW 6742   3.749   1.666   0.765 -0.4207 -0.5055 -0.3537
  632SOL    HW1 6743   3.688   1.598   0.794 -0.6261 -0.4857 -0.7273
  632SOL    HW2 6744   3.823   1.617   0.729  0.8594 -0.5732  2.1521
  633SOL     OW 6745   4.891   7.580   6.589  0.0983 -0.6034  0.1811
  633SOL    HW1 6746   4.924   7.655   6.540 -0.2512 -1.0452 -0.7512
  633SOL    HW2 6747   4.951   7.571   6.663  0.4127  0.3049  0.0508
  634SOL     OW 6748   3.981   6.514   0.690 -1.1581 -0.3345  0.1659
  634SOL    HW1 6749   3.953   6.543   0.603 -0.2656 -2.2304 -0.8113
  634SOL    HW2 6750   3.981   6.418   0.684  1.7291 -0.4901  1.3046
  635SOL     OW 6751   7.942   5.266   3.919 -0.5049  0.0770  0.5269
  635SOL    HW1 6752   7.854   5.301   3.926 -1.3168 -0.8907 -2.8947
  635SOL    HW2 6753   7.987   5.324   3.857  0.3935 -0.8956  0.2240
  636SOL     OW 6754   8.012   4.989   8.696 -0.1146 -0.1482 -0.3688
  636SOL    HW1 6755   8.048   4.901   8.705 -0.4189 -0.5199 -2.3482
  636SOL    HW2 6756   7.917   4.977   8.699 -0.1602  0.3845  1.2488
  637SOL     OW 6757   3.065   3.057   8.159 -0.5517 -0.3837  0.4244
  637SOL    HW1 6758   2.976   3.053   8.125 -0.0815 -1.7477 -0.7256
  637SOL    HW2 6759   3.112   2.986   8.115  1.0135  0.0443  1.2947
  638SOL     OW 6760   1.049   1.731   2.897 -0.4127 -0.0682  0.5255
  638SOL    HW1 6761   1.014   1.805   2.847  1.1535  1.0886  1.0863
  638SOL    HW2 6762   1.058   1.764   2.986  2.9222  0.0448  0.2526
  639SOL     OW 6763   4.066   8.845   7.618 -0.0674 -0.4957  0.0883
  639SOL    HW1 6764   4.050   8.774   7.556 -1.9963 -0.1314  0.1210
  639SOL    HW2 6765   3.982   8.889   7.627  1.2332  2.3624 -0.5825
  640SOL     OW 6766   7.229   8.608   2.890 -0.4369  0.1506 -0.0302
  640SOL    HW1 6767   7.258   8.637   2.977 -2.3587  0.5427  0.5363
  640SOL    HW2 6768   7.241   8.513   2.891 -2.0537 -0.0797  1.3615
  641SOL     OW 6769   9.350   1.427   4.189  0.5376  0.3609 -0.0281
  641SOL    HW1 6770   9.399   1.346   4.178  0.1312 -0.0076  0.8844
  641SOL    HW2 6771   9.406   1.494   4.149  0.4514 -0.4790 -1.6532
  642SOL     OW 6772   0.434   0.601   6.755 -0.7210 -0.2621  1.0562
  642SOL    HW1 6773   0.501   0.555   6.806 -0.5648 -0.1650  0.9393
  642SOL    HW2 6774   0.424   0.685   6.800 -0.6593 -0.2178  0.9851
  643SOL     OW 6775   7.160   5.634   2.383  0.9302  0.4685  0.2776
  643SOL    HW1 6776   7.241   5.629   2.333  1.2967 -1.4653  1.0043
  643SOL    HW2 6777   7.170   5.569   2.453 -1.3029  0.0470  0.2836
  644SOL     OW 6778   2.661   4.876   1.329 -0.0640  0.7911  0.5310
  644SOL    HW1 6779   2.646   4.855   1.421  0.0486  0.8042  0.5520
  644SOL    HW2 6780   2.577   4.859   1.287 -0.8194  2.9982  1.0264
  645SOL     OW 6781   7.303   3.073   3.014 -0.2575  0.3412 -0.1476
  645SOL    HW1 6782   7.322   3.167   3.017  3.7610 -0.3087  1.7201
  645SOL    HW2 6783   7.266   3.053   3.100 -0.1811  0.0799 -0.1728
  646SOL     OW 6784   3.482   1.280   3.993  0.4049  0.7611 -0.2728
  646SOL    HW1 6785   3.410   1.305   4.050 -1.5830  0.3809 -2.4455
  646SOL    HW2 6786   3.501   1.360   3.942  0.9254  0.6103 -0.3223
  647SOL     OW 6787   8.469   8.804   3.627  0.9094  0.1994 -0.0761
  647SOL    HW1 6788   8.470   8.726   3.683  0.5327 -1.2923 -2.0548
  647SOL    HW2 6789   8.469   8.877   3.689 -0.6226 -1.3535  1.9033
  648SOL     OW 6790   0.515   0.483   9.503  0.1280  0.1650  0.8407
  648SOL    HW1 6791   0.513   0.576   9.482  1.4763  0.4351  1.7569
  648SOL    HW2 6792   0.564   0.479   9.586 -1.5432 -1.1774  1.8164
  649SOL     OW 6793   6.333   4.417   0.059 -0.9378 -0.7836  0.5719
  649SOL    HW1 6794   6.426   4.440   0.056 -1.1371 -0.0111 -0.2912
  649SOL    HW2 6795   6.325   4.359   0.135 -0.1722  1.1075  2.1955
  650SOL     OW 6796   8.347   0.614   5.318  0.1296 -0.3757  0.1551
  650SOL    HW1 6797   8.439   0.591   5.304  0.0698 -0.7848  0.3985
  650SOL    HW2 6798   8.349   0.705   5.348  0.4702 -0.4308  0.3054
  651SOL     OW 6799   2.324   5.884   6.681  0.2706  0.2276  0.0389
  651SOL    HW1 6800   2.330   5.911   6.772 -2.3289 -1.1231  0.6803
  651SOL    HW2 6801   2.266   5.949   6.640 -0.1061 -0.2543 -0.1924
  652SOL     OW 6802   2.882   6.081   8.800 -0.3000 -0.0053 -0.0124
  652SOL    HW1 6803   2.967   6.067   8.841  0.5713  1.0922 -1.3902
  652SOL    HW2 6804   2.820   6.082   8.874  0.8462 -0.8307  1.0017
  653SOL     OW 6805   2.127   6.303   2.833  0.1536  0.0203 -0.1919
  653SOL    HW1 6806   2.145   6.239   2.764  1.4540 -0.2982  0.4031
  653SOL    HW2 6807   2.196   6.287   2.898  0.8519  2.3782 -0.2761
  654SOL     OW 6808   8.642   3.747   7.977  0.0502 -0.4546  0.4678
  654SOL    HW1 6809   8.648   3.822   7.917  0.2345  0.3240  1.4370
  654SOL    HW2 6810   8.732   3.725   7.997 -0.0017 -0.9944  0.1425
  655SOL     OW 6811   4.860   8.482   7.471  0.1178  0.0228 -0.0691
  655SOL    HW1 6812   4.810   8.534   7.534 -0.3130 -0.6140  0.1174
  655SOL    HW2 6813   4.798   8.463   7.400 -1.1294 -3.8118  1.7770
  656SOL     OW 6814   8.974   7.206   6.528  0.9907  0.5819  0.0582
  656SOL    HW1 6815   9.055   7.216   6.579  0.9824  0.4863  0.0915
  656SOL    HW2 6816   8.907   7.186   6.594  1.3335 -1.5167 -0.1432
  657SOL     OW 6817   8.689   3.350   7.674 -0.0730 -0.0340  0.0580
  657SOL    HW1 6818   8.682   3.321   7.765 -2.0757 -1.2200 -0.4133
  657SOL    HW2 6819   8.661   3.275   7.622 -0.6024  1.1587 -1.4576
  658SOL     OW 6820   9.003   3.377   7.812 -0.3752 -0.0745  0.5789
  658SOL    HW1 6821   9.092   3.412   7.809  0.1270 -1.3548 -0.7442
  658SOL    HW2 6822   9.010   3.296   7.864 -0.8356 -0.0327  0.7165
  659SOL     OW 6823   3.918   7.926   1.005  0.2910 -0.4223  0.3205
  659SOL    HW1 6824   3.826   7.952   1.000  0.4408  0.1860  0.6897
  659SOL    HW2 6825   3.930   7.868   0.929 -0.2304  0.0084 -0.1030
  660SOL     OW 6826   7.535   6.795   3.628 -0.2331 -0.3908 -0.5378
  660SOL    HW1 6827   7.531   6.743   3.709 -0.5103 -1.2292 -1.0750
  660SOL    HW2 6828   7.508   6.883   3.654  0.8648 -0.3513  0.5246
  661SOL     OW 6829   6.692   6.019   0.742 -0.4674 -0.2257  0.1686
  661SOL    HW1 6830   6.625   6.047   0.680  0.4666 -0.8359 -1.1448
  661SOL    HW2 6831   6.681   5.924   0.749 -1.1073 -0.0783  1.6169
  662SOL     OW 6832   4.498   2.848   4.470 -0.2344  0.3625  1.0478
  662SOL    HW1 6833   4.411   2.854   4.431  0.0186  1.4873  0.6173
  662SOL    HW2 6834   4.495   2.909   4.544  0.4505  1.0864  0.4938
  663SOL     OW 6835   7.727   4.913   6.705 -0.5169 -0.2259 -0.4421
  663SOL    HW1 6836   7.633   4.907   6.723 -0.4885  0.0437 -0.1859
  663SOL    HW2 6837   7.760   4.974   6.771 -0.3238  0.4433 -1.1365
  664SOL     OW 6838   0.580   4.554   3.925 -0.0012  0.0255 -0.4427
  664SOL    HW1 6839   0.568   4.550   3.830  2.0057  3.6982 -1.0330
  664SOL    HW2 6840   0.515   4.617   3.955 -0.8630 -1.3718  0.7504
  665SOL     OW 6841   6.296   0.656   8.866 -0.7840 -0.2366  0.1643
  665SOL    HW1 6842   6.348   0.606   8.930 -0.6500 -0.0440  0.2056
  665SOL    HW2 6843   6.209   0.661   8.906 -1.1276 -1.4574 -0.3741
  666SOL     OW 6844   6.705   5.640   3.285  0.0205 -0.0215  0.0175
  666SOL    HW1 6845   6.671   5.593   3.362  2.2369  0.5767  1.4465
  666SOL    HW2 6846   6.636   5.630   3.219 -1.7936 -0.9277  1.9206
  667SOL     OW 6847   2.817   5.663   5.204 -0.2824  0.5137 -0.5360
  667SOL    HW1 6848   2.836   5.757   5.199 -1.2344  0.7937  0.6625
  667SOL    HW2 6849   2.751   5.648   5.136 -1.8205  1.1968  0.7473
  668SOL     OW 6850   0.250   2.755   3.772  0.2561  0.5535 -0.9115
  668SOL    HW1 6851   0.345   2.752   3.766  0.3954 -0.2679  0.9216
  668SOL    HW2 6852   0.220   2.671   3.736  0.2399  0.7123 -1.2694
  669SOL     OW 6853   7.438   8.181   1.244 -0.1922 -0.1438 -0.0005
  669SOL    HW1 6854   7.405   8.180   1.154 -0.9565 -0.1161  0.2699
  669SOL    HW2 6855   7.366   8.218   1.296  0.7882  1.2788  0.4153
  670SOL     OW 6856   4.256   4.412   6.952  0.0125  0.6879 -0.4083
  670SOL    HW1 6857   4.167   4.440   6.972 -0.0084  0.4771 -0.1992
  670SOL    HW2 6858   4.270   4.438   6.861 -0.9324 -0.9715 -1.0580
  671SOL     OW 6859   3.406   1.107   5.437  0.3306  0.0478 -0.0192
  671SOL    HW1 6860   3.463   1.170   5.482  0.4668 -0.1017  0.0194
  671SOL    HW2 6861   3.467   1.048   5.391  0.3527 -1.8490  2.2561
  672SOL     OW 6862   3.548   0.170   9.241  0.9031 -0.1520  0.6863
  672SOL    HW1 6863   3.457   0.188   9.217  1.0003 -0.7660 -0.2152
  672SOL    HW2 6864   3.599   0.234   9.191  0.9964 -0.1196  0.8231
  673SOL     OW 6865   2.166   2.667   6.094  0.1862 -0.3910 -0.5886
  673SOL    HW1 6866   2.242   2.638   6.145 -0.9724  0.9725  2.0843
  673SOL    HW2 6867   2.090   2.638   6.145 -1.0682  0.1976 -2.0575
  674SOL     OW 6868   3.861   2.434   3.312 -0.1456 -0.2294  1.1194
  674SOL    HW1 6869   3.824   2.516   3.279 -0.3308  0.0116  1.9029
  674SOL    HW2 6870   3.872   2.448   3.406  1.3663 -0.5221  1.0152
  675SOL     OW 6871   1.074   6.377   3.255 -0.3130  0.8593 -0.9688
  675SOL    HW1 6872   1.056   6.463   3.216 -0.1738  1.5963  0.5453
  675SOL    HW2 6873   1.117   6.328   3.185 -1.0376  1.7598 -2.0954
  676SOL     OW 6874   1.586   5.388   7.039  1.2891  0.2405 -0.4492
  676SOL    HW1 6875   1.654   5.322   7.053  0.0597 -0.6770  1.6243
  676SOL    HW2 6876   1.586   5.440   7.119  0.0541  0.7042 -0.7283
  677SOL     OW 6877   4.688   6.354   3.372 -0.4523  0.0065  0.4631
  677SOL    HW1 6878   4.678   6.427   3.432 -1.6050 -0.9315  1.4557
  677SOL    HW2 6879   4.638   6.380   3.294  0.3819  0.8823  0.1983
  678SOL     OW 6880   6.687   0.635   6.102  0.4586  0.3170  0.3117
  678SOL    HW1 6881   6.738   0.572   6.051 -1.0170 -0.7828  0.1138
  678SOL    HW2 6882   6.675   0.594   6.187 -1.0613 -0.0208 -0.0256
  679SOL     OW 6883   4.428   1.573   2.382 -0.8814  0.6279  0.1489
  679SOL    HW1 6884   4.403   1.551   2.472 -1.6497  0.0083 -0.2062
  679SOL    HW2 6885   4.411   1.493   2.332 -0.2072  0.8862 -0.5012
  680SOL     OW 6886   7.355   9.570   5.820 -0.2287  0.5202 -0.1469
  680SOL    HW1 6887   7.358   9.501   5.887  3.1368 -0.1358 -0.8197
  680SOL    HW2 6888   7.323   9.525   5.742 -2.3728  0.8655  0.4568
  681SOL     OW 6889   4.267   6.336   4.779  0.1412  0.5653  0.2018
  681SOL    HW1 6890   4.330   6.302   4.715  0.3713  0.4320  0.4995
  681SOL    HW2 6891   4.272   6.275   4.853 -2.9147 -1.6140 -1.1609
  682SOL     OW 6892   8.048   3.505   2.797  0.7612  0.1314 -0.5551
  682SOL    HW1 6893   7.959   3.472   2.787 -0.2489  2.6168 -0.3705
  682SOL    HW2 6894   8.071   3.487   2.888 -0.4095  1.3696  0.0109
  683SOL     OW 6895   0.617   6.228   2.609  0.3979  0.7901 -0.1556
  683SOL    HW1 6896   0.543   6.240   2.550  0.0621  0.7942  0.2684
  683SOL    HW2 6897   0.596   6.282   2.685  1.2363  1.4879 -0.3982
  684SOL     OW 6898   1.349   5.884   0.574  0.3462  0.4670 -0.2823
  684SOL    HW1 6899   1.327   5.832   0.497  0.3430 -1.0053  0.6761
  684SOL    HW2 6900   1.353   5.974   0.542 -3.7966  0.5282 -1.2017
  685SOL     OW 6901   9.257   6.641   8.160  0.0700  0.2352 -0.5896
  685SOL    HW1 6902   9.326   6.574   8.157 -0.3876 -0.3282  0.7177
  685SOL    HW2 6903   9.283   6.700   8.230 -0.9933 -0.2734  0.2734
  686SOL     OW 6904   2.147   4.395   8.777 -0.2998  0.1603 -0.1061
  686SOL    HW1 6905   2.068   4.413   8.828  0.7485  1.2570  1.2010
  686SOL    HW2 6906   2.180   4.312   8.813 -0.0906  0.4339  0.3390
  687SOL     OW 6907   3.528   0.354   0.029 -1.1055 -0.1723 -0.3320
  687SOL    HW1 6908   3.535   0.407   0.109  0.1901 -0.6603 -0.0964
  687SOL    HW2 6909   3.446   0.382  -0.010 -0.4360  2.1385 -0.2859
  688SOL     OW 6910   0.581   7.658   9.302  0.4333 -0.3474 -0.2026
  688SOL    HW1 6911   0.648   7.664   9.370  0.9425 -2.6647 -0.4147
  688SOL    HW2 6912   0.498   7.658   9.349  0.6797  0.1435  0.2418
  689SOL     OW 6913   5.533   4.734   6.501 -0.6047  0.2835  0.0716
  689SOL    HW1 6914   5.576   4.713   6.584 -2.2387  1.9830  1.4289
  689SOL    HW2 6915   5.452   4.682   6.502 -0.5327  0.1492 -0.5810
  690SOL     OW 6916   0.031   5.591   7.719  0.0933 -0.0332 -0.0744
  690SOL    HW1 6917   0.071   5.656   7.777  0.9030 -0.3702 -0.2445
  690SOL    HW2 6918   0.088   5.514   7.725 -0.9519 -0.8150  0.2786
  691SOL     OW 6919   5.891   4.926   8.871  0.3197  0.2641  0.5309
  691SOL    HW1 6920   5.954   4.858   8.846  0.3911  0.0853  1.1630
  691SOL    HW2 6921   5.832   4.933   8.796 -1.4493 -2.5559  1.4539
  692SOL     OW 6922   0.630   6.434   5.599  0.3496  0.4505 -0.4233
  692SOL    HW1 6923   0.581   6.474   5.527 -1.5180  0.8326  1.0005
  692SOL    HW2 6924   0.601   6.343   5.601 -0.2466  0.6567  0.3778
  693SOL     OW 6925   2.574   5.423   6.383  0.2669  0.2949 -0.4425
  693SOL    HW1 6926   2.516   5.494   6.354  0.7928  0.6773 -0.5674
  693SOL    HW2 6927   2.534   5.344   6.347 -0.7856  0.4256  0.4015
  694SOL     OW 6928   5.159   2.790   2.621 -0.8255 -0.0086  0.7358
  694SOL    HW1 6929   5.124   2.702   2.639  1.4523 -1.4741 -1.2485
  694SOL    HW2 6930   5.217   2.808   2.695  1.3424 -1.8291 -0.3679
  695SOL     OW 6931   6.189   7.763   8.086  0.0730  0.0698  0.2990
  695SOL    HW1 6932   6.191   7.755   7.990 -0.1276  0.5106  0.2539
  695SOL    HW2 6933   6.131   7.837   8.102  1.4340  1.0733  0.7037
  696SOL     OW 6934   7.117   4.073   3.937  0.4434  0.2961  0.4206
  696SOL    HW1 6935   7.027   4.065   3.907  0.0062  0.2724  1.6737
  696SOL    HW2 6936   7.115   4.143   4.002  0.7838 -1.3739  2.3418
  697SOL     OW 6937   2.347   6.032   8.676  0.5985 -0.6968 -0.2138
  697SOL    HW1 6938   2.390   5.953   8.643 -2.5299 -2.4591 -0.4677
  697SOL    HW2 6939   2.256   6.006   8.688 -0.6541  2.9978 -0.5356
  698SOL     OW 6940   3.940   7.512   3.311 -0.1828 -0.0967 -0.1610
  698SOL    HW1 6941   3.929   7.460   3.391  0.1594  0.2045  0.0848
  698SOL    HW2 6942   3.998   7.460   3.256 -0.0620 -0.1019 -0.0293
  699SOL     OW 6943   2.002   2.037   1.623  0.1609 -0.2414  0.0557
  699SOL    HW1 6944   2.024   2.003   1.536  0.1941 -0.4204  0.1337
  699SOL    HW2 6945   2.080   2.087   1.649  0.0117  0.1192 -0.1688
  700SOL     OW 6946   1.872   9.285   1.387 -0.4567 -0.5013 -0.1224
  700SOL    HW1 6947   1.913   9.368   1.363 -0.7866 -0.5786 -0.9880
  700SOL    HW2 6948   1.833   9.253   1.306 -3.6305  0.3399  0.9378
  701SOL     OW 6949   7.045   2.728   4.118  0.0034 -0.4452 -0.4568
  701SOL    HW1 6950   7.140   2.715   4.107  0.2129  1.8339 -1.9197
  701SOL    HW2 6951   7.036   2.761   4.207  0.5935 -0.4990 -0.3687
  702SOL     OW 6952   4.828   4.294   7.165 -0.7547 -0.4094  0.5072
  702SOL    HW1 6953   4.825   4.339   7.080  0.4047 -1.9330 -0.3972
  702SOL    HW2 6954   4.763   4.340   7.218 -1.0553  1.0180 -0.9824
  703SOL     OW 6955   4.565   4.780   4.942 -0.6782 -0.5014 -0.0370
  703SOL    HW1 6956   4.590   4.860   4.989  0.7353 -1.4383  0.8896
  703SOL    HW2 6957   4.615   4.711   4.985 -0.4243 -1.6151 -2.0209
  704SOL     OW 6958   1.944   0.604   5.064  0.3366 -0.0693 -0.6663
  704SOL    HW1 6959   1.973   0.516   5.088  0.3142  0.2726  0.6473
  704SOL    HW2 6960   1.999   0.627   4.989  0.2828 -1.2280 -1.0908
  705SOL     OW 6961   0.743   8.627   4.824 -0.0375  0.2528  0.1733
  705SOL    HW1 6962   0.812   8.693   4.822  0.8446 -0.6700 -0.6607
  705SOL    HW2 6963   0.790   8.543   4.821 -1.1680 -0.4011  0.3199
  706SOL     OW 6964   4.442   7.766   6.519  0.1862  0.0553  0.7699
  706SOL    HW1 6965   4.404   7.683   6.546  0.4880 -0.9998 -1.7463
  706SOL    HW2 6966   4.372   7.809   6.469  0.8349  0.1258 -0.1055
  707SOL     OW 6967   6.331   2.584   7.773 -0.3742 -0.3216  0.5404
  707SOL    HW1 6968   6.261   2.535   7.730 -0.8728  0.6690  0.2114
  707SOL    HW2 6969   6.412   2.543   7.742 -0.7314  0.0929 -1.0002
  708SOL     OW 6970   1.820   9.241   4.401 -0.0463  0.1582 -0.1344
  708SOL    HW1 6971   1.795   9.194   4.481 -0.4750 -0.6013 -0.6948
  708SOL    HW2 6972   1.915   9.247   4.405  0.1742 -2.0619 -0.7131
  709SOL     OW 6973   7.832   8.357   1.100  0.3074  0.3457  0.2805
  709SOL    HW1 6974   7.812   8.449   1.080  0.6474  0.9325  2.4545
  709SOL    HW2 6975   7.890   8.330   1.028 -1.7365  1.0283 -1.7298
  710SOL     OW 6976   9.030   1.135   7.408  0.8528  0.7525 -0.2060
  710SOL    HW1 6977   9.012   1.101   7.496  1.4587  1.0560  0.0485
  710SOL    HW2 6978   9.070   1.062   7.362 -1.4132 -0.0875 -0.9435
  711SOL     OW 6979   7.575   0.660   4.128  0.1400  1.1797 -0.2291
  711SOL    HW1 6980   7.589   0.737   4.184 -1.9192  0.8233  0.8627
  711SOL    HW2 6981   7.495   0.679   4.081 -0.4366 -0.3120  0.1012
  712SOL     OW 6982   8.750   5.005   4.150  0.0787  0.5784 -0.5354
  712SOL    HW1 6983   8.740   5.008   4.055  1.1377 -0.7150 -0.7185
  712SOL    HW2 6984   8.840   4.974   4.164 -0.7788 -1.4896  0.8668
  713SOL     OW 6985   3.266   1.651   5.572 -0.1505  0.0027 -0.0458
  713SOL    HW1 6986   3.235   1.721   5.629  0.3567 -0.9198  1.4064
  713SOL    HW2 6987   3.359   1.643   5.592 -0.3233 -1.4988  0.3025
  714SOL     OW 6988   4.808   6.956   4.424 -0.1765 -0.6326  0.0189
  714SOL    HW1 6989   4.780   7.006   4.501  1.1084 -0.1132  0.1818
  714SOL    HW2 6990   4.750   6.986   4.354 -0.1055  0.3408  0.3586
  715SOL     OW 6991   5.902   6.692   1.447 -0.0667 -0.0459 -0.4721
  715SOL    HW1 6992   5.823   6.700   1.393  1.7570  0.0262 -3.3764
  715SOL    HW2 6993   5.874   6.641   1.523 -2.9034  0.0818 -1.2852
  716SOL     OW 6994   6.114   6.435   8.689 -0.1342 -0.0130  0.2689
  716SOL    HW1 6995   6.110   6.526   8.720 -1.4065 -0.4132  1.3514
  716SOL    HW2 6996   6.063   6.436   8.608 -1.7792 -0.1060  1.2574
  717SOL     OW 6997   9.002   8.916   7.784  0.4055 -0.0669 -0.0641
  717SOL    HW1 6998   8.985   9.008   7.766 -0.6579 -0.1218  0.5518
  717SOL    HW2 6999   8.915   8.876   7.789  0.8538 -1.1266 -0.4339
  718SOL     OW 7000   6.523   8.221   7.971  0.1643  0.5633 -0.4783
  718SOL    HW1 7001   6.503   8.148   8.030  3.3338 -1.0181 -1.1178
  718SOL    HW2 7002   6.604   8.259   8.006  1.8228 -0.0224 -3.2998
  719SOL     OW 7003   2.649   1.529   5.812  0.4542 -0.5971 -0.7638
  719SOL    HW1 7004   2.638   1.555   5.904  0.7990 -0.2305 -0.8239
  719SOL    HW2 7005   2.729   1.476   5.812  1.3489  0.7049 -1.0984
  720SOL     OW 7006   4.263   7.512   0.691  0.2974  0.5260  0.1376
  720SOL    HW1 7007   4.246   7.482   0.601  0.5737  1.1514 -0.1348
  720SOL    HW2 7008   4.222   7.446   0.747 -0.1541  0.2940 -0.4545
  721SOL     OW 7009   1.103   6.653   8.987  0.5301 -0.4394 -0.0291
  721SOL    HW1 7010   1.057   6.715   9.043  2.5386 -0.8567  2.2139
  721SOL    HW2 7011   1.036   6.623   8.925 -1.5657  0.7224  1.5547
  722SOL     OW 7012   9.439   6.267   0.180  0.2119  0.1498  0.1172
  722SOL    HW1 7013   9.393   6.304   0.104  0.5613 -2.4886 -1.5296
  722SOL    HW2 7014   9.531   6.270   0.156  0.3372 -0.5781  0.4816
  723SOL     OW 7015   5.669   4.647   2.024  0.1807  0.1155  0.3423
  723SOL    HW1 7016   5.581   4.612   2.042 -0.1340  0.7788  0.1263
  723SOL    HW2 7017   5.713   4.644   2.109 -0.0746 -0.1641  0.4680
  724SOL     OW 7018   7.575   3.161   8.348  0.1539  0.0223 -0.1206
  724SOL    HW1 7019   7.548   3.166   8.256  1.4710  1.1605 -0.4977
  724SOL    HW2 7020   7.595   3.069   8.362  0.9488 -0.0122 -1.3117
  725SOL     OW 7021   2.489   8.090   8.242 -0.0840  0.1371 -0.3841
  725SOL    HW1 7022   2.516   8.062   8.330 -0.4950 -0.7678 -0.5281
  725SOL    HW2 7023   2.571   8.104   8.195  0.1393  0.5690  0.1241
  726SOL     OW 7024   3.023   8.027   4.202  0.1982 -0.0320 -0.3789
  726SOL    HW1 7025   3.103   8.020   4.253 -0.8547  0.1389  1.3805
  726SOL    HW2 7026   3.004   7.938   4.174  0.5230 -0.2139 -0.0278
  727SOL     OW 7027   0.340   5.190   9.430  0.2585  0.0668 -0.8509
  727SOL    HW1 7028   0.331   5.098   9.457  0.4388  0.5768  1.0402
  727SOL    HW2 7029   0.421   5.192   9.380  0.1122 -0.8487 -1.1535
  728SOL     OW 7030   5.584   8.118   5.110 -0.1484 -0.0815  0.1496
  728SOL    HW1 7031   5.598   8.205   5.147  1.2081 -0.2986  0.1705
  728SOL    HW2 7032   5.535   8.134   5.030  0.9228  0.8012 -0.3501
  729SOL     OW 7033   3.107   8.751   5.874 -0.7625  0.0549  0.2611
  729SOL    HW1 7034   3.158   8.706   5.806 -0.3631  1.2324 -0.2517
  729SOL    HW2 7035   3.157   8.739   5.954 -0.1408  0.4156 -0.0663
  730SOL     OW 7036   4.237   3.927   5.935 -0.3914  0.0283 -0.4378
  730SOL    HW1 7037   4.213   4.017   5.955 -2.1376 -0.1849 -1.3260
  730SOL    HW2 7038   4.298   3.933   5.861 -0.9975  0.4853 -0.9126
  731SOL     OW 7039   0.802   7.684   0.033  0.0226  0.4001 -0.0148
  731SOL    HW1 7040   0.729   7.622   0.033  0.2516  0.0929 -1.5204
  731SOL    HW2 7041   0.844   7.671  -0.052 -1.1401  4.0538 -1.3085
  732SOL     OW 7042   2.854   7.537   3.523 -0.0670 -0.2070 -0.0949
  732SOL    HW1 7043   2.770   7.513   3.562 -0.1169 -0.1703 -0.1779
  732SOL    HW2 7044   2.858   7.632   3.530  2.1250 -0.3679  4.3270
  733SOL     OW 7045   8.062   1.151   3.211  0.4596  0.0162 -0.0152
  733SOL    HW1 7046   8.141   1.204   3.199 -0.4651  1.5495  0.4796
  733SOL    HW2 7047   8.000   1.209   3.255 -1.5001 -0.6461 -1.7449
  734SOL     OW 7048   3.327   4.554   1.547  0.0409  0.0147  1.3121
  734SOL    HW1 7049   3.274   4.483   1.585  1.5686 -1.5975  0.5596
  734SOL    HW2 7050   3.265   4.626   1.535 -1.5104 -1.0613  2.3970
  735SOL     OW 7051   5.159   5.285   3.110 -0.3749 -0.6407  0.3978
  735SOL    HW1 7052   5.230   5.348   3.122 -0.8894  0.5225 -1.9264
  735SOL    HW2 7053   5.197   5.216   3.055 -0.5443 -1.0054  0.7305
  736SOL     OW 7054   1.840   1.528   5.509  0.2952 -0.2802 -0.1487
  736SOL    HW1 7055   1.920   1.557   5.466  0.2202 -1.2788 -0.9995
  736SOL    HW2 7056   1.771   1.543   5.444  0.3781 -3.1743 -1.0436
  737SOL     OW 7057   3.026   7.631   6.305  0.1869  0.2646 -0.0334
  737SOL    HW1 7058   3.053   7.543   6.278  1.9786  1.0517 -0.9658
  737SOL    HW2 7059   2.957   7.655   6.243 -0.4552 -0.5209  0.3468
  738SOL     OW 7060   6.167   2.777   8.871  0.0531  0.6150 -0.1344
  738SOL    HW1 7061   6.187   2.788   8.778  0.5642  0.5843 -0.0282
  738SOL    HW2 7062   6.245   2.808   8.916  0.7403 -1.4775  0.2255
  739SOL     OW 7063   9.447   3.515   4.013  0.5955 -0.1157 -0.1133
  739SOL    HW1 7064   9.533   3.491   4.048  0.7022 -1.3892 -1.1562
  739SOL    HW2 7065   9.447   3.479   3.924 -0.3386  1.4604 -0.7891
  740SOL     OW 7066   2.424   1.013   1.522 -0.1356 -1.0228 -0.5223
  740SOL    HW1 7067   2.392   0.979   1.438 -0.7524 -0.7086 -0.4183
  740SOL    HW2 7068   2.511   0.974   1.532  0.2632 -0.4669 -1.6642
  741SOL     OW 7069   6.780   8.978   7.760 -0.3655 -0.5354 -0.7876
  741SOL    HW1 7070   6.832   9.021   7.693  0.0109 -0.1330 -0.2521
  741SOL    HW2 7071   6.725   9.048   7.797  0.0003 -0.5774 -0.1471
  742SOL     OW 7072   5.577   4.260   4.289 -0.5180 -0.5149 -0.2017
  742SOL    HW1 7073   5.576   4.304   4.374 -0.6078 -1.2556  0.1948
  742SOL    HW2 7074   5.625   4.178   4.305  1.1075  0.1716 -1.3039
  743SOL     OW 7075   7.190   6.384   8.198 -0.1730 -0.3012 -0.0598
  743SOL    HW1 7076   7.240   6.305   8.219 -0.8518 -0.3173  1.6796
  743SOL    HW2 7077   7.246   6.456   8.227 -0.8310 -0.2905  1.2266
  744SOL     OW 7078   5.068   4.095   2.238  0.3540  0.4536  0.0885
  744SOL    HW1 7079   5.114   4.131   2.314  0.5424 -0.7397  0.5700
  744SOL    HW2 7080   5.063   4.001   2.255 -1.3228  0.4024 -0.4781
  745SOL     OW 7081   8.970   3.777   9.066  0.5406 -0.3582 -0.0142
  745SOL    HW1 7082   9.058   3.752   9.096  0.3610 -0.9380  0.0200
  745SOL    HW2 7083   8.978   3.871   9.050  1.3510 -0.5127 -0.6192
  746SOL     OW 7084   3.382   6.181   0.824  0.3367 -0.2185 -0.2527
  746SOL    HW1 7085   3.413   6.168   0.913 -0.3133  0.4409  0.0784
  746SOL    HW2 7086   3.458   6.217   0.778  0.9147 -1.3151 -0.1807
  747SOL     OW 7087   2.476   8.588   1.069  0.0499  0.0444  0.4548
  747SOL    HW1 7088   2.515   8.670   1.100 -0.0445  0.3046 -0.0966
  747SOL    HW2 7089   2.540   8.521   1.092  0.2283  0.2979  0.7133
  748SOL     OW 7090   6.788   7.972   3.333 -0.8019 -0.2894 -0.0788
  748SOL    HW1 7091   6.843   8.008   3.402  0.2879  1.0706 -1.5887
  748SOL    HW2 7092   6.699   7.996   3.359 -0.3025  1.3923  0.2132
  749SOL     OW 7093   5.751   4.540   3.432  0.9392 -0.5254  0.2594
  749SOL    HW1 7094   5.732   4.519   3.524 -1.9234  0.2063 -0.0804
  749SOL    HW2 7095   5.787   4.628   3.434 -1.4949  0.5497  0.5937
  750SOL     OW 7096   4.186   2.087   9.559 -0.1859  0.0979 -0.0543
  750SOL    HW1 7097   4.135   2.008   9.543 -0.3058  0.2477 -0.4178
  750SOL    HW2 7098   4.219   2.077   9.648  1.7969 -1.4958 -0.8920
  751SOL     OW 7099   5.494   8.443   5.652  0.6036 -0.0052  0.0313
  751SOL    HW1 7100   5.524   8.416   5.739  0.5553 -0.0500  0.0342
  751SOL    HW2 7101   5.411   8.488   5.668  1.0459  0.8155  0.1090
  752SOL     OW 7102   9.216   9.203   6.571  0.3005  0.0554  0.0715
  752SOL    HW1 7103   9.143   9.168   6.622  0.0543  4.1818  3.0640
  752SOL    HW2 7104   9.174   9.243   6.494 -0.4588  0.8788  0.8840
  753SOL     OW 7105   3.424   4.289   8.909 -0.0318 -0.1200  0.0961
  753SOL    HW1 7106   3.396   4.204   8.944  1.5086 -0.1298  1.4345
  753SOL    HW2 7107   3.403   4.351   8.979  2.0159  0.0398  0.6391
  754SOL     OW 7108   3.068   6.161   4.867 -0.2716  0.8332  0.0666
  754SOL    HW1 7109   3.050   6.165   4.774  0.4206 -1.3941 -0.2017
  754SOL    HW2 7110   3.123   6.238   4.884  0.9932  0.3801 -1.7114
  755SOL     OW 7111   0.546   9.282   8.442  0.1807 -0.4826  0.4322
  755SOL    HW1 7112   0.473   9.345   8.445  1.1430  0.7687 -1.1256
  755SOL    HW2 7113   0.615   9.323   8.493  0.5142 -0.6843  0.1454
  756SOL     OW 7114   8.329   7.522   9.590 -0.1275 -0.0923  0.6785
  756SOL    HW1 7115   8.294   7.607   9.567  0.2728 -0.7831 -3.2016
  756SOL    HW2 7116   8.420   7.539   9.617  0.1275  0.7067 -0.6268
  757SOL     OW 7117   5.069   6.952   1.386  0.0309 -0.4565 -0.1107
  757SOL    HW1 7118   5.156   6.919   1.362  1.2630  1.4761  1.3499
  757SOL    HW2 7119   5.077   7.047   1.381 -1.0202 -0.0794  2.9017
  758SOL     OW 7120   6.538   1.045   5.419 -0.6294  0.1082 -0.1489
  758SOL    HW1 7121   6.501   0.957   5.431 -1.5138  0.5875  0.7124
  758SOL    HW2 7122   6.561   1.048   5.326 -1.2544 -0.7791 -0.3461
  759SOL     OW 7123   0.555   4.794   6.265  0.1604 -0.4274  0.7903
  759SOL    HW1 7124   0.632   4.787   6.322 -0.0071  0.9553  1.2185
  759SOL    HW2 7125   0.576   4.738   6.190  2.1369  0.8571  0.3035
  760SOL     OW 7126   9.076   9.079   0.409  0.2786 -0.4656 -0.0143
  760SOL    HW1 7127   9.104   9.033   0.489 -0.5481  0.0062  0.5530
  760SOL    HW2 7128   9.137   9.152   0.401 -0.1233 -0.0522  0.6342
  761SOL     OW 7129   5.223   6.837   5.262 -0.1014 -0.6884 -0.1828
  761SOL    HW1 7130   5.311   6.873   5.249 -0.6650  0.7035 -0.3021
  761SOL    HW2 7131   5.218   6.819   5.356  1.1322 -3.0926 -0.4983
  762SOL     OW 7132   1.329   8.482   8.571 -0.1658  0.6147 -0.4119
  762SOL    HW1 7133   1.418   8.456   8.545  0.3695  1.3319  0.6211
  762SOL    HW2 7134   1.332   8.481   8.667 -1.2120  0.8800 -0.3728
  763SOL     OW 7135   8.476   4.659   8.477 -0.3031 -0.9069  0.2437
  763SOL    HW1 7136   8.478   4.566   8.453  1.8012 -1.1203  0.9585
  763SOL    HW2 7137   8.511   4.660   8.566  0.2725  0.6196  0.0202
  764SOL     OW 7138   9.750   2.603   0.544  0.6130  0.2834  0.7622
  764SOL    HW1 7139   9.705   2.687   0.542  1.4979  0.7628  0.5179
  764SOL    HW2 7140   9.756   2.576   0.453 -0.5538 -0.5439  0.9110
  765SOL     OW 7141   9.596   0.488   8.120  0.0269  0.2247  0.0025
  765SOL    HW1 7142   9.630   0.484   8.031  1.0678  0.1035  0.3860
  765SOL    HW2 7143   9.649   0.424   8.169 -0.5953  0.2131  0.6878
  766SOL     OW 7144   4.095   4.399   4.493  0.1926 -0.1903  0.6109
  766SOL    HW1 7145   4.102   4.478   4.547 -0.8625  0.6336 -0.3970
  766SOL    HW2 7146   4.026   4.419   4.430 -0.2958 -2.0369  0.4988
  767SOL     OW 7147   2.763   1.743   7.809 -0.1508 -0.3158 -0.1217
  767SOL    HW1 7148   2.803   1.708   7.889  0.2311 -2.7156 -1.2627
  767SOL    HW2 7149   2.676   1.772   7.836  0.7267  0.9363  1.5411
  768SOL     OW 7150   3.609   5.306   6.469 -0.2207  0.0275  0.3209
  768SOL    HW1 7151   3.639   5.259   6.547 -0.7556 -0.2356  0.3766
  768SOL    HW2 7152   3.616   5.242   6.398  2.1497  0.8367 -0.2784
  769SOL     OW 7153   0.231   7.555   8.654 -0.0603  0.1786  0.2968
  769SOL    HW1 7154   0.195   7.603   8.579  1.0477 -0.2383 -0.5443
  769SOL    HW2 7155   0.315   7.521   8.622 -0.7834 -2.3344  0.8303
  770SOL     OW 7156   9.702   7.175   1.029 -0.0640  0.2972  0.3385
  770SOL    HW1 7157   9.683   7.196   0.937 -1.0237  1.5325  0.7935
  770SOL    HW2 7158   9.794   7.148   1.028 -0.5786 -1.6122 -1.2654
  771SOL     OW 7159   1.693   5.142   9.286  0.3505  0.2406  0.6125
  771SOL    HW1 7160   1.769   5.086   9.304  0.6139  1.1426  2.6209
  771SOL    HW2 7161   1.618   5.089   9.313  0.2237 -0.6204 -1.2965
  772SOL     OW 7162   7.722   9.019   9.204 -0.2210  0.2823  0.0700
  772SOL    HW1 7163   7.638   9.003   9.247  1.0563 -1.9880  1.9531
  772SOL    HW2 7164   7.758   9.094   9.250 -0.3302 -0.0324  0.6782
  773SOL     OW 7165   1.219   3.699   2.120 -0.5110 -0.3056  0.2828
  773SOL    HW1 7166   1.202   3.734   2.207  0.0132  0.1343  0.2134
  773SOL    HW2 7167   1.166   3.752   2.061 -0.7480 -0.5042  0.3154
  774SOL     OW 7168   6.196   6.944   4.097  0.0211 -0.0534 -0.5314
  774SOL    HW1 7169   6.247   7.015   4.135 -1.6328  1.0186 -0.1865
  774SOL    HW2 7170   6.225   6.865   4.143 -0.4071  0.8990  1.4831
  775SOL     OW 7171   3.169   4.495   7.982  0.4041  0.0741 -0.0836
  775SOL    HW1 7172   3.180   4.406   8.016  0.4286 -1.5053 -3.7813
  775SOL    HW2 7173   3.255   4.517   7.945 -0.1829  0.7099 -1.1298
  776SOL     OW 7174   3.654   3.288   6.770  0.1642  0.4452 -0.2734
  776SOL    HW1 7175   3.720   3.239   6.819  0.1424  1.2849  0.6363
  776SOL    HW2 7176   3.645   3.241   6.687 -0.0765 -1.2620  0.6777
  777SOL     OW 7177   0.523   8.915   2.650  0.3266  0.4383 -0.1149
  777SOL    HW1 7178   0.463   8.854   2.607  0.1278 -0.6325  1.5972
  777SOL    HW2 7179   0.603   8.864   2.666 -0.5041 -0.1030  3.0625
  778SOL     OW 7180   6.298   9.735   2.146  0.3783  0.1978  0.2412
  778SOL    HW1 7181   6.336   9.649   2.166 -0.8089 -0.4814 -0.3220
  778SOL    HW2 7182   6.364   9.798   2.174  0.8046 -0.8649  1.7031
  779SOL     OW 7183   7.055   4.680   6.552 -0.1631 -0.3314  0.0388
  779SOL    HW1 7184   6.979   4.729   6.585 -1.3325 -2.7554  1.1858
  779SOL    HW2 7185   7.111   4.668   6.628  0.1667 -0.7014 -0.2597
  780SOL     OW 7186   1.980   5.032   9.031 -0.0148  1.1850  0.6066
  780SOL    HW1 7187   1.964   5.100   8.965 -0.6218  2.3743  1.9402
  780SOL    HW2 7188   2.047   5.070   9.088 -1.5496  1.4153  2.3488
  781SOL     OW 7189   8.192   3.562   5.451  0.3637 -0.6316 -0.4445
  781SOL    HW1 7190   8.228   3.650   5.455 -0.4374 -0.2955 -0.4974
  781SOL    HW2 7191   8.214   3.530   5.364 -0.1803 -0.1156 -0.7768
  782SOL     OW 7192   0.152   2.235   1.146  0.2588 -0.3020  0.2416
  782SOL    HW1 7193   0.185   2.276   1.066  0.9211  0.2556  0.7758
  782SOL    HW2 7194   0.134   2.145   1.122 -3.5296  0.7463 -1.6195
  783SOL     OW 7195   2.728   0.115   0.776  0.0672  0.8317 -0.2308
  783SOL    HW1 7196   2.699   0.179   0.711  0.5582  0.5533 -0.7343
  783SOL    HW2 7197   2.754   0.039   0.724 -2.4675 -0.6114  0.4380
  784SOL     OW 7198   7.086   4.405   9.185  0.3974  0.1955  0.4789
  784SOL    HW1 7199   7.156   4.411   9.120 -2.2332  0.5894 -2.5616
  784SOL    HW2 7200   7.056   4.315   9.180 -1.4104  0.8085 -0.7786
  785SOL     OW 7201   7.234   4.992   8.115  0.4894 -0.2622 -0.3391
  785SOL    HW1 7202   7.140   4.996   8.131  0.5916 -1.4625  0.6587
  785SOL    HW2 7203   7.257   5.081   8.085 -1.4143 -0.6582 -3.3950
  786SOL     OW 7204   5.261   3.712   9.439 -0.0282 -0.5971  0.0428
  786SOL    HW1 7205   5.322   3.644   9.409 -0.4269 -0.6910 -0.5729
  786SOL    HW2 7206   5.292   3.735   9.527  0.2992 -1.3559  0.1358
  787SOL     OW 7207   9.207   5.968   2.245  0.1255  0.8168  0.7173
  787SOL    HW1 7208   9.119   5.973   2.206  0.5378  1.3228 -0.1919
  787SOL    HW2 7209   9.238   6.059   2.244  1.1488  0.4746 -0.1522
  788SOL     OW 7210   5.407   4.895   0.450 -0.4631  0.6207  0.3790
  788SOL    HW1 7211   5.368   4.929   0.531 -0.9512  0.4657  0.2152
  788SOL    HW2 7212   5.346   4.922   0.381  0.1314  1.0586  0.0147
  789SOL     OW 7213   4.707   1.994   2.103  0.0940 -0.0099 -0.4209
  789SOL    HW1 7214   4.697   1.967   2.012  0.7189  0.8912 -0.7733
  789SOL    HW2 7215   4.801   1.999   2.116  0.0868  2.9260 -0.7183
  790SOL     OW 7216   5.798   3.385   8.644 -0.6961  0.5218 -0.0491
  790SOL    HW1 7217   5.845   3.467   8.662 -1.4657  1.2557 -1.2082
  790SOL    HW2 7218   5.717   3.413   8.602 -1.9222 -0.7444  1.3661
  791SOL     OW 7219   6.250   5.775   0.083 -0.0657 -0.1204  0.1979
  791SOL    HW1 7220   6.252   5.784   0.178  0.0563  1.5090  0.0752
  791SOL    HW2 7221   6.189   5.703   0.067 -1.6142  0.8235  1.4586
  792SOL     OW 7222   6.727   5.985   3.942 -0.1556 -0.0617  0.4104
  792SOL    HW1 7223   6.801   5.972   4.001  1.1451  1.1414 -0.8774
  792SOL    HW2 7224   6.742   6.071   3.902 -1.8218 -0.1421 -0.4934
  793SOL     OW 7225   0.869   3.181   4.832 -0.4792  0.3852  0.8847
  793SOL    HW1 7226   0.962   3.179   4.809 -0.6834 -0.5804  0.1080
  793SOL    HW2 7227   0.863   3.127   4.911 -0.7257 -1.6384 -0.4558
  794SOL     OW 7228   4.701   5.541   9.573 -0.0822  0.5809  0.5391
  794SOL    HW1 7229   4.612   5.550   9.538 -0.4511 -0.2534  1.2178
  794SOL    HW2 7230   4.704   5.452   9.609 -0.2362  1.7697  3.8397
  795SOL     OW 7231   4.696   8.424   7.215  0.0218 -0.3916 -0.2066
  795SOL    HW1 7232   4.603   8.411   7.201  0.2068 -0.8620 -1.0643
  795SOL    HW2 7233   4.729   8.337   7.238  0.2759 -0.2560 -0.0504
  796SOL     OW 7234   9.565   3.399   9.265 -0.5489 -0.0640  0.6238
  796SOL    HW1 7235   9.625   3.383   9.192 -0.7740 -0.8832  0.6080
  796SOL    HW2 7236   9.591   3.334   9.332 -0.8250  0.1825  0.9734
  797SOL     OW 7237   3.232   5.139   1.225  0.4152 -0.8975  0.0923
  797SOL    HW1 7238   3.188   5.134   1.140  0.2431 -0.6021  0.1619
  797SOL    HW2 7239   3.163   5.161   1.286  0.5510 -1.0505  0.3024
  798SOL     OW 7240   0.692   8.968   1.775  0.2116  0.5233  0.4139
  798SOL    HW1 7241   0.785   8.946   1.784  0.1980  0.3168  0.0611
  798SOL    HW2 7242   0.646   8.903   1.827  0.1961 -0.0566 -0.3124
  799SOL     OW 7243   0.722   6.709   7.343  0.1311  0.7446  0.3734
  799SOL    HW1 7244   0.812   6.702   7.312  0.2967  2.0338  0.5323
  799SOL    HW2 7245   0.683   6.624   7.322  1.2118  0.3784 -0.2177
  800SOL     OW 7246   0.585   4.250   9.190  0.2236  0.0438  0.7019
  800SOL    HW1 7247   0.595   4.305   9.112  2.5898 -0.0209  0.8668
  800SOL    HW2 7248   0.579   4.312   9.263 -1.5807  0.0965  0.5501
  801SOL     OW 7249   3.635   6.659   2.228 -0.5542 -0.0369 -0.4918
  801SOL    HW1 7250   3.543   6.679   2.242 -0.9564 -1.2076 -1.2501
  801SOL    HW2 7251   3.654   6.689   2.139 -0.5024 -0.7270 -0.7239
  802SOL     OW 7252   6.816   1.227   7.872  0.1789  0.5421  0.4723
  802SOL    HW1 7253   6.723   1.208   7.875  0.2035  0.4960  1.0754
  802SOL    HW2 7254   6.825   1.293   7.804  0.1538 -1.8967 -2.0784
  803SOL     OW 7255   5.148   0.685   3.182 -0.7817  0.0924 -0.1641
  803SOL    HW1 7256   5.184   0.601   3.154  0.1471  0.4839 -0.1659
  803SOL    HW2 7257   5.059   0.685   3.148 -1.1694 -1.3408  0.7251
  804SOL     OW 7258   6.230   6.204   1.479  0.7571 -0.5423 -0.0806
  804SOL    HW1 7259   6.247   6.217   1.572  0.5672 -0.2756 -0.0815
  804SOL    HW2 7260   6.200   6.114   1.472  0.7527 -0.5563  0.1186
  805SOL     OW 7261   6.883   9.103   6.399  0.1246 -0.2878  0.8633
  805SOL    HW1 7262   6.815   9.037   6.384 -0.3345 -0.7933  4.3045
  805SOL    HW2 7263   6.960   9.070   6.353 -1.1091 -1.2788 -0.5670
  806SOL     OW 7264   1.735   6.748   4.032  0.4567  0.2450 -0.2168
  806SOL    HW1 7265   1.780   6.693   3.968  1.5380  0.3558  0.4219
  806SOL    HW2 7266   1.649   6.764   3.993  1.0809  0.3266 -1.6504
  807SOL     OW 7267   4.570   6.400   1.563  0.6030  0.3579 -0.1854
  807SOL    HW1 7268   4.485   6.379   1.524  0.5180 -0.3045  0.3432
  807SOL    HW2 7269   4.600   6.318   1.601  1.8017  0.4238 -0.9481
  808SOL     OW 7270   0.634   3.228   2.339  0.2897  0.6228  0.2240
  808SOL    HW1 7271   0.688   3.173   2.395  3.1099  1.3969 -1.5374
  808SOL    HW2 7272   0.634   3.185   2.254 -1.4369  0.9768 -0.0073
  809SOL     OW 7273   9.010   0.063   2.643 -0.4920  0.3473  0.2739
  809SOL    HW1 7274   9.093   0.099   2.672  0.4147 -0.1443 -1.5702
  809SOL    HW2 7275   9.032  -0.023   2.607 -2.0682 -0.5485  1.3128
  810SOL     OW 7276   3.660   2.154   0.183 -0.0447  0.0795  0.1245
  810SOL    HW1 7277   3.570   2.185   0.172 -0.6872 -1.9512 -0.8168
  810SOL    HW2 7278   3.669   2.082   0.120  1.7927 -0.6763  1.1554
  811SOL     OW 7279   5.454   9.006   8.366  0.1142  0.4640  0.2919
  811SOL    HW1 7280   5.479   8.968   8.281 -2.7475  1.6002 -1.1980
  811SOL    HW2 7281   5.411   8.934   8.412  0.1765  0.2804  0.0663
  812SOL     OW 7282   1.516   4.191   0.424 -0.3916  0.0379  0.3284
  812SOL    HW1 7283   1.431   4.170   0.386  0.4424 -0.9970 -1.0766
  812SOL    HW2 7284   1.578   4.137   0.375  1.0038  0.2062  1.8073
  813SOL     OW 7285   2.088   8.669   4.371  0.8286 -0.4789 -0.0285
  813SOL    HW1 7286   2.044   8.603   4.423 -0.6557  0.3692 -0.1499
  813SOL    HW2 7287   2.120   8.733   4.434 -1.3897  0.8006 -0.0760
  814SOL     OW 7288   6.949   7.012   7.982 -0.2648  0.4743  0.4929
  814SOL    HW1 7289   6.961   6.921   7.953 -1.9049  0.1772  0.6474
  814SOL    HW2 7290   6.855   7.020   7.996 -0.2818  2.5389 -0.5443
  815SOL     OW 7291   4.513   4.068   4.190 -0.4375  0.2133  0.3333
  815SOL    HW1 7292   4.519   4.058   4.285  0.9117  1.3699  0.4111
  815SOL    HW2 7293   4.461   3.993   4.161 -0.9034 -0.1377  1.9817
  816SOL     OW 7294   0.170   2.086   6.809 -0.4694  0.6555 -0.4678
  816SOL    HW1 7295   0.143   2.014   6.865 -0.2225  0.7091 -0.2794
  816SOL    HW2 7296   0.167   2.163   6.866  1.7156  0.4193  0.0424
  817SOL     OW 7297   7.704   1.129   5.036 -0.5913  0.3932 -0.3849
  817SOL    HW1 7298   7.613   1.137   5.009 -0.1217  2.3948 -1.5629
  817SOL    HW2 7299   7.750   1.097   4.958 -0.2974 -0.9729  0.3113
  818SOL     OW 7300   8.125   5.339   4.919  0.2998  0.2134  0.4879
  818SOL    HW1 7301   8.064   5.325   4.992 -0.8158  0.1473 -0.4185
  818SOL    HW2 7302   8.104   5.269   4.856  2.4129 -0.7895  0.8175
  819SOL     OW 7303   3.523   1.445   0.172 -0.5011  0.4212  0.4386
  819SOL    HW1 7304   3.578   1.367   0.163  0.9052  1.3316  0.8525
  819SOL    HW2 7305   3.444   1.424   0.122  0.6461 -0.5502 -1.0738
  820SOL     OW 7306   9.223   3.667   9.142  0.3037 -0.2679  0.3219
  820SOL    HW1 7307   9.280   3.722   9.195  0.8448 -1.2660  0.8008
  820SOL    HW2 7308   9.272   3.585   9.130  0.1923 -0.1050 -1.6752
  821SOL     OW 7309   5.777   6.220   5.878 -0.2743  0.0592 -0.3118
  821SOL    HW1 7310   5.813   6.295   5.926 -1.6820 -0.3097  1.4433
  821SOL    HW2 7311   5.808   6.144   5.927 -2.7334 -0.2863  0.8458
  822SOL     OW 7312   4.314   8.249   2.194 -0.8675 -0.6673 -1.1567
  822SOL    HW1 7313   4.299   8.323   2.135 -1.8400 -0.2692 -0.4345
  822SOL    HW2 7314   4.402   8.261   2.227 -0.2137 -1.0081 -2.6657
  823SOL     OW 7315   9.452   2.456   7.617 -0.1512 -0.1156  0.1897
  823SOL    HW1 7316   9.516   2.496   7.676  1.2874 -0.0677 -1.3558
  823SOL    HW2 7317   9.495   2.377   7.584 -1.2230 -0.5412 -0.2278
  824SOL     OW 7318   3.821   2.346   4.751  0.1156  0.0766  0.2301
  824SOL    HW1 7319   3.850   2.346   4.842  1.0047  0.7604 -0.0365
  824SOL    HW2 7320   3.736   2.301   4.753  0.0438  0.2229  1.4126
  825SOL     OW 7321   6.397   1.840   9.470 -0.4721 -0.3407 -0.3760
  825SOL    HW1 7322   6.369   1.893   9.396  1.6744 -1.3459 -2.0311
  825SOL    HW2 7323   6.493   1.842   9.466 -0.2443 -0.0686  2.6810
  826SOL     OW 7324   6.745   3.751   9.440 -0.2762  0.3610  0.4470
  826SOL    HW1 7325   6.772   3.704   9.519 -0.6467  1.2264  1.1047
  826SOL    HW2 7326   6.724   3.839   9.471  1.5266  1.3390 -0.9283
  827SOL     OW 7327   7.103   9.584   1.652 -0.1276 -0.3103 -0.0894
  827SOL    HW1 7328   7.197   9.577   1.665 -0.1608  0.8987  0.9866
  827SOL    HW2 7329   7.081   9.672   1.681 -1.5848 -0.5324 -0.4307
  828SOL     OW 7330   5.928   5.161   1.844  0.7911  0.6703 -0.1465
  828SOL    HW1 7331   5.989   5.087   1.846 -0.4730 -0.4159  0.2295
  828SOL    HW2 7332   5.881   5.150   1.762  0.8017  1.2384 -0.2287
  829SOL     OW 7333   1.381   3.340   9.688 -0.2363 -1.0882  0.2060
  829SOL    HW1 7334   1.344   3.343   9.600 -2.0553  0.2668  0.9430
  829SOL    HW2 7335   1.349   3.259   9.726 -0.8707 -0.8528  0.1781
  830SOL     OW 7336   0.991   2.366   7.081  0.2306  0.1308  0.2802
  830SOL    HW1 7337   0.905   2.400   7.057 -0.3460 -0.4723  1.4138
  830SOL    HW2 7338   1.023   2.424   7.150  0.4830  0.0288  0.2533
  831SOL     OW 7339   4.221   5.532   5.876 -0.3597  0.6481  0.4790
  831SOL    HW1 7340   4.249   5.474   5.805  0.0789  0.5939  0.6932
  831SOL    HW2 7341   4.294   5.532   5.937 -0.3565  1.4287  0.4835
  832SOL     OW 7342   2.819   5.105   9.118  0.3615 -0.2893 -0.9298
  832SOL    HW1 7343   2.885   5.170   9.142  0.4937 -0.9532  0.6373
  832SOL    HW2 7344   2.840   5.081   9.028  1.3685  0.5614 -0.9347
  833SOL     OW 7345   4.217   1.429   6.098  0.0450 -0.6480  0.1110
  833SOL    HW1 7346   4.245   1.507   6.145 -2.3472  0.7408 -0.6201
  833SOL    HW2 7347   4.275   1.425   6.022 -0.6249  1.2144 -0.5455
  834SOL     OW 7348   3.880   0.025   6.224  0.2818  0.8046 -0.0033
  834SOL    HW1 7349   3.817  -0.013   6.286  1.8189 -0.6953  0.7155
  834SOL    HW2 7350   3.928   0.090   6.276  0.8882  0.2670  0.1212
  835SOL     OW 7351   8.925   3.857   7.162 -0.3359 -0.3185  0.2522
  835SOL    HW1 7352   8.866   3.804   7.216  0.0938 -0.4363  0.6072
  835SOL    HW2 7353   9.012   3.842   7.199 -0.0121 -0.5249 -0.5705
  836SOL     OW 7354   2.213   7.508   4.301 -0.0438 -0.2890 -0.2433
  836SOL    HW1 7355   2.259   7.437   4.257  0.2136 -0.6097  0.5285
  836SOL    HW2 7356   2.155   7.464   4.363 -1.2537  0.1174 -1.0564
  837SOL     OW 7357   1.034   3.276   5.188  0.0157  0.1687  0.3405
  837SOL    HW1 7358   1.106   3.290   5.125 -1.2000  1.5666 -0.8033
  837SOL    HW2 7359   1.050   3.341   5.257  0.2685 -0.0406  0.4804
  838SOL     OW 7360   1.956   5.245   0.140 -0.0616  0.2481  0.4718
  838SOL    HW1 7361   2.049   5.262   0.127  0.0754 -0.8442 -0.0717
  838SOL    HW2 7362   1.924   5.323   0.186  0.4070  2.2523 -2.3013
  839SOL     OW 7363   2.928   7.515   6.958 -0.2790  0.5775 -0.1150
  839SOL    HW1 7364   3.004   7.573   6.952 -0.8565  1.3262 -0.3875
  839SOL    HW2 7365   2.964   7.427   6.945  0.9092  0.6346  2.2690
  840SOL     OW 7366   7.014   2.397   5.365  0.7676  0.2980  0.4178
  840SOL    HW1 7367   7.080   2.330   5.350  0.5432  0.3889 -1.1934
  840SOL    HW2 7368   6.988   2.386   5.456  0.8232 -1.7188  0.2316
  841SOL     OW 7369   0.849   7.603   1.326 -0.0430 -0.3599  0.3547
  841SOL    HW1 7370   0.788   7.673   1.302  0.8551 -0.2182 -1.7004
  841SOL    HW2 7371   0.804   7.522   1.301  0.5418 -0.2574 -1.1263
  842SOL     OW 7372   4.341   3.861   2.639  0.2409  0.4576 -0.1017
  842SOL    HW1 7373   4.322   3.843   2.547 -0.1149 -2.8509  0.4958
  842SOL    HW2 7374   4.437   3.866   2.643  0.2673  0.4005 -0.6032
  843SOL     OW 7375   6.791   2.409   9.589 -0.3737 -0.5055 -0.0865
  843SOL    HW1 7376   6.825   2.498   9.600 -1.2281 -0.2670  0.7459
  843SOL    HW2 7377   6.828   2.379   9.506  0.4817  0.3672 -0.0372
  844SOL     OW 7378   4.348   1.618   9.509  0.5612 -0.4283 -0.6085
  844SOL    HW1 7379   4.434   1.637   9.471  0.5439 -1.6740 -1.3253
  844SOL    HW2 7380   4.358   1.532   9.549  0.4975  0.7067  2.1057
  845SOL     OW 7381   7.006   3.960   0.262  0.0767 -0.1534  0.1917
  845SOL    HW1 7382   6.964   4.036   0.302  0.2472  0.3317 -0.5336
  845SOL    HW2 7383   7.065   3.997   0.197  0.0678 -0.9168 -0.2617
  846SOL     OW 7384   3.812   0.885   0.229 -0.1720 -0.7064  0.1689
  846SOL    HW1 7385   3.898   0.928   0.227  0.0090 -0.8996  1.9426
  846SOL    HW2 7386   3.776   0.908   0.315 -0.9961 -2.3256  0.2999
  847SOL     OW 7387   8.207   0.225   7.550  0.1243 -0.0830  0.0287
  847SOL    HW1 7388   8.285   0.205   7.499 -0.9610 -2.0609 -0.9368
  847SOL    HW2 7389   8.189   0.317   7.531  1.8897  0.2645 -0.1436
  848SOL     OW 7390   6.261   0.981   2.562 -0.2919 -0.1396 -0.6080
  848SOL    HW1 7391   6.354   1.000   2.566 -0.0187 -1.6190  2.5795
  848SOL    HW2 7392   6.220   1.065   2.539  1.6602  1.1424  0.3627
  849SOL     OW 7393   0.882   4.722   1.698 -0.5163 -0.3063  0.8662
  849SOL    HW1 7394   0.915   4.787   1.759  0.2263  0.2411 -0.0950
  849SOL    HW2 7395   0.861   4.646   1.753 -0.8702  0.5297  1.9273
  850SOL     OW 7396   8.018   1.834   5.729  0.6837 -0.0666  0.1632
  850SOL    HW1 7397   8.048   1.923   5.748  1.3656 -0.1972 -0.2580
  850SOL    HW2 7398   7.960   1.812   5.801  2.5829 -0.2747  1.7082
  851SOL     OW 7399   2.132   7.047   0.888 -0.1444  0.0883  0.4162
  851SOL    HW1 7400   2.044   7.062   0.922 -0.7155  0.8756 -1.2999
  851SOL    HW2 7401   2.156   7.129   0.846 -0.0279 -1.1685 -2.1714
  852SOL     OW 7402   7.852   3.879   7.583 -0.2258  0.1842 -0.3122
  852SOL    HW1 7403   7.828   3.919   7.499  0.7771 -0.6625 -1.0305
  852SOL    HW2 7404   7.891   3.950   7.633 -0.4117  0.5945 -0.7454
  853SOL     OW 7405   0.417   2.550   3.237 -0.4212  0.1968  0.4851
  853SOL    HW1 7406   0.400   2.467   3.282  0.5851 -0.6690 -0.6668
  853SOL    HW2 7407   0.511   2.566   3.252 -0.2360  0.2587 -0.6864
  854SOL     OW 7408   2.695   4.254   6.653 -0.2666  0.2392 -0.4614
  854SOL    HW1 7409   2.738   4.326   6.699 -0.9639  0.1997  0.2777
  854SOL    HW2 7410   2.761   4.220   6.593  0.5021  0.6134  0.1662
  855SOL     OW 7411   3.607   9.044   2.396 -0.2891  0.3957 -0.4535
  855SOL    HW1 7412   3.553   9.117   2.365  1.6375  0.7900 -3.1639
  855SOL    HW2 7413   3.565   8.966   2.358 -0.7756  0.3458  0.1663
  856SOL     OW 7414   9.296   8.728   6.129 -0.1387 -0.4137  0.0281
  856SOL    HW1 7415   9.323   8.707   6.218 -2.3300  1.2004  1.1838
  856SOL    HW2 7416   9.324   8.819   6.117  1.2993 -0.9984 -1.4932
  857SOL     OW 7417   1.864   9.327   1.913 -0.0881  0.1262  0.2736
  857SOL    HW1 7418   1.883   9.384   1.839 -0.1477  1.1363  1.0089
  857SOL    HW2 7419   1.913   9.247   1.895 -0.6335  0.0853 -1.1744
  858SOL     OW 7420   4.315   4.179   8.383 -0.2772 -0.2981  0.1249
  858SOL    HW1 7421   4.220   4.177   8.369  0.0286 -0.1702 -2.5681
  858SOL    HW2 7422   4.326   4.206   8.474 -2.8036  1.2890  0.0412
  859SOL     OW 7423   9.716   6.900   2.416  0.0730  0.1912 -0.6482
  859SOL    HW1 7424   9.731   6.807   2.401  0.3255  0.2264 -0.6158
  859SOL    HW2 7425   9.671   6.904   2.500  2.3376  0.2521  0.6549
  860SOL     OW 7426   5.094   8.628   8.671  0.1834  0.2156 -0.2499
  860SOL    HW1 7427   5.032   8.692   8.635 -0.0664 -0.2958 -0.7414
  860SOL    HW2 7428   5.084   8.551   8.615  0.8864 -0.0580 -0.0073
  861SOL     OW 7429   1.529   9.612   1.302  0.2256  0.0759 -0.3406
  861SOL    HW1 7430   1.550   9.548   1.234  2.1543  1.7027 -1.3783
  861SOL    HW2 7431   1.450   9.656   1.271 -1.3838 -1.9755  0.5914
  862SOL     OW 7432   0.496   9.103   4.515 -0.4070  0.4586  0.2395
  862SOL    HW1 7433   0.471   9.080   4.425 -1.1850  1.2037  0.2552
  862SOL    HW2 7434   0.592   9.105   4.512 -0.3804 -0.6406 -0.2801
  863SOL     OW 7435   4.404   8.244   3.031 -0.2635  0.1463  0.9641
  863SOL    HW1 7436   4.409   8.331   3.071  1.6999 -0.3335  1.8775
  863SOL    HW2 7437   4.494   8.221   3.010 -0.8587 -1.2014 -0.3858
  864SOL     OW 7438   9.439   1.526   1.486  0.6759  0.7883  0.3921
  864SOL    HW1 7439   9.450   1.458   1.420 -2.2396  1.1148 -0.5907
  864SOL    HW2 7440   9.453   1.481   1.570 -1.0681 -1.0875 -0.2211
  865SOL     OW 7441   5.868   9.464   4.971 -0.2871 -0.5490 -0.1729
  865SOL    HW1 7442   5.835   9.374   4.962 -2.6335  0.0473  1.4855
  865SOL    HW2 7443   5.918   9.462   5.052 -0.1347 -0.4185 -0.2655
  866SOL     OW 7444   9.485   3.148   3.646  0.5932  0.6934  0.0219
  866SOL    HW1 7445   9.548   3.123   3.714  1.1027 -0.4115 -0.8285
  866SOL    HW2 7446   9.497   3.083   3.577 -1.5784  0.3753 -0.1181
  867SOL     OW 7447   3.732   8.823   3.518  0.0186  0.0908 -0.1979
  867SOL    HW1 7448   3.785   8.756   3.475 -0.9729 -0.4702 -0.5709
  867SOL    HW2 7449   3.783   8.848   3.595  0.8501 -0.3878 -0.5772
  868SOL     OW 7450   2.176   8.616   3.427  0.3076 -0.3190  0.0657
  868SOL    HW1 7451   2.200   8.542   3.370 -0.7814 -0.1156 -0.6900
  868SOL    HW2 7452   2.141   8.682   3.368 -0.5184  0.0500  0.9378
  869SOL     OW 7453   5.275   3.846   4.627 -0.0914  0.7797 -0.9313
  869SOL    HW1 7454   5.198   3.882   4.671 -0.8958 -0.2295 -1.4614
  869SOL    HW2 7455   5.332   3.818   4.698 -0.7023  0.5437 -0.5187
  870SOL     OW 7456   4.097   6.567   8.394  0.0993 -0.1162  0.2800
  870SOL    HW1 7457   4.099   6.557   8.489  1.0133  1.2185  0.4298
  870SOL    HW2 7458   4.156   6.499   8.361  0.2403 -0.2023  0.7104
  871SOL     OW 7459   8.962   5.097   0.058  0.2378  0.4611  1.0936
  871SOL    HW1 7460   9.000   5.178   0.093 -2.1152  1.8131  0.7004
  871SOL    HW2 7461   8.922   5.055   0.135  1.9964 -0.7355  1.4219
  872SOL     OW 7462   5.976   1.224   0.930 -0.2842  0.3891 -0.2121
  872SOL    HW1 7463   5.905   1.282   0.905 -0.6870 -0.9950 -2.6372
  872SOL    HW2 7464   6.043   1.238   0.862  1.1196  0.5088  1.1297
  873SOL     OW 7465   0.134   7.646   0.220 -0.0899 -0.5465 -0.2119
  873SOL    HW1 7466   0.126   7.615   0.130  0.9325 -0.9401 -0.1754
  873SOL    HW2 7467   0.214   7.699   0.220 -1.7050  2.1251 -0.2681
  874SOL     OW 7468   3.061   6.884   0.878 -0.6158 -0.1901  0.1427
  874SOL    HW1 7469   3.040   6.945   0.807 -1.5941  0.2394  0.7925
  874SOL    HW2 7470   3.031   6.928   0.957 -0.5676 -1.1664  0.7094
  875SOL     OW 7471   7.994   2.706   0.346  0.0440  0.9735  0.0186
  875SOL    HW1 7472   7.902   2.730   0.331  0.0341  0.3941 -0.8863
  875SOL    HW2 7473   8.041   2.739   0.269  0.4237  0.3370 -0.0313
  876SOL     OW 7474   7.453   0.860   1.455  0.3274  0.0431 -0.2505
  876SOL    HW1 7475   7.389   0.878   1.386 -1.2537  0.3665  1.2423
  876SOL    HW2 7476   7.504   0.786   1.422 -0.7082 -0.1245 -1.5477
  877SOL     OW 7477   4.170   0.295   7.194 -0.2472  0.3227  0.5910
  877SOL    HW1 7478   4.093   0.345   7.165 -0.4309 -0.5309 -0.4492
  877SOL    HW2 7479   4.150   0.205   7.170  1.9686  0.3355 -1.7105
  878SOL     OW 7480   3.579   9.266   7.371  0.1091 -0.6851  0.2472
  878SOL    HW1 7481   3.673   9.286   7.375  0.4661 -2.0834 -0.6183
  878SOL    HW2 7482   3.543   9.331   7.311  0.2404  0.7323  1.6256
  879SOL     OW 7483   8.148   0.539   6.424  0.0372  0.0249  0.1921
  879SOL    HW1 7484   8.071   0.593   6.408  0.1892  0.1241 -0.2155
  879SOL    HW2 7485   8.122   0.481   6.495 -0.5231 -0.1477 -0.1445
  880SOL     OW 7486   8.544   0.361   8.838  0.6659  0.0280  0.1094
  880SOL    HW1 7487   8.531   0.343   8.744 -1.1633 -1.4610  0.5942
  880SOL    HW2 7488   8.637   0.343   8.853  0.4763 -2.2464 -0.9577
  881SOL     OW 7489   7.040   1.102   3.875  0.2609  0.2036 -0.4111
  881SOL    HW1 7490   7.006   1.016   3.901  0.6701  0.0037 -0.5330
  881SOL    HW2 7491   7.123   1.083   3.831 -0.6578  0.4740 -2.3635
  882SOL     OW 7492   3.032   6.552   8.494  0.0362 -0.4243 -0.1982
  882SOL    HW1 7493   2.972   6.556   8.419 -1.3298  1.2901  0.9000
  882SOL    HW2 7494   3.074   6.466   8.486  1.1400  0.2673 -3.7720
  883SOL     OW 7495   0.430   7.115   2.609  0.0186  0.2278  0.3931
  883SOL    HW1 7496   0.437   7.074   2.523  1.4822  0.0559  0.5814
  883SOL    HW2 7497   0.514   7.157   2.623 -0.5583  1.1325  1.3136
  884SOL     OW 7498   8.594   9.284   1.492  0.6146  0.4780  0.3941
  884SOL    HW1 7499   8.501   9.299   1.475  0.4049 -1.2268 -0.2175
  884SOL    HW2 7500   8.596   9.234   1.574  1.1498  2.0951  1.4159
  885SOL     OW 7501   3.843   1.919   5.991 -0.4977 -0.1060 -0.3371
  885SOL    HW1 7502   3.863   1.839   5.942 -0.1081  0.5512 -1.2694
  885SOL    HW2 7503   3.776   1.964   5.939  1.3012  1.5513 -1.3142
  886SOL     OW 7504   7.168   9.277   4.217 -0.1352 -0.5753  0.3320
  886SOL    HW1 7505   7.216   9.220   4.157 -0.0292  0.1156 -0.2588
  886SOL    HW2 7506   7.171   9.363   4.176 -2.9807 -0.7162 -0.4211
  887SOL     OW 7507   5.609   2.840   0.919  0.1527  0.0079 -0.2875
  887SOL    HW1 7508   5.657   2.891   0.985 -0.7741  2.4871 -1.4220
  887SOL    HW2 7509   5.672   2.829   0.848  0.6497 -1.3391  0.3133
  888SOL     OW 7510   9.406   6.385   5.709 -0.1036 -0.1574 -0.4136
  888SOL    HW1 7511   9.315   6.355   5.704 -0.2773  0.3332 -0.3072
  888SOL    HW2 7512   9.458   6.305   5.703 -0.5652 -0.5226  0.3571
  889SOL     OW 7513   0.085   0.771   8.222 -0.3066 -0.0430 -0.3940
  889SOL    HW1 7514   0.115   0.682   8.239  0.0924  0.0161 -0.7663
  889SOL    HW2 7515   0.148   0.806   8.159 -0.2088  0.6498  0.0768
  890SOL     OW 7516   6.906   7.610   1.952 -0.4640  0.2516 -0.1351
  890SOL    HW1 7517   6.876   7.570   1.870 -0.1611  2.4268 -1.4102
  890SOL    HW2 7518   6.832   7.663   1.981 -0.2784  0.1406  0.5609
  891SOL     OW 7519   9.395   6.562   3.657 -0.1997 -0.3482  0.2017
  891SOL    HW1 7520   9.462   6.559   3.725  0.4843 -2.0478 -0.4889
  891SOL    HW2 7521   9.437   6.606   3.583 -0.7443  0.9593  0.6490
  892SOL     OW 7522   4.370   2.432   3.629  0.6591  0.2084  0.3990
  892SOL    HW1 7523   4.400   2.341   3.632  0.2984  0.0862  0.3076
  892SOL    HW2 7524   4.449   2.484   3.646  1.1091 -0.0789 -0.6906
  893SOL     OW 7525   5.626   0.408   0.472  0.0387  0.0925  0.2326
  893SOL    HW1 7526   5.558   0.359   0.518 -0.2857 -0.8020 -1.1462
  893SOL    HW2 7527   5.702   0.351   0.473  0.0275  0.0626 -0.3282
  894SOL     OW 7528   5.019   3.216   9.054  0.1323  0.1829 -0.4616
  894SOL    HW1 7529   5.060   3.277   9.115 -2.1174  1.6718 -0.3098
  894SOL    HW2 7530   4.932   3.201   9.091 -0.1101 -1.4945 -1.6207
  895SOL     OW 7531   8.357   4.452   1.322 -0.0496 -0.3226  0.4589
  895SOL    HW1 7532   8.417   4.526   1.318  2.0238 -1.6490  3.5418
  895SOL    HW2 7533   8.276   4.487   1.357  0.8836  0.5721  1.8106
  896SOL     OW 7534   4.608   7.015   4.240  0.5470 -0.2245 -0.3344
  896SOL    HW1 7535   4.605   6.984   4.150  0.2254 -0.6109 -0.1958
  896SOL    HW2 7536   4.582   6.939   4.292  1.2281 -0.1566  0.1178
  897SOL     OW 7537   6.276   4.763   2.402  0.3492 -0.1013 -0.3384
  897SOL    HW1 7538   6.343   4.747   2.468 -1.2937  1.2454  1.7646
  897SOL    HW2 7539   6.274   4.858   2.392 -0.6253 -0.1863 -1.0783
  898SOL     OW 7540   9.056   3.335   4.742 -0.2576  0.4349 -0.2206
  898SOL    HW1 7541   8.991   3.368   4.679 -1.1849 -1.5890 -0.3794
  898SOL    HW2 7542   9.022   3.251   4.770  1.5381  0.0436  0.9233
  899SOL     OW 7543   4.823   7.283   4.361  0.3888  0.6749 -0.0166
  899SOL    HW1 7544   4.873   7.214   4.318 -2.6171 -1.4432 -0.4772
  899SOL    HW2 7545   4.794   7.243   4.443  0.0011  2.0467  0.5438
  900SOL     OW 7546   1.338   0.718   7.215  0.6141 -0.3466 -0.1800
  900SOL    HW1 7547   1.412   0.732   7.274 -0.5666 -3.5591  2.3314
  900SOL    HW2 7548   1.372   0.660   7.147  0.3312 -2.5515  1.4619
  901SOL     OW 7549   3.686   4.441   7.388  0.4579 -0.5039 -0.3993
  901SOL    HW1 7550   3.751   4.389   7.437  2.5238  0.1041 -2.3123
  901SOL    HW2 7551   3.658   4.383   7.317 -0.5996 -0.5044  0.0057
  902SOL     OW 7552   1.068   4.795   2.447  0.6451 -0.2131 -0.3661
  902SOL    HW1 7553   1.104   4.883   2.450  1.2671 -0.4659 -0.0041
  902SOL    HW2 7554   1.032   4.786   2.359 -0.2942  0.7223 -0.0979
  903SOL     OW 7555   8.934   3.613   1.759  0.0945  0.4845 -0.0803
  903SOL    HW1 7556   8.964   3.673   1.691 -0.8448  0.8971 -0.1474
  903SOL    HW2 7557   8.943   3.662   1.841  2.0837 -0.3208  0.2580
  904SOL     OW 7558   2.244   0.225   0.354 -0.2495 -0.5126 -0.3290
  904SOL    HW1 7559   2.305   0.232   0.427  0.2447 -1.7111 -0.6012
  904SOL    HW2 7560   2.226   0.316   0.329  0.4096 -0.1166  0.5838
  905SOL     OW 7561   2.163   5.632   7.241 -0.5008 -0.6734 -0.7416
  905SOL    HW1 7562   2.225   5.688   7.288  1.7160 -2.6931 -1.0863
  905SOL    HW2 7563   2.083   5.637   7.293  0.6109  0.3326  0.9864
  906SOL     OW 7564   6.282   1.936   2.725 -1.0421 -0.2904  0.3099
  906SOL    HW1 7565   6.266   1.963   2.816 -0.9710 -0.8589  0.4946
  906SOL    HW2 7566   6.314   2.016   2.682 -0.3220 -0.2098  0.9752
  907SOL     OW 7567   3.815   3.460   5.343  0.3573  0.2361  0.6539
  907SOL    HW1 7568   3.756   3.394   5.307 -0.5982  1.3562  0.0999
  907SOL    HW2 7569   3.761   3.538   5.353  1.6112  1.1454  0.6542
  908SOL     OW 7570   7.211   9.293   2.118 -0.0696  0.6385  0.6270
  908SOL    HW1 7571   7.203   9.304   2.213  0.9517  0.5677  0.7262
  908SOL    HW2 7572   7.167   9.370   2.081 -1.8853 -0.1138  1.1067
  909SOL     OW 7573   4.028   5.518   6.814  0.1600  0.0045  0.6614
  909SOL    HW1 7574   3.938   5.548   6.829 -0.1161 -1.2931  1.7337
  909SOL    HW2 7575   4.080   5.564   6.879 -0.0170 -0.6278  1.2541
  910SOL     OW 7576   2.901   6.335   3.772 -0.2951 -0.4237 -0.7134
  910SOL    HW1 7577   2.958   6.258   3.770 -0.4329 -0.7853  2.7412
  910SOL    HW2 7578   2.813   6.300   3.756 -0.3826 -1.0891  1.0298
  911SOL     OW 7579   4.059   2.306   9.449  0.1651 -0.7081  0.1981
  911SOL    HW1 7580   4.043   2.212   9.452 -0.0731 -0.6818 -0.1540
  911SOL    HW2 7581   4.132   2.320   9.509  0.0377 -1.0824  0.4451
  912SOL     OW 7582   4.776   0.643   4.037 -0.1550  0.5012  0.6847
  912SOL    HW1 7583   4.807   0.581   4.104 -0.7269 -0.4281  0.1057
  912SOL    HW2 7584   4.768   0.726   4.084  0.4707  0.1051  1.5179
  913SOL     OW 7585   3.651   4.403   5.929  0.1606 -0.3392 -0.1217
  913SOL    HW1 7586   3.575   4.450   5.895 -0.2883 -1.6302 -0.9837
  913SOL    HW2 7587   3.623   4.373   6.016  0.9851  2.1852  1.1070
  914SOL     OW 7588   0.607   0.149   4.805 -0.4247  0.6496 -0.2699
  914SOL    HW1 7589   0.561   0.066   4.811  1.6897 -0.4893  1.3523
  914SOL    HW2 7590   0.540   0.215   4.825 -1.1883 -0.9952  3.4804
  915SOL     OW 7591   6.809   9.283   0.714  0.0430  0.2740  0.2034
  915SOL    HW1 7592   6.737   9.231   0.752  0.5022 -0.5763 -0.0545
  915SOL    HW2 7593   6.879   9.276   0.778  0.3195  0.0488 -0.1203
  916SOL     OW 7594   1.555   1.073   4.896  0.0490  0.4421 -0.5572
  916SOL    HW1 7595   1.499   1.107   4.966  0.4765 -2.1007  1.1770
  916SOL    HW2 7596   1.642   1.108   4.915  0.0273  0.3224 -0.2336
  917SOL     OW 7597   4.906   6.403   1.552 -0.1004  0.3669 -0.1296
  917SOL    HW1 7598   4.816   6.406   1.519 -0.2270 -0.1984  0.1546
  917SOL    HW2 7599   4.903   6.342   1.625  0.8319 -0.8478 -1.0694
  918SOL     OW 7600   9.468   0.777   6.455 -0.3955 -0.5621  0.2173
  918SOL    HW1 7601   9.414   0.781   6.534  1.0580 -1.4318  1.3132
  918SOL    HW2 7602   9.419   0.721   6.395 -1.8089  0.6101  0.2319
  919SOL     OW 7603   1.037   1.439   6.801 -0.1452  0.4443 -0.8600
  919SOL    HW1 7604   1.080   1.422   6.717 -2.3140  1.2545 -2.2148
  919SOL    HW2 7605   1.022   1.352   6.838 -1.1678 -0.0917 -2.4157
  920SOL     OW 7606   1.327   6.115   7.843 -0.2841 -0.7073  0.0205
  920SOL    HW1 7607   1.245   6.160   7.821  0.6063 -0.1449 -2.4063
  920SOL    HW2 7608   1.346   6.062   7.765  1.5914 -0.9209  0.5949
  921SOL     OW 7609   4.828   2.393   2.477  0.3197 -0.1661  0.2408
  921SOL    HW1 7610   4.885   2.328   2.437  1.2480  0.5906  0.3011
  921SOL    HW2 7611   4.854   2.476   2.436 -0.9216  0.1658  0.0765
  922SOL     OW 7612   6.473   7.157   8.416 -0.2871 -0.4968  0.1908
  922SOL    HW1 7613   6.397   7.133   8.469 -0.0889 -1.6559 -0.0219
  922SOL    HW2 7614   6.498   7.244   8.447 -0.2431 -1.0886  1.9427
  923SOL     OW 7615   3.925   6.074   3.849 -0.1404  0.9196  0.2892
  923SOL    HW1 7616   3.981   6.113   3.916  2.4324 -1.3972 -0.3430
  923SOL    HW2 7617   3.981   6.009   3.806 -2.9886 -0.6621 -1.2797
  924SOL     OW 7618   1.570   6.973   5.805  0.7451 -0.4631 -0.1729
  924SOL    HW1 7619   1.630   6.927   5.863  0.3033 -1.4379 -0.4671
  924SOL    HW2 7620   1.625   7.000   5.731  1.0509 -0.3486  0.0950
  925SOL     OW 7621   8.581   3.065   1.856  0.5599  0.1724 -0.1827
  925SOL    HW1 7622   8.608   3.152   1.828 -0.5398  0.9490  1.0099
  925SOL    HW2 7623   8.619   3.005   1.792  0.5945  1.5987 -1.5405
  926SOL     OW 7624   6.654   1.903   2.757 -0.0037 -0.1101  0.5243
  926SOL    HW1 7625   6.704   1.842   2.702  0.6362  1.0498 -0.2097
  926SOL    HW2 7626   6.569   1.909   2.713  0.1318 -0.0263  0.2695
  927SOL     OW 7627   6.126   6.017   0.628 -0.0694  0.2857 -0.2251
  927SOL    HW1 7628   6.042   6.062   0.620  0.0176  0.2831 -1.3952
  927SOL    HW2 7629   6.179   6.073   0.685 -1.6425 -0.9261  2.6618
  928SOL     OW 7630   2.672   4.052   6.422 -0.1397  0.0105  0.1813
  928SOL    HW1 7631   2.676   4.124   6.359  0.7814  0.4385  0.7081
  928SOL    HW2 7632   2.617   3.986   6.380 -0.2876  0.6632 -0.6757
  929SOL     OW 7633   4.027   6.325   0.929  0.6270  0.1778  0.5371
  929SOL    HW1 7634   3.944   6.328   0.976 -0.7732  4.1302 -1.6888
  929SOL    HW2 7635   4.007   6.281   0.846  0.7529  0.9965  0.0605
  930SOL     OW 7636   0.890   9.179   0.082  0.2717  0.2942  0.9206
  930SOL    HW1 7637   0.866   9.261   0.126  0.9851  1.3238 -0.5250
  930SOL    HW2 7638   0.816   9.121   0.098 -1.1271  1.8502  0.4215
  931SOL     OW 7639   8.155   7.746   0.475 -0.0671 -0.8136 -0.0892
  931SOL    HW1 7640   8.115   7.661   0.495  0.5571 -1.6197 -2.0522
  931SOL    HW2 7641   8.109   7.776   0.397 -0.2761  0.6996  0.5774
  932SOL     OW 7642   9.065   4.034   5.628 -0.2298  0.1946 -0.3209
  932SOL    HW1 7643   8.970   4.037   5.619 -0.1817  0.7700 -0.6513
  932SOL    HW2 7644   9.086   3.940   5.630 -0.7616  0.0667 -0.6300
  933SOL     OW 7645   4.401   3.167   7.331  0.5278 -0.2807 -0.8197
  933SOL    HW1 7646   4.324   3.223   7.327  0.4161 -0.3875 -0.3314
  933SOL    HW2 7647   4.469   3.222   7.371  0.4148 -0.4859 -0.3283
  934SOL     OW 7648   3.982   9.627   6.707  0.7179 -0.0693 -0.2928
  934SOL    HW1 7649   4.037   9.614   6.630 -0.5904 -1.1148 -1.0894
  934SOL    HW2 7650   3.897   9.653   6.672  0.4658  0.7683  0.8716
  935SOL     OW 7651   0.780   2.827   5.952 -0.3923 -0.4368  0.0875
  935SOL    HW1 7652   0.750   2.918   5.950  0.9077  0.0291  0.4502
  935SOL    HW2 7653   0.867   2.831   5.912 -0.5280 -1.6159 -0.3490
  936SOL     OW 7654   6.490   9.661   5.827 -0.7468 -0.0834 -0.5660
  936SOL    HW1 7655   6.464   9.701   5.910  1.1252  1.3308 -0.5799
  936SOL    HW2 7656   6.522   9.574   5.851 -1.8242 -0.3563 -0.0662
  937SOL     OW 7657   6.180   7.466   9.449 -0.2497  0.3178  0.0628
  937SOL    HW1 7658   6.218   7.439   9.533 -0.1535  0.8254  0.1820
  937SOL    HW2 7659   6.243   7.526   9.411  0.1426 -0.6207 -0.8128
  938SOL     OW 7660   6.794   1.901   0.239  0.0169 -0.2525 -0.5397
  938SOL    HW1 7661   6.839   1.817   0.247  2.5405  0.9380 -1.0569
  938SOL    HW2 7662   6.799   1.922   0.146 -2.7203 -0.5560 -0.8308
  939SOL     OW 7663   2.090   4.256   5.276  0.6375 -0.0128 -0.7990
  939SOL    HW1 7664   2.000   4.226   5.286  0.6055 -0.0663 -1.2127
  939SOL    HW2 7665   2.089   4.307   5.195  0.9509  0.1021 -0.7317
  940SOL     OW 7666   2.108   0.091   7.838 -0.0681 -0.2710 -0.2584
  940SOL    HW1 7667   2.060   0.077   7.756  0.0464 -0.5954 -0.2735
  940SOL    HW2 7668   2.187   0.037   7.828 -1.0010 -1.9223  0.8895
  941SOL     OW 7669   0.165   8.777   0.249  0.2349  0.0245  0.0769
  941SOL    HW1 7670   0.180   8.852   0.306 -0.3302  0.1070  0.1195
  941SOL    HW2 7671   0.226   8.789   0.176 -1.9527  2.2065 -1.5445
  942SOL     OW 7672   0.730   9.664   2.041  0.5955  0.2519 -0.1511
  942SOL    HW1 7673   0.781   9.712   1.976  0.0927  1.3603  0.2487
  942SOL    HW2 7674   0.729   9.574   2.009 -1.0982  1.0501 -2.6251
  943SOL     OW 7675   3.107   4.574   8.875  0.1816 -0.1194  0.6737
  943SOL    HW1 7676   3.019   4.539   8.883  0.5757 -0.8779  2.0052
  943SOL    HW2 7677   3.137   4.546   8.788 -0.7641 -0.1086  0.3402
  944SOL     OW 7678   1.334   0.026   6.430 -0.2385 -0.0374  0.3001
  944SOL    HW1 7679   1.363   0.074   6.353 -1.0159  1.0166  0.6381
  944SOL    HW2 7680   1.405   0.036   6.493 -0.5915  1.1135  0.5380
  945SOL     OW 7681   9.071   2.787   1.973  0.1105 -1.0685  0.1733
  945SOL    HW1 7682   9.103   2.817   1.888  0.5103 -1.4078  0.2006
  945SOL    HW2 7683   9.060   2.692   1.962  2.5769 -1.5507  1.2340
  946SOL     OW 7684   9.478   8.198   7.506  0.1354  0.0592 -0.5038
  946SOL    HW1 7685   9.478   8.287   7.543 -1.1002 -0.4499  0.8340
  946SOL    HW2 7686   9.562   8.162   7.532 -0.4676 -0.0843  1.4641
  947SOL     OW 7687   2.193   3.856   4.421 -0.2773  0.0559  0.2338
  947SOL    HW1 7688   2.197   3.867   4.516 -0.9485 -1.0916  0.4078
  947SOL    HW2 7689   2.265   3.796   4.401 -1.5904 -1.6364  0.3536
  948SOL     OW 7690   3.535   4.193   7.072  0.4384 -0.4275 -0.1898
  948SOL    HW1 7691   3.571   4.105   7.064 -0.9819 -1.0199 -0.4441
  948SOL    HW2 7692   3.611   4.251   7.072  1.3730 -1.6220 -0.5138
  949SOL     OW 7693   8.655   7.914   0.113  0.0821 -0.4486  0.0600
  949SOL    HW1 7694   8.662   7.851   0.185 -1.1388 -0.6201  0.0359
  949SOL    HW2 7695   8.739   7.961   0.114 -0.6907  1.0924  3.0183
  950SOL     OW 7696   9.672   1.858   2.108  0.0142 -0.8719 -0.0194
  950SOL    HW1 7697   9.763   1.872   2.082  0.6993 -2.2376  1.4725
  950SOL    HW2 7698   9.643   1.944   2.138  1.3297 -0.7333  0.9476
  951SOL     OW 7699   6.912   3.338   0.030  0.2874 -0.4375 -0.4318
  951SOL    HW1 7700   6.952   3.376  -0.049 -0.9080  1.2979 -0.2458
  951SOL    HW2 7701   6.846   3.277  -0.004  0.9248 -0.9832 -0.7357
  952SOL     OW 7702   0.953   8.582   5.463  0.6204  0.3901  0.0934
  952SOL    HW1 7703   0.932   8.493   5.435 -0.0261  0.2940  0.8472
  952SOL    HW2 7704   0.895   8.598   5.537 -0.4875  2.0505 -1.0669
  953SOL     OW 7705   6.297   9.452   7.730 -0.3693 -0.1598  0.4168
  953SOL    HW1 7706   6.260   9.380   7.680  0.7789  0.3522 -1.2456
  953SOL    HW2 7707   6.282   9.530   7.676 -0.8706  0.7538  1.8021
  954SOL     OW 7708   1.934   6.817   0.422 -0.1689 -0.3580 -0.1417
  954SOL    HW1 7709   1.863   6.875   0.450  1.6440  3.0600 -1.9661
  954SOL    HW2 7710   1.992   6.812   0.497 -1.4293 -1.8184  0.7972
  955SOL     OW 7711   9.633   9.146   8.542 -0.2972 -0.8775  0.1626
  955SOL    HW1 7712   9.659   9.197   8.466 -1.7245 -1.1269 -0.5095
  955SOL    HW2 7713   9.708   9.153   8.602 -0.5752  2.3516  0.2957
  956SOL     OW 7714   2.372   3.980   1.200  0.0965  0.6116  0.2339
  956SOL    HW1 7715   2.443   3.926   1.166 -0.9767 -1.4780  1.1556
  956SOL    HW2 7716   2.316   3.997   1.123  0.0634 -0.2367  0.0627
  957SOL     OW 7717   5.603   8.380   1.422  0.1858  0.1971 -0.0358
  957SOL    HW1 7718   5.632   8.335   1.501  0.1957 -1.3296 -0.8799
  957SOL    HW2 7719   5.683   8.399   1.373  0.0892 -0.0058 -0.2751
  958SOL     OW 7720   1.899   5.949   5.759 -0.5005 -0.0210 -0.1606
  958SOL    HW1 7721   1.956   5.970   5.833  0.9506 -1.2025 -0.9095
  958SOL    HW2 7722   1.865   5.862   5.778 -0.3266 -0.2228 -0.7559
  959SOL     OW 7723   4.906   0.974   4.567 -0.3276 -0.0451 -0.1038
  959SOL    HW1 7724   4.839   0.906   4.564 -0.8549  0.5071 -0.9780
  959SOL    HW2 7725   4.951   0.968   4.483  0.9718 -0.6307  0.5881
  960SOL     OW 7726   8.888   8.061   7.464  0.3147 -0.5685  0.2045
  960SOL    HW1 7727   8.831   8.007   7.519  1.3567 -2.5618 -0.5748
  960SOL    HW2 7728   8.949   7.999   7.425  1.7462  1.2434 -0.5584
  961SOL     OW 7729   9.661   7.789   6.780 -0.5115  0.1974 -0.2367
  961SOL    HW1 7730   9.706   7.721   6.831 -0.4896 -1.6514 -2.5604
  961SOL    HW2 7731   9.702   7.871   6.807  2.9002 -1.1835 -0.7721
  962SOL     OW 7732   8.145   6.728   1.584  0.1478 -0.3178  0.4087
  962SOL    HW1 7733   8.115   6.784   1.513 -0.6775  1.5545  2.1366
  962SOL    HW2 7734   8.128   6.639   1.554  0.3989  0.3797 -1.9544
  963SOL     OW 7735   8.737   8.964   3.486  0.0074  0.0558 -0.0489
  963SOL    HW1 7736   8.713   9.006   3.568  0.8618 -0.9706  0.7526
  963SOL    HW2 7737   8.786   9.031   3.439  0.2964  0.3653  0.6747
  964SOL     OW 7738   9.072   8.783   5.118  0.5723  0.3411 -0.0629
  964SOL    HW1 7739   9.166   8.766   5.121  0.5482  0.0544 -0.7047
  964SOL    HW2 7740   9.065   8.878   5.121  0.8732  0.3580  0.1502
  965SOL     OW 7741   0.114   7.627   4.053 -0.0296 -0.0047 -0.3081
  965SOL    HW1 7742   0.203   7.595   4.034  0.0516 -0.9374  1.3834
  965SOL    HW2 7743   0.128   7.699   4.115 -0.4405  0.1534 -0.4017
  966SOL     OW 7744   9.673   1.955   9.518 -0.0612  0.0607  0.2143
  966SOL    HW1 7745   9.679   1.868   9.477  0.6889  0.5595 -0.7692
  966SOL    HW2 7746   9.610   1.943   9.589  1.6199 -1.8373  1.5192
  967SOL     OW 7747   2.776   1.720   6.446 -0.1578  0.2536  0.0204
  967SOL    HW1 7748   2.731   1.764   6.518  0.1814 -1.1948  1.1864
  967SOL    HW2 7749   2.708   1.666   6.405 -0.0627  0.0676  0.1069
  968SOL     OW 7750   4.507   1.530   7.412 -0.2443 -1.0041 -0.3083
  968SOL    HW1 7751   4.597   1.496   7.417 -0.6453 -2.3705 -1.5232
  968SOL    HW2 7752   4.510   1.596   7.343  0.2923  0.6855  1.2688
  969SOL     OW 7753   3.906   5.642   8.003  0.1954 -0.0291 -0.1152
  969SOL    HW1 7754   3.908   5.698   7.925 -1.8036 -1.5465 -1.3472
  969SOL    HW2 7755   3.833   5.676   8.055  0.4787 -0.0580  0.3073
  970SOL     OW 7756   7.738   4.883   0.141 -0.0194 -0.0727 -0.0545
  970SOL    HW1 7757   7.786   4.921   0.067 -0.2838  0.6628  0.1422
  970SOL    HW2 7758   7.749   4.789   0.131  0.9228  0.0601 -0.3768
  971SOL     OW 7759   4.279   5.344   2.160 -0.1957  0.6032 -0.4213
  971SOL    HW1 7760   4.272   5.440   2.162  0.6277  0.6692 -0.6074
  971SOL    HW2 7761   4.268   5.321   2.068 -2.9821  0.2855 -0.1187
  972SOL     OW 7762   6.935   4.778   3.619  0.7977  0.0195  0.5963
  972SOL    HW1 7763   6.970   4.866   3.604  0.5526 -0.0114 -0.2174
  972SOL    HW2 7764   6.879   4.762   3.544  1.8521 -1.3456  0.0638
  973SOL     OW 7765   7.123   3.281   2.438  0.1367 -0.4094 -0.7174
  973SOL    HW1 7766   7.082   3.244   2.359 -0.7252  0.1058 -0.5184
  973SOL    HW2 7767   7.143   3.204   2.492 -1.0971 -0.6395 -0.5711
  974SOL     OW 7768   3.601   8.311   5.416 -0.2518  0.4107  0.3965
  974SOL    HW1 7769   3.540   8.270   5.479 -2.1989  1.7518 -0.5201
  974SOL    HW2 7770   3.637   8.237   5.367 -1.9119 -0.4118  0.3204
  975SOL     OW 7771   1.204   8.355   7.609  0.6073  0.2597 -0.1565
  975SOL    HW1 7772   1.136   8.374   7.544  0.2193 -0.9314 -0.1247
  975SOL    HW2 7773   1.232   8.441   7.640 -0.8782  0.7779 -0.1688
  976SOL     OW 7774   7.572   9.415   4.837  0.3188  0.1885  1.1428
  976SOL    HW1 7775   7.526   9.479   4.783 -0.4351 -2.1079 -1.1375
  976SOL    HW2 7776   7.664   9.428   4.818  0.0458 -1.0164 -1.4213
  977SOL     OW 7777   9.493   7.116   3.759 -0.0452  0.0598  0.0319
  977SOL    HW1 7778   9.582   7.149   3.742  0.9292 -1.9952  0.7750
  977SOL    HW2 7779   9.478   7.052   3.689 -0.3122 -0.6859  0.7572
  978SOL     OW 7780   5.166   5.793   9.282 -0.3027  0.6751  0.3725
  978SOL    HW1 7781   5.225   5.780   9.356 -1.1848 -1.8278  0.7402
  978SOL    HW2 7782   5.104   5.859   9.312 -0.9825 -0.6915  2.1409
  979SOL     OW 7783   9.221   5.979   3.654  0.2495  0.4477 -0.0125
  979SOL    HW1 7784   9.278   6.017   3.720 -0.8809  0.1593  1.1651
  979SOL    HW2 7785   9.246   6.023   3.572  1.8214  0.6415  0.5421
  980SOL     OW 7786   1.321   4.150   3.018 -0.5516  0.9449 -0.2223
  980SOL    HW1 7787   1.284   4.064   2.996 -0.4811  0.6396  0.7939
  980SOL    HW2 7788   1.413   4.132   3.035 -0.5394  1.2181 -0.0026
  981SOL     OW 7789   4.363   4.150   9.212  0.1272 -0.0370  0.4085
  981SOL    HW1 7790   4.315   4.097   9.147  0.5154  2.1775 -1.8292
  981SOL    HW2 7791   4.453   4.153   9.178  0.0847  2.1079  0.3574
  982SOL     OW 7792   2.798   1.641   9.025  0.7889  0.2374  0.1309
  982SOL    HW1 7793   2.725   1.580   9.034  0.2524  0.5164 -1.7907
  982SOL    HW2 7794   2.810   1.649   8.930  3.0208  0.5594  0.3910
  983SOL     OW 7795   0.519   9.314   8.817  0.5457  0.3094  0.6231
  983SOL    HW1 7796   0.609   9.286   8.833  0.7067  1.6878  2.5093
  983SOL    HW2 7797   0.466   9.259   8.875  0.1723 -0.2814 -0.2519
  984SOL     OW 7798   0.382   9.248   7.220  0.0857 -0.0750 -0.0768
  984SOL    HW1 7799   0.442   9.237   7.295  0.7403 -0.3318 -0.6249
  984SOL    HW2 7800   0.295   9.253   7.259  0.2362 -2.0111  0.5938
  985SOL     OW 7801   3.684   4.287   1.258  0.5240 -0.5094 -0.2562
  985SOL    HW1 7802   3.709   4.195   1.251  1.9362 -0.2256  0.7526
  985SOL    HW2 7803   3.761   4.331   1.294 -1.0660  0.5875  2.1151
  986SOL     OW 7804   4.125   1.284   6.606  0.2276 -0.3830  0.2041
  986SOL    HW1 7805   4.205   1.318   6.565  0.4717 -0.5659  0.5263
  986SOL    HW2 7806   4.091   1.221   6.542 -0.0822  0.2655 -0.2739
  987SOL     OW 7807   8.047   3.675   1.207  0.4975 -0.3241  0.5732
  987SOL    HW1 7808   7.972   3.617   1.197  1.7182 -1.8985  0.0723
  987SOL    HW2 7809   8.020   3.738   1.274 -1.1698 -0.9834  0.5665
  988SOL     OW 7810   7.562   3.734   5.106  0.3757  0.5502 -0.1513
  988SOL    HW1 7811   7.642   3.782   5.081  1.1054 -0.1330  0.7973
  988SOL    HW2 7812   7.577   3.645   5.074 -0.3474  0.5909 -0.6265
  989SOL     OW 7813   3.000   6.775   9.712 -0.2107 -0.0016  0.2713
  989SOL    HW1 7814   3.086   6.734   9.720  0.0958  0.6195  0.2428
  989SOL    HW2 7815   2.942   6.720   9.765  0.3730  0.0329  0.9669
  990SOL     OW 7816   6.755   4.174   3.633 -0.4985 -0.4091 -0.1247
  990SOL    HW1 7817   6.686   4.227   3.672 -0.8941 -1.1437  0.1793
  990SOL    HW2 7818   6.835   4.201   3.679 -0.1653  1.8896 -1.8046
  991SOL     OW 7819   0.699   2.843   7.651 -0.3824 -0.3256 -0.6249
  991SOL    HW1 7820   0.713   2.885   7.566  2.0139 -0.8294 -0.5258
  991SOL    HW2 7821   0.686   2.751   7.630 -2.1653 -0.1282 -0.5704
  992SOL     OW 7822   7.398   6.685   0.928 -0.2171  0.4648  0.2374
  992SOL    HW1 7823   7.415   6.598   0.965 -0.3931  0.4259  0.2286
  992SOL    HW2 7824   7.336   6.669   0.857  1.1082  0.3621 -0.9465
  993SOL     OW 7825   3.347   0.491   1.259 -0.0691  0.7640  0.3532
  993SOL    HW1 7826   3.401   0.571   1.254 -0.8227  1.2854  0.3742
  993SOL    HW2 7827   3.319   0.476   1.169  1.4156 -0.4487  0.0482
  994SOL     OW 7828   9.255   0.703   2.099 -0.3181  0.0518  0.2031
  994SOL    HW1 7829   9.349   0.707   2.079 -0.7613  1.2937 -2.0071
  994SOL    HW2 7830   9.224   0.626   2.050 -0.4573 -0.3884  0.9739
  995SOL     OW 7831   5.651   1.136   6.651  0.1732 -0.0525 -0.3469
  995SOL    HW1 7832   5.657   1.043   6.631  0.2513 -0.1859  0.2638
  995SOL    HW2 7833   5.686   1.143   6.740  0.8903  0.6667 -0.6730
  996SOL     OW 7834   8.092   8.088   4.595 -0.1588  1.0044 -0.3908
  996SOL    HW1 7835   8.168   8.091   4.536  0.0743  0.8690 -0.1026
  996SOL    HW2 7836   8.114   8.019   4.658 -1.3273 -0.3173 -1.3916
  997SOL     OW 7837   0.524   0.669   0.902  0.2611 -0.5783  0.6683
  997SOL    HW1 7838   0.578   0.747   0.914 -0.5584 -0.1429  1.6265
  997SOL    HW2 7839   0.434   0.701   0.905 -0.0967 -1.1848 -1.6908
  998SOL     OW 7840   5.686   0.931   0.676  0.2721 -0.7360  0.1420
  998SOL    HW1 7841   5.625   0.961   0.608  0.4133 -0.3057  0.2027
  998SOL    HW2 7842   5.695   0.837   0.660  1.4398 -0.4017 -1.3357
  999SOL     OW 7843   4.611   6.424   4.009  0.4962 -0.5265  0.2152
  999SOL    HW1 7844   4.648   6.397   3.925 -0.8540  0.8761 -0.8916
  999SOL    HW2 7845   4.660   6.503   4.031  0.6770 -0.7522  0.6302
 1000SOL     OW 7846   0.572   8.771   5.896 -0.3018 -0.9998 -0.2035
 1000SOL    HW1 7847   0.612   8.710   5.958  1.0205 -2.0413 -1.9813
 1000SOL    HW2 7848   0.487   8.733   5.877  0.4358 -2.2782 -1.1561
 1001SOL     OW 7849   4.980   5.861   7.387  0.7010 -0.0012 -0.1476
 1001SOL    HW1 7850   4.888   5.886   7.392  0.5277 -0.6334 -0.0733
 1001SOL    HW2 7851   5.017   5.918   7.319  0.3741  0.5921  0.1650
 1002SOL     OW 7852   1.036   6.779   7.867  0.7595 -0.3619 -0.0872
 1002SOL    HW1 7853   1.059   6.836   7.793 -1.3735  0.6805 -0.0164
 1002SOL    HW2 7854   1.105   6.795   7.931  1.3142  0.6122 -0.8857
 1003SOL     OW 7855   2.267   3.306   9.696  0.3250  0.1087 -0.6461
 1003SOL    HW1 7856   2.172   3.311   9.683 -0.3050 -0.3732  2.7469
 1003SOL    HW2 7857   2.294   3.397   9.706  0.0207  0.1867 -0.5004
 1004SOL     OW 7858   5.118   3.721   7.864  0.1988  0.0090 -0.0029
 1004SOL    HW1 7859   5.110   3.663   7.940  1.3065 -0.3304 -0.1237
 1004SOL    HW2 7860   5.029   3.735   7.834 -0.1721 -0.6541  0.7681
 1005SOL     OW 7861   4.429   8.671   6.786  0.0100 -0.2121  0.3801
 1005SOL    HW1 7862   4.518   8.635   6.788  0.5165  0.9588 -0.0782
 1005SOL    HW2 7863   4.429   8.729   6.710 -1.3147 -0.5672  0.0787
 1006SOL     OW 7864   4.537   7.723   7.647  0.4246  0.0299 -0.0150
 1006SOL    HW1 7865   4.559   7.806   7.690  1.1747  0.7618 -1.7372
 1006SOL    HW2 7866   4.619   7.674   7.648  0.1230 -0.4672  0.4956
 1007SOL     OW 7867   8.646   2.172   9.677  0.5020  0.5361  0.4184
 1007SOL    HW1 7868   8.623   2.134   9.592 -2.4144  1.8254  0.4884
 1007SOL    HW2 7869   8.705   2.244   9.656 -0.9031  1.4271 -0.6866
 1008SOL     OW 7870   7.327   3.363   3.777 -0.0404 -0.2528  0.1268
 1008SOL    HW1 7871   7.358   3.297   3.838  0.6214  1.1825  1.4111
 1008SOL    HW2 7872   7.257   3.319   3.728  0.2846 -1.8412  1.0129
 1009SOL     OW 7873   5.537   7.236   8.710  0.1374  0.0842 -0.4710
 1009SOL    HW1 7874   5.614   7.289   8.690  0.0642  1.1271  1.7559
 1009SOL    HW2 7875   5.474   7.258   8.641  0.1557  2.8674  0.2891
 1010SOL     OW 7876   1.946   0.328   3.474  0.4077  0.0664 -0.2471
 1010SOL    HW1 7877   2.041   0.343   3.480  0.2013  1.2252  0.3966
 1010SOL    HW2 7878   1.925   0.341   3.382  0.6813  1.1047 -0.1766
 1011SOL     OW 7879   6.473   7.523   2.558  0.3193 -0.3369  0.3201
 1011SOL    HW1 7880   6.402   7.504   2.620  0.9116  1.8906  1.8175
 1011SOL    HW2 7881   6.548   7.544   2.614  1.8383 -1.3671 -1.2213
 1012SOL     OW 7882   9.247   2.141   1.432 -0.5448  0.0882  0.2111
 1012SOL    HW1 7883   9.187   2.189   1.490  1.0548  2.1702  0.2449
 1012SOL    HW2 7884   9.288   2.208   1.379  1.8128 -1.2325  0.2299
 1013SOL     OW 7885   9.083   6.673   9.723 -0.3422 -0.0054 -0.6552
 1013SOL    HW1 7886   9.073   6.636   9.810 -0.8031 -2.0995 -1.5318
 1013SOL    HW2 7887   9.168   6.641   9.692  0.0273  1.0897 -0.8268
 1014SOL     OW 7888   7.231   9.136   3.814 -0.4417  0.2476  0.5542
 1014SOL    HW1 7889   7.292   9.208   3.798  0.2806 -0.6059 -0.7256
 1014SOL    HW2 7890   7.145   9.176   3.809 -0.0586  0.9967 -0.4322
 1015SOL     OW 7891   2.520   5.375   3.968 -0.0008 -0.2680  0.2153
 1015SOL    HW1 7892   2.523   5.317   4.044  0.3090 -0.5809 -0.0313
 1015SOL    HW2 7893   2.611   5.398   3.952  0.1520 -1.6455 -1.1488
 1016SOL     OW 7894   0.768   1.055   3.083 -0.3344 -0.6380 -0.3279
 1016SOL    HW1 7895   0.833   1.095   3.024 -1.7950  3.2494  0.4297
 1016SOL    HW2 7896   0.810   1.056   3.169 -0.2658 -1.0864 -0.3531
 1017SOL     OW 7897   2.927   1.634   1.086  0.4733 -0.3312 -0.2353
 1017SOL    HW1 7898   2.850   1.688   1.105 -0.8234 -2.0505 -0.2815
 1017SOL    HW2 7899   3.002   1.686   1.115 -0.7264  1.2953  0.0533
 1018SOL     OW 7900   5.178   5.020   2.998  0.2572 -0.6116  0.1432
 1018SOL    HW1 7901   5.190   4.978   2.912  1.3825  0.9021 -0.4825
 1018SOL    HW2 7902   5.091   5.059   2.994  0.2332 -0.7037 -0.2499
 1019SOL     OW 7903   3.952   9.017   9.029  0.4435 -0.3679 -0.6267
 1019SOL    HW1 7904   3.870   9.064   9.046  0.9251  0.2214  0.2087
 1019SOL    HW2 7905   3.973   9.038   8.938 -0.6846 -1.1049 -1.0746
 1020SOL     OW 7906   4.259   0.610   8.090  0.9581 -0.3155 -0.5948
 1020SOL    HW1 7907   4.324   0.646   8.149  1.0084 -0.8611 -0.3077
 1020SOL    HW2 7908   4.178   0.606   8.141  0.8740 -0.3028 -0.7247
 1021SOL     OW 7909   6.042   1.065   8.022 -0.2337 -0.2730 -0.1886
 1021SOL    HW1 7910   6.033   1.157   8.047 -0.5156 -0.2586 -0.3419
 1021SOL    HW2 7911   5.958   1.042   7.982 -0.4606 -0.8330  0.5790
 1022SOL     OW 7912   5.693   8.564   7.863 -0.0735 -0.1609  0.1105
 1022SOL    HW1 7913   5.724   8.648   7.830  1.9273 -0.9454 -0.1307
 1022SOL    HW2 7914   5.739   8.499   7.810 -0.9594 -1.4272  0.8421
 1023SOL     OW 7915   7.760   3.386   9.695 -0.3206  0.1164  0.0560
 1023SOL    HW1 7916   7.811   3.322   9.646  0.2239 -0.3759  1.2433
 1023SOL    HW2 7917   7.705   3.429   9.629 -0.4320 -1.3128 -0.8035
 1024SOL     OW 7918   5.841   1.493   2.292 -0.2368  0.2490 -0.3283
 1024SOL    HW1 7919   5.850   1.429   2.362 -0.1751  0.7866  0.1633
 1024SOL    HW2 7920   5.852   1.578   2.335  1.6437  0.5370 -1.2844
 1025SOL     OW 7921   8.300   9.742   3.171  0.2545  0.8779  0.1018
 1025SOL    HW1 7922   8.225   9.726   3.113  0.9712 -2.0609 -0.2083
 1025SOL    HW2 7923   8.363   9.790   3.117 -0.4290  1.1810 -0.4362
 1026SOL     OW 7924   6.355   1.471   1.312 -0.2713  0.0600  0.3566
 1026SOL    HW1 7925   6.394   1.553   1.283  0.7789 -0.3507  0.5658
 1026SOL    HW2 7926   6.370   1.469   1.407  1.8946 -1.4549  0.0567
 1027SOL     OW 7927   8.386   2.681   4.143 -0.8406  0.5230 -0.3681
 1027SOL    HW1 7928   8.347   2.703   4.228 -1.7250  1.5072 -1.0048
 1027SOL    HW2 7929   8.470   2.726   4.143 -0.3706 -0.3345  0.3929
 1028SOL     OW 7930   7.768   1.954   1.841  0.2810  0.0601  0.0437
 1028SOL    HW1 7931   7.858   1.967   1.810  0.9126 -1.2912  1.2306
 1028SOL    HW2 7932   7.757   2.021   1.909  0.8102 -0.5332  0.7213
 1029SOL     OW 7933   2.826   6.319   7.953  0.3513 -0.0108 -0.6595
 1029SOL    HW1 7934   2.919   6.299   7.969  0.1528  0.0506  0.7142
 1029SOL    HW2 7935   2.825   6.413   7.937  0.6072 -0.1313 -1.4162
 1030SOL     OW 7936   9.397   2.615   5.822  0.4529  0.3471  0.1943
 1030SOL    HW1 7937   9.468   2.641   5.880  0.3491  1.9791 -0.3434
 1030SOL    HW2 7938   9.419   2.526   5.794  1.0196 -0.0677  1.8971
 1031SOL     OW 7939   6.941   8.851   4.520  0.5393 -1.0772 -0.2010
 1031SOL    HW1 7940   6.952   8.937   4.561 -0.9445 -1.1344  0.3737
 1031SOL    HW2 7941   6.975   8.862   4.431  0.8129 -0.0328  0.0239
 1032SOL     OW 7942   4.802   7.520   7.042  0.2851  0.3391 -0.1775
 1032SOL    HW1 7943   4.848   7.488   7.119 -1.4731 -0.5381  0.5559
 1032SOL    HW2 7944   4.827   7.459   6.972 -0.0842 -0.3732  0.3055
 1033SOL     OW 7945   8.317   0.578   9.191 -0.1032  0.3326  0.2554
 1033SOL    HW1 7946   8.283   0.489   9.198  0.1653  0.2225  0.1569
 1033SOL    HW2 7947   8.370   0.578   9.111 -2.6379  1.4023 -1.5972
 1034SOL     OW 7948   9.279   5.952   1.112  0.2897 -0.2623  0.2043
 1034SOL    HW1 7949   9.256   5.969   1.203  2.0813  1.5431  0.3985
 1034SOL    HW2 7950   9.223   6.010   1.061  0.6812  0.2212  0.3146
 1035SOL     OW 7951   3.926   7.461   9.663  0.3481 -0.6498 -0.2489
 1035SOL    HW1 7952   3.989   7.487   9.731  1.5416 -1.3904 -1.0415
 1035SOL    HW2 7953   3.939   7.367   9.653 -1.6120 -1.0096  0.2553
 1036SOL     OW 7954   5.072   9.571   8.779  0.1622  0.5223  0.1934
 1036SOL    HW1 7955   5.121   9.572   8.697 -0.2284 -1.6090 -0.1353
 1036SOL    HW2 7956   4.980   9.570   8.752 -0.0430  1.8612  0.7449
 1037SOL     OW 7957   1.761   9.341   1.160  0.1618 -0.6210  0.0410
 1037SOL    HW1 7958   1.805   9.359   1.077  1.5789  1.3668  1.1535
 1037SOL    HW2 7959   1.683   9.397   1.158 -0.4338 -1.4416 -0.4010
 1038SOL     OW 7960   5.342   1.540   0.892  0.5563 -0.5424 -0.1597
 1038SOL    HW1 7961   5.286   1.464   0.880  0.2264 -0.7556  2.1886
 1038SOL    HW2 7962   5.420   1.521   0.840 -1.1999 -0.5210 -2.9995
 1039SOL     OW 7963   1.533   2.021   4.035 -0.3920  0.7693  0.9159
 1039SOL    HW1 7964   1.588   1.998   4.110 -1.7860  0.4084  1.8691
 1039SOL    HW2 7965   1.525   1.939   3.985  0.4668  0.9888  0.4058
 1040SOL     OW 7966   2.222   1.228   6.783 -0.3791 -0.1953  0.0046
 1040SOL    HW1 7967   2.186   1.150   6.824 -1.8278  0.8573  0.8043
 1040SOL    HW2 7968   2.187   1.228   6.695 -2.1669  0.6483  0.6744
 1041SOL     OW 7969   9.487   9.202   4.532  0.2078  0.6775 -0.6985
 1041SOL    HW1 7970   9.440   9.151   4.466  1.2006 -0.2989 -0.6783
 1041SOL    HW2 7971   9.528   9.137   4.589  0.7645  1.5024 -0.1289
 1042SOL     OW 7972   5.123   0.691   7.996 -0.1141 -0.1787  0.8612
 1042SOL    HW1 7973   5.160   0.663   7.912  0.1874  1.2421  0.5001
 1042SOL    HW2 7974   5.044   0.740   7.972 -0.6399 -0.6958  1.4780
 1043SOL     OW 7975   9.676   0.162   8.709  0.0957  0.6475 -0.0960
 1043SOL    HW1 7976   9.650   0.074   8.681  0.6158  0.0345  1.2279
 1043SOL    HW2 7977   9.594   0.210   8.718 -0.3390 -0.1946  0.6716
 1044SOL     OW 7978   5.203   2.553   6.228 -0.2580 -0.1718 -0.3892
 1044SOL    HW1 7979   5.221   2.471   6.181 -0.3600 -0.1315 -0.5005
 1044SOL    HW2 7980   5.141   2.528   6.297 -0.6732 -0.1034 -0.7290
 1045SOL     OW 7981   1.102   4.089   3.887 -0.3945  0.3242  0.0091
 1045SOL    HW1 7982   1.178   4.115   3.835 -0.8626 -0.4086 -1.0857
 1045SOL    HW2 7983   1.132   4.093   3.978  0.7583  0.6350 -0.3732
 1046SOL     OW 7984   1.901   4.806   4.465 -0.2012  0.4129 -0.1576
 1046SOL    HW1 7985   1.973   4.861   4.495  0.9330 -0.8326 -0.4758
 1046SOL    HW2 7986   1.822   4.859   4.479  0.6241  1.2610  1.5487
 1047SOL     OW 7987   6.859   3.986   8.651 -0.5331  0.1881  0.2281
 1047SOL    HW1 7988   6.787   4.042   8.624 -0.9642  0.3464  1.5999
 1047SOL    HW2 7989   6.816   3.907   8.685 -0.2374  1.0527  2.8409
 1048SOL     OW 7990   5.495   3.669   5.939  0.4178 -0.4211 -0.3696
 1048SOL    HW1 7991   5.565   3.624   5.891  0.5399  0.7713 -1.3558
 1048SOL    HW2 7992   5.479   3.749   5.889 -1.9338 -0.8393 -0.3939
 1049SOL     OW 7993   2.602   4.151   8.675  0.6660  0.2898  0.1421
 1049SOL    HW1 7994   2.627   4.136   8.583  0.1062  1.9191 -0.2948
 1049SOL    HW2 7995   2.662   4.219   8.705  1.0877 -0.4875  1.1329
 1050SOL     OW 7996   4.482   7.744   6.814 -0.3978  0.1513 -0.1063
 1050SOL    HW1 7997   4.396   7.702   6.811 -0.0651 -0.4936 -1.4934
 1050SOL    HW2 7998   4.491   7.788   6.729  0.7666 -0.0752 -0.1249
 1051SOL     OW 7999   5.853   2.806   7.862  0.1734 -0.0475 -0.3768
 1051SOL    HW1 8000   5.913   2.749   7.911 -1.4264  1.6307  4.1018
 1051SOL    HW2 8001   5.894   2.893   7.867 -0.3533  0.2804 -1.5741
 1052SOL     OW 8002   8.171   0.801   9.203 -0.5263  0.6753 -0.5093
 1052SOL    HW1 8003   8.181   0.852   9.123 -2.4226  0.6569 -0.8017
 1052SOL    HW2 8004   8.238   0.733   9.197  0.6040  1.8018 -1.1458
 1053SOL     OW 8005   5.662   5.713   7.168 -0.3265 -0.0996  0.2590
 1053SOL    HW1 8006   5.655   5.649   7.239 -0.4615 -0.5656 -0.1623
 1053SOL    HW2 8007   5.697   5.792   7.209 -1.9787  0.1940  1.1731
 1054SOL     OW 8008   3.579   5.958   9.284  0.0313  0.3917 -0.1007
 1054SOL    HW1 8009   3.485   5.942   9.279 -0.0379  0.9770 -0.8105
 1054SOL    HW2 8010   3.613   5.884   9.335 -0.8616  0.3984  0.5175
 1055SOL     OW 8011   3.549   3.050   6.080 -0.2030 -0.5755  0.6639
 1055SOL    HW1 8012   3.575   3.136   6.113  0.5444 -1.4930  2.6251
 1055SOL    HW2 8013   3.498   3.012   6.152 -0.4533 -1.8139 -0.1412
 1056SOL     OW 8014   2.907   4.948   7.976  0.0972  0.1510 -0.5650
 1056SOL    HW1 8015   2.875   5.017   8.034 -2.0009 -1.5751  0.5090
 1056SOL    HW2 8016   2.858   4.960   7.895  1.0135  0.9328 -1.0131
 1057SOL     OW 8017   5.638   4.311   0.219 -0.2707  0.3571  0.2799
 1057SOL    HW1 8018   5.575   4.353   0.161  1.1290 -1.0577 -2.4511
 1057SOL    HW2 8019   5.614   4.219   0.220  0.1899  0.2215  1.4010
 1058SOL     OW 8020   2.458   6.630   9.647  0.3001  0.1163  0.4076
 1058SOL    HW1 8021   2.517   6.680   9.590  1.6563 -1.8621 -0.0203
 1058SOL    HW2 8022   2.428   6.694   9.712 -0.5543  2.2300 -1.8796
 1059SOL     OW 8023   2.701   3.030   7.423  0.4763 -0.6637 -0.0502
 1059SOL    HW1 8024   2.677   3.095   7.357 -1.7537 -0.7210  0.6149
 1059SOL    HW2 8025   2.626   3.028   7.483  1.3692 -2.3832  1.0996
 1060SOL     OW 8026   2.706   1.395   1.971 -0.4810  0.2894  0.1771
 1060SOL    HW1 8027   2.706   1.299   1.975  1.3681  0.2576  0.1917
 1060SOL    HW2 8028   2.625   1.417   1.926 -0.5012 -1.3303 -0.6389
 1061SOL     OW 8029   5.148   4.406   5.755  0.4042 -0.2490  0.1613
 1061SOL    HW1 8030   5.213   4.447   5.811  0.5771  0.3472 -0.4766
 1061SOL    HW2 8031   5.067   4.453   5.774  0.6871  0.6950 -0.8719
 1062SOL     OW 8032   8.803   3.589   2.092  0.6520  0.0251 -0.5635
 1062SOL    HW1 8033   8.785   3.617   2.182  0.4575 -2.6542  0.3347
 1062SOL    HW2 8034   8.883   3.635   2.068  2.4432 -1.3460  2.1663
 1063SOL     OW 8035   6.523   8.099   1.035 -0.6912 -0.2094  0.2746
 1063SOL    HW1 8036   6.507   8.171   0.973 -0.3511 -0.5479 -0.2120
 1063SOL    HW2 8037   6.440   8.054   1.041 -1.2989  1.0007  1.6117
 1064SOL     OW 8038   6.407   2.780   1.402  0.4013 -0.6018 -0.3055
 1064SOL    HW1 8039   6.394   2.751   1.312  2.1927 -2.3953 -0.0562
 1064SOL    HW2 8040   6.367   2.711   1.456  0.1325  0.0047  0.2847
 1065SOL     OW 8041   6.403   0.184   0.020  0.0791  0.3454  0.0844
 1065SOL    HW1 8042   6.379   0.275   0.036  0.0371  0.1526  1.1612
 1065SOL    HW2 8043   6.326   0.146  -0.023  0.7435  1.2403 -2.0659
 1066SOL     OW 8044   6.751   1.455   9.446  0.0550  0.2090  0.0290
 1066SOL    HW1 8045   6.765   1.398   9.522  0.2618  0.1553 -0.0483
 1066SOL    HW2 8046   6.754   1.544   9.481 -0.6759  0.1727  0.2200
 1067SOL     OW 8047   3.682   2.593   9.047 -0.2092 -0.2848 -0.4865
 1067SOL    HW1 8048   3.684   2.664   8.983 -0.3088 -0.5402 -0.7757
 1067SOL    HW2 8049   3.596   2.599   9.087 -0.4442 -0.6151 -0.9374
 1068SOL     OW 8050   7.557   4.360   1.496 -0.4038  0.2453 -0.6274
 1068SOL    HW1 8051   7.595   4.383   1.581  0.3676 -0.5048 -0.7561
 1068SOL    HW2 8052   7.624   4.384   1.432 -0.3215 -0.6540 -0.8920
 1069SOL     OW 8053   8.538   5.602   7.857  0.6407 -0.0390 -0.4874
 1069SOL    HW1 8054   8.614   5.656   7.876 -0.3900  1.0845  0.5624
 1069SOL    HW2 8055   8.572   5.531   7.802  2.7275 -0.4248  1.1867
 1070SOL     OW 8056   1.018   5.992   1.354  0.2310  0.0103 -0.1703
 1070SOL    HW1 8057   0.949   5.927   1.341 -0.3321  0.8188 -1.4875
 1070SOL    HW2 8058   1.079   5.977   1.282  0.2638  0.7007 -0.2975
 1071SOL     OW 8059   0.193   4.857   6.102  0.3437  0.4632  0.0227
 1071SOL    HW1 8060   0.254   4.785   6.121  0.4380  0.6077  0.2670
 1071SOL    HW2 8061   0.229   4.899   6.024  0.3800  0.3505 -0.0221
 1072SOL     OW 8062   5.110   3.234   8.113 -0.2965 -0.1518  0.5082
 1072SOL    HW1 8063   5.036   3.288   8.087 -1.2454 -1.1363  1.1009
 1072SOL    HW2 8064   5.173   3.296   8.149 -1.7146  0.5049  1.9930
 1073SOL     OW 8065   9.106   0.028   4.265  0.6118  0.5109  0.5879
 1073SOL    HW1 8066   9.150  -0.012   4.340 -0.9512 -1.3477  0.6103
 1073SOL    HW2 8067   9.042   0.088   4.304  1.6411  1.6321  0.6127
 1074SOL     OW 8068   5.287   4.854   2.493  0.0059 -0.0157  0.2277
 1074SOL    HW1 8069   5.369   4.806   2.485 -0.8705 -1.3324 -1.2218
 1074SOL    HW2 8070   5.240   4.836   2.412 -1.8056  0.5803  1.0961
 1075SOL     OW 8071   2.692   5.745   3.376  0.5328 -0.8435  0.0198
 1075SOL    HW1 8072   2.598   5.724   3.373  0.2081  0.6031 -0.4783
 1075SOL    HW2 8073   2.696   5.832   3.416  1.6127 -0.5854 -0.6144
 1076SOL     OW 8074   0.990   4.712   5.891  0.6340 -0.0787  0.5404
 1076SOL    HW1 8075   1.011   4.782   5.952  0.0303 -0.5657  1.3368
 1076SOL    HW2 8076   1.023   4.633   5.932 -2.2769 -0.8343  1.7032
 1077SOL     OW 8077   4.235   3.609   8.627  0.4019  0.1588 -0.3053
 1077SOL    HW1 8078   4.266   3.638   8.541  0.4113  1.1567  0.0232
 1077SOL    HW2 8079   4.191   3.685   8.664  1.7020  0.2450  1.1974
 1078SOL     OW 8080   7.935   5.387   0.783  0.1622  0.4345  0.1126
 1078SOL    HW1 8081   8.014   5.334   0.783  1.8038  2.6071 -2.1493
 1078SOL    HW2 8082   7.942   5.443   0.860 -1.2905 -2.0238  2.1746
 1079SOL     OW 8083   9.676   5.378   7.963  0.0529  0.1125 -0.2629
 1079SOL    HW1 8084   9.666   5.461   7.915  0.1042 -0.1656 -0.7654
 1079SOL    HW2 8085   9.639   5.396   8.049 -0.6459  0.4383 -0.6182
 1080SOL     OW 8086   6.332   1.911   4.159  0.2709 -0.4142  0.2602
 1080SOL    HW1 8087   6.261   1.862   4.200 -0.2258 -0.7917 -1.0046
 1080SOL    HW2 8088   6.319   1.899   4.065  0.0005  2.3034 -0.1462
 1081SOL     OW 8089   6.083   8.506   3.500 -0.0413 -0.6940  0.7957
 1081SOL    HW1 8090   6.081   8.460   3.584  0.3184 -0.9581  0.6625
 1081SOL    HW2 8091   6.123   8.443   3.439  1.5191  0.1839  0.8486
 1082SOL     OW 8092   0.005   3.622   6.625 -0.3493 -0.3324  0.6718
 1082SOL    HW1 8093   0.088   3.588   6.658 -0.3949  0.4620  1.6649
 1082SOL    HW2 8094  -0.044   3.645   6.704  0.2524  3.3758  0.1361
 1083SOL     OW 8095   3.800   5.047   3.615  0.0863  0.1009  0.2663
 1083SOL    HW1 8096   3.893   5.032   3.628 -0.2288 -1.3897  1.0015
 1083SOL    HW2 8097   3.793   5.079   3.525  1.1189 -1.9885 -0.6245
 1084SOL     OW 8098   3.040   7.386   6.483 -0.6934 -0.2379  0.1695
 1084SOL    HW1 8099   3.035   7.358   6.575 -0.8237  0.1992  0.2949
 1084SOL    HW2 8100   2.952   7.416   6.462 -0.7884 -0.7871 -0.2471
 1085SOL     OW 8101   9.500   0.834   5.460  0.4295 -0.3362  0.0318
 1085SOL    HW1 8102   9.526   0.858   5.370  1.3354  0.1308  0.4023
 1085SOL    HW2 8103   9.548   0.896   5.515 -0.9949  0.1094  0.7904
 1086SOL     OW 8104   6.768   6.637   5.311  0.1174 -0.3114  0.3017
 1086SOL    HW1 8105   6.762   6.542   5.299 -2.3041 -0.2166  0.3749
 1086SOL    HW2 8106   6.689   6.661   5.360 -0.9790  2.1261 -2.3620
 1087SOL     OW 8107   4.311   7.819   8.953 -0.1246 -0.6963 -0.5863
 1087SOL    HW1 8108   4.246   7.861   9.010  0.0504 -0.4691 -0.5527
 1087SOL    HW2 8109   4.351   7.751   9.008 -1.4093 -1.9078 -1.0636
 1088SOL     OW 8110   9.702   5.996   3.779  0.1097 -0.1210  0.2142
 1088SOL    HW1 8111   9.657   5.988   3.695 -0.3971  1.7813  0.2383
 1088SOL    HW2 8112   9.772   5.931   3.776 -1.5101 -1.9056 -0.5705
 1089SOL     OW 8113   5.466   4.926   3.387 -0.0177 -0.0146 -0.1566
 1089SOL    HW1 8114   5.411   4.902   3.312  0.2284  2.3223 -1.1533
 1089SOL    HW2 8115   5.408   4.979   3.442  0.3340 -0.2213  0.4144
 1090SOL     OW 8116   7.508   4.023   0.418  0.1332  0.1734  0.2905
 1090SOL    HW1 8117   7.586   4.055   0.372  1.0979  0.9255  2.3157
 1090SOL    HW2 8118   7.437   4.078   0.386  0.8500  0.9457 -0.0109
 1091SOL     OW 8119   3.879   8.273   6.317  0.1597 -0.1843  0.0107
 1091SOL    HW1 8120   3.800   8.220   6.301 -0.4647  0.7302 -0.0079
 1091SOL    HW2 8121   3.849   8.345   6.372  0.8468  0.5316 -0.5208
 1092SOL     OW 8122   2.065   7.733   5.266  0.1319 -0.0422  0.1152
 1092SOL    HW1 8123   2.108   7.811   5.302  1.5283 -0.6056 -0.2461
 1092SOL    HW2 8124   1.975   7.738   5.297  0.5148  1.0845  1.1072
 1093SOL     OW 8125   0.337   5.684   0.451 -0.0467 -0.1449  0.1309
 1093SOL    HW1 8126   0.420   5.692   0.498 -0.5555  0.3820  0.9659
 1093SOL    HW2 8127   0.361   5.682   0.359  1.0317 -1.8715  0.4091
 1094SOL     OW 8128   1.851   0.518   1.643  0.0662  0.2075  0.1010
 1094SOL    HW1 8129   1.915   0.582   1.673  2.0620 -1.0601 -1.2100
 1094SOL    HW2 8130   1.818   0.477   1.724 -0.6119  2.2092  0.8972
 1095SOL     OW 8131   3.347   9.161   1.453  0.6676  0.4860 -0.1512
 1095SOL    HW1 8132   3.384   9.094   1.510 -0.2689  0.6122  0.6309
 1095SOL    HW2 8133   3.421   9.216   1.429  0.6274  2.8893  4.2628
 1096SOL     OW 8134   0.276   4.060   9.638 -0.5889  0.3758 -0.1955
 1096SOL    HW1 8135   0.258   3.993   9.572  2.1786  1.0196 -1.7771
 1096SOL    HW2 8136   0.201   4.057   9.697 -1.1720 -3.2040 -0.9211
 1097SOL     OW 8137   6.283   2.328   3.371 -0.1446 -0.0942  0.5211
 1097SOL    HW1 8138   6.336   2.408   3.363  0.3876 -0.4344  0.6177
 1097SOL    HW2 8139   6.209   2.342   3.312 -0.1959  0.5868  0.7402
 1098SOL     OW 8140   6.032   5.745   9.595 -0.4156  0.6434  0.2145
 1098SOL    HW1 8141   6.100   5.811   9.611  1.4002 -0.6748 -1.5840
 1098SOL    HW2 8142   6.018   5.749   9.500 -0.6396 -1.2030  0.1506
 1099SOL     OW 8143   4.887   4.860   9.429  0.4979  0.3797 -0.1134
 1099SOL    HW1 8144   4.802   4.818   9.443 -0.2366  2.0592  0.7632
 1099SOL    HW2 8145   4.946   4.789   9.403 -0.5607 -1.2316  1.7265
 1100SOL     OW 8146   9.010   4.021   2.677 -0.2026  0.6316  0.5265
 1100SOL    HW1 8147   9.014   4.021   2.581  0.4428  0.1827  0.5503
 1100SOL    HW2 8148   8.947   4.091   2.698  0.9171  1.8911 -0.1667
 1101SOL     OW 8149   5.128   7.039   5.411  0.5711 -0.4854 -0.2617
 1101SOL    HW1 8150   5.188   7.007   5.344  1.6070  2.4757 -0.9273
 1101SOL    HW2 8151   5.150   6.990   5.490  1.0141 -2.3264 -1.4822
 1102SOL     OW 8152   9.251   2.285   4.558  0.1054 -0.1525 -0.5050
 1102SOL    HW1 8153   9.332   2.313   4.516  1.1904 -2.6657 -0.2547
 1102SOL    HW2 8154   9.213   2.366   4.593  2.9874  1.0167  0.2136
 1103SOL     OW 8155   1.901   1.865   4.792  0.1025 -0.6460 -0.0039
 1103SOL    HW1 8156   1.806   1.869   4.793  0.0842 -1.0531  0.0299
 1103SOL    HW2 8157   1.925   1.832   4.878  0.1860 -2.2420 -0.6169
 1104SOL     OW 8158   5.419   0.226   4.905 -0.9697  0.0648 -0.0943
 1104SOL    HW1 8159   5.430   0.292   4.974 -0.1424 -0.7735  0.5947
 1104SOL    HW2 8160   5.366   0.157   4.945 -1.2605 -0.0128 -0.5985
 1105SOL     OW 8161   5.276   3.299   6.678 -0.1560 -0.0072  0.6687
 1105SOL    HW1 8162   5.322   3.332   6.755  0.0005 -1.3671  1.1783
 1105SOL    HW2 8163   5.186   3.288   6.706  0.0165 -1.0386  0.8307
 1106SOL     OW 8164   7.707   8.218   3.943 -0.0331  0.5320  0.2008
 1106SOL    HW1 8165   7.640   8.287   3.943 -0.1215  0.4604 -0.6558
 1106SOL    HW2 8166   7.770   8.246   3.876  0.6304  0.4394  0.7770
 1107SOL     OW 8167   0.099   4.586   3.876  0.0416 -0.3648  0.3865
 1107SOL    HW1 8168   0.123   4.673   3.909  1.7978 -1.1585  1.3653
 1107SOL    HW2 8169   0.071   4.537   3.954  1.6210 -1.4366  0.3409
 1108SOL     OW 8170   8.866   6.817   3.842  0.7638  0.7070  0.8524
 1108SOL    HW1 8171   8.823   6.848   3.763  0.9295  3.1413  1.6094
 1108SOL    HW2 8172   8.925   6.889   3.867  1.1029 -0.1862  2.8674
 1109SOL     OW 8173   3.648   0.038   3.946  0.3330  0.2056  0.0370
 1109SOL    HW1 8174   3.693   0.002   3.870 -1.5541  0.2961 -1.1907
 1109SOL    HW2 8175   3.557   0.007   3.937 -0.2845  1.4830  1.4211
 1110SOL     OW 8176   7.758   8.908   0.843  0.5209 -0.2063 -0.2506
 1110SOL    HW1 8177   7.678   8.939   0.800  1.6532  2.6227 -0.4955
 1110SOL    HW2 8178   7.795   8.844   0.782 -0.0380  0.6730 -1.5589
 1111SOL     OW 8179   4.244   2.803   4.347 -0.3429  0.4000 -0.2176
 1111SOL    HW1 8180   4.242   2.715   4.384 -1.6162  1.6494  3.0377
 1111SOL    HW2 8181   4.155   2.837   4.359  0.3961  2.5242 -0.2182
 1112SOL     OW 8182   8.534   8.803   5.805  0.3856 -0.6696  0.0006
 1112SOL    HW1 8183   8.495   8.861   5.740 -2.6353 -1.4330  0.9702
 1112SOL    HW2 8184   8.529   8.716   5.766  1.2868 -0.7930  0.1277
 1113SOL     OW 8185   5.563   6.103   2.456  0.0621 -0.3139 -0.0884
 1113SOL    HW1 8186   5.477   6.096   2.498  0.2216 -1.6527  0.0591
 1113SOL    HW2 8187   5.543   6.120   2.364 -0.3580 -0.1652  0.0288
 1114SOL     OW 8188   2.726   7.710   1.865  0.0652  0.4266 -0.2521
 1114SOL    HW1 8189   2.739   7.804   1.850  1.0508  0.7390  2.0917
 1114SOL    HW2 8190   2.798   7.668   1.817 -0.1817  0.8843 -1.0381
 1115SOL     OW 8191   0.578   2.026   1.603  0.9569  0.3731 -0.4097
 1115SOL    HW1 8192   0.624   2.032   1.686  0.4234  0.9166 -0.1483
 1115SOL    HW2 8193   0.515   1.955   1.616  0.2140  1.0841 -0.0102
 1116SOL     OW 8194   0.843   2.777   0.202 -0.5191  0.3791  0.1355
 1116SOL    HW1 8195   0.807   2.833   0.133  0.6387  0.5153 -0.3846
 1116SOL    HW2 8196   0.934   2.806   0.211 -0.2156 -0.6880  0.6293
 1117SOL     OW 8197   7.964   4.598   0.163  0.2522 -0.2780  0.2717
 1117SOL    HW1 8198   7.960   4.652   0.242 -2.1883  1.3126 -0.8295
 1117SOL    HW2 8199   8.028   4.643   0.107 -0.2356  0.3194  0.1805
 1118SOL     OW 8200   5.390   2.476   7.678 -0.3538  0.0665 -0.6325
 1118SOL    HW1 8201   5.396   2.493   7.584 -1.1047  0.4478 -0.6216
 1118SOL    HW2 8202   5.307   2.429   7.688 -0.2057 -0.1033 -0.1743
 1119SOL     OW 8203   3.532   6.977   4.697  0.0147  0.1522  0.0410
 1119SOL    HW1 8204   3.552   6.894   4.654 -1.3857  0.0987 -0.5411
 1119SOL    HW2 8205   3.587   6.977   4.776 -0.2164 -1.4800  0.2255
 1120SOL     OW 8206   1.505   2.909   4.149 -0.4586  0.2100  0.1813
 1120SOL    HW1 8207   1.531   2.896   4.057 -2.3335  0.3954 -0.4164
 1120SOL    HW2 8208   1.571   2.968   4.184 -1.1531  2.3650 -1.8460
 1121SOL     OW 8209   5.013   1.099   1.647  0.6330  0.4723  0.2029
 1121SOL    HW1 8210   5.095   1.122   1.691  1.7199  0.0768 -1.5165
 1121SOL    HW2 8211   5.015   1.148   1.564 -0.6803  0.1419 -0.0587
 1122SOL     OW 8212   7.457   4.315   9.388 -0.0559 -0.0187 -0.4426
 1122SOL    HW1 8213   7.541   4.360   9.390 -0.6872  1.1820 -0.2906
 1122SOL    HW2 8214   7.408   4.358   9.318 -2.2182  2.4668  2.3737
 1123SOL     OW 8215   0.045   5.952   9.709  1.3990  0.3212  0.2949
 1123SOL    HW1 8216   0.096   5.875   9.685  1.3387 -0.0549  1.3384
 1123SOL    HW2 8217  -0.008   5.923   9.784  1.3493  1.3680  0.6712
 1124SOL     OW 8218   4.202   7.956   1.820  0.5952 -0.2987 -0.0752
 1124SOL    HW1 8219   4.147   7.902   1.876  0.1453 -0.4315 -0.6335
 1124SOL    HW2 8220   4.272   7.988   1.878  0.1151 -0.3880  0.5653
 1125SOL     OW 8221   6.638   3.121   9.064  0.4709  0.5445 -0.6538
 1125SOL    HW1 8222   6.668   3.033   9.087  0.6815  1.2493  2.1506
 1125SOL    HW2 8223   6.638   3.168   9.147 -0.5396  2.9438 -1.9308
 1126SOL     OW 8224   1.203   0.819   0.432  0.2911 -0.1003 -0.5081
 1126SOL    HW1 8225   1.140   0.891   0.429  0.7089  0.2660 -0.8863
 1126SOL    HW2 8226   1.175   0.764   0.505 -0.9158 -0.3761 -1.1537
 1127SOL     OW 8227   9.519   3.799   5.336  0.0336  0.6543 -0.9510
 1127SOL    HW1 8228   9.613   3.821   5.340  0.2147 -0.2121  0.4344
 1127SOL    HW2 8229   9.484   3.831   5.419 -0.2560 -1.6490 -0.1123
 1128SOL     OW 8230   7.664   5.544   1.316  0.2042  0.2339  0.1453
 1128SOL    HW1 8231   7.637   5.527   1.406  1.2683 -2.3915  0.0599
 1128SOL    HW2 8232   7.588   5.585   1.275 -1.5004 -1.4981  1.4134
 1129SOL     OW 8233   9.453   8.034   4.917 -0.7304 -0.1804 -0.3939
 1129SOL    HW1 8234   9.531   8.009   4.967  0.4036 -0.3804 -2.1729
 1129SOL    HW2 8235   9.409   7.950   4.900 -1.6363 -0.0241  1.0101
 1130SOL     OW 8236   8.002   6.236   1.930  0.6151 -0.2271  0.7058
 1130SOL    HW1 8237   7.969   6.173   1.867 -0.0267 -0.4907  1.2891
 1130SOL    HW2 8238   7.997   6.191   2.015 -0.9060  0.9630  1.2878
 1131SOL     OW 8239   4.085   1.200   1.944 -0.7630 -0.0602  0.2375
 1131SOL    HW1 8240   4.025   1.264   1.982 -0.4816 -0.3929  1.2722
 1131SOL    HW2 8241   4.140   1.250   1.885 -0.2932  0.7360  1.3193
 1132SOL     OW 8242   8.641   9.301   0.435  0.5883  0.7838 -0.4991
 1132SOL    HW1 8243   8.659   9.209   0.414  0.1867  0.1793  1.5596
 1132SOL    HW2 8244   8.546   9.308   0.430  0.5946  0.9957 -0.2948
 1133SOL     OW 8245   6.497   8.816   7.649 -0.1271 -0.5118 -0.0583
 1133SOL    HW1 8246   6.592   8.828   7.645  0.0230 -0.8831  1.7755
 1133SOL    HW2 8247   6.462   8.890   7.599  1.0914  0.9829  1.1936
 1134SOL     OW 8248   9.178   3.032   5.085 -0.1630 -0.5420  0.9888
 1134SOL    HW1 8249   9.161   3.078   5.167 -0.9724  0.7027  0.1553
 1134SOL    HW2 8250   9.269   3.055   5.063 -1.2715  2.8204 -0.6602
 1135SOL     OW 8251   2.619   6.544   8.109  0.0022 -0.5013  0.5203
 1135SOL    HW1 8252   2.571   6.613   8.155  0.8587  0.3356  0.1943
 1135SOL    HW2 8253   2.670   6.591   8.043 -1.5106 -1.6778 -1.6269
 1136SOL     OW 8254   2.466   0.147   1.575 -0.8375 -0.4133  0.3826
 1136SOL    HW1 8255   2.386   0.123   1.622 -0.7848  0.8462  1.1708
 1136SOL    HW2 8256   2.460   0.099   1.492 -0.8774 -2.7826  1.6637
 1137SOL     OW 8257   2.137   6.850   6.568 -0.4777 -0.1868  0.7130
 1137SOL    HW1 8258   2.069   6.851   6.500  0.5760 -0.3158 -0.3879
 1137SOL    HW2 8259   2.092   6.821   6.647 -1.1900 -3.1474 -0.6148
 1138SOL     OW 8260   2.828   1.208   2.549  0.0918  0.3679  0.5215
 1138SOL    HW1 8261   2.799   1.147   2.617 -0.0495 -0.8716 -0.6269
 1138SOL    HW2 8262   2.791   1.175   2.468  0.1959  1.8720 -0.1801
 1139SOL     OW 8263   6.081   6.164   7.338  0.3425  0.3799  0.3164
 1139SOL    HW1 8264   6.122   6.077   7.333 -1.8846 -0.6699 -1.0488
 1139SOL    HW2 8265   6.042   6.178   7.252 -4.5600 -0.0535  2.1289
 1140SOL     OW 8266   2.053   1.930   7.320 -0.1509  0.2215  0.3227
 1140SOL    HW1 8267   2.023   1.895   7.236 -1.1575  1.0546  0.3153
 1140SOL    HW2 8268   2.146   1.948   7.306  0.4454 -2.4475  0.3598
 1141SOL     OW 8269   4.280   7.584   0.047  0.1879 -0.1856 -0.6411
 1141SOL    HW1 8270   4.238   7.652   0.099 -0.5284 -0.6791 -0.5633
 1141SOL    HW2 8271   4.350   7.630   0.000  0.0733  0.4915 -0.1647
 1142SOL     OW 8272   0.952   0.596   0.827  0.2505  0.0209  0.5069
 1142SOL    HW1 8273   0.865   0.616   0.791  0.3228 -1.1692 -0.3757
 1142SOL    HW2 8274   0.997   0.680   0.828 -0.9317  0.6839  1.0707
 1143SOL     OW 8275   3.305   8.713   1.061 -0.0850 -0.1020 -0.1475
 1143SOL    HW1 8276   3.221   8.752   1.035  0.3658  0.3014 -1.0220
 1143SOL    HW2 8277   3.361   8.788   1.081 -0.2256 -0.3864  1.4443
 1144SOL     OW 8278   2.834   7.405   3.968  0.2743 -0.3268  0.3499
 1144SOL    HW1 8279   2.924   7.436   3.978  0.2876 -0.4755  0.7192
 1144SOL    HW2 8280   2.826   7.333   4.031 -0.2652  0.0312  0.7007
 1145SOL     OW 8281   2.340   3.737   9.697 -0.9266  0.2064 -0.0710
 1145SOL    HW1 8282   2.348   3.801   9.767 -1.0297  1.0697 -0.8358
 1145SOL    HW2 8283   2.362   3.653   9.738  0.0526  0.8479  0.7288
 1146SOL     OW 8284   7.347   1.522   3.742 -0.2362  0.5707 -0.3396
 1146SOL    HW1 8285   7.343   1.528   3.647 -2.1595 -0.9868 -0.4142
 1146SOL    HW2 8286   7.316   1.607   3.773  1.6293  1.5632 -1.0464
 1147SOL     OW 8287   8.982   4.370   1.081 -0.2458 -0.1883 -0.2181
 1147SOL    HW1 8288   8.959   4.300   1.019 -2.1417 -0.7797  1.0516
 1147SOL    HW2 8289   8.901   4.387   1.129  0.4753  2.1199  0.3022
 1148SOL     OW 8290   0.255   8.118   9.207 -0.1871  0.0217 -0.1894
 1148SOL    HW1 8291   0.263   8.045   9.269 -1.3979 -0.8459 -1.0037
 1148SOL    HW2 8292   0.161   8.123   9.188 -0.0378  1.3648 -0.6825
 1149SOL     OW 8293   9.556   9.044   7.339  0.1885 -0.0141  0.4967
 1149SOL    HW1 8294   9.593   9.132   7.347  0.7001 -0.3827  3.1440
 1149SOL    HW2 8295   9.468   9.052   7.375  0.5124 -0.7209  1.4758
 1150SOL     OW 8296   0.018   4.431   0.960 -0.1414  0.1875 -0.6873
 1150SOL    HW1 8297   0.040   4.477   0.879 -0.6746  0.7369 -0.5309
 1150SOL    HW2 8298  -0.012   4.345   0.931 -0.4364  0.4185 -1.0892
 1151SOL     OW 8299   4.353   7.299   6.473 -0.2538 -0.5981  0.2221
 1151SOL    HW1 8300   4.271   7.253   6.490 -0.4861 -0.1403  0.3438
 1151SOL    HW2 8301   4.408   7.234   6.428 -0.7939 -0.7984 -0.1515
 1152SOL     OW 8302   8.277   2.889   9.147  0.2694  0.2146  0.2859
 1152SOL    HW1 8303   8.361   2.935   9.144  0.6646 -0.1907  2.6565
 1152SOL    HW2 8304   8.229   2.933   9.218 -1.2514 -0.0386 -0.5348
 1153SOL     OW 8305   6.207   2.275   8.469  0.0702 -0.4754  0.0502
 1153SOL    HW1 8306   6.256   2.231   8.539 -0.0590 -0.6565  0.0280
 1153SOL    HW2 8307   6.273   2.326   8.423  0.4623 -1.5753 -0.6645
 1154SOL     OW 8308   4.545   8.558   4.684 -0.3511 -0.1182 -0.5791
 1154SOL    HW1 8309   4.520   8.513   4.765  0.5031 -1.6509 -1.1261
 1154SOL    HW2 8310   4.496   8.640   4.686 -0.8584 -0.4229  1.1611
 1155SOL     OW 8311   6.682   3.831   6.133 -0.2773  0.2233  0.2753
 1155SOL    HW1 8312   6.685   3.874   6.218 -0.1689  1.1164 -0.1716
 1155SOL    HW2 8313   6.727   3.747   6.147 -0.1434  0.4208  1.0580
 1156SOL     OW 8314   1.469   1.815   5.912 -0.6327  0.5772 -0.4856
 1156SOL    HW1 8315   1.469   1.845   5.821  0.3129  1.5992 -0.1803
 1156SOL    HW2 8316   1.498   1.724   5.907  0.3579  0.9121 -1.1351
 1157SOL     OW 8317   8.496   2.982   0.296 -0.7964  0.9113 -0.6860
 1157SOL    HW1 8318   8.453   2.901   0.266 -0.2849  0.6084 -0.6052
 1157SOL    HW2 8319   8.554   3.006   0.225  1.3082 -0.4536  0.4661
 1158SOL     OW 8320   1.534   7.251   7.159 -0.0819 -0.0577  0.7832
 1158SOL    HW1 8321   1.556   7.246   7.066 -2.7423  1.4681 -0.0194
 1158SOL    HW2 8322   1.615   7.277   7.202  1.0286 -0.1188 -1.1799
 1159SOL     OW 8323   7.622   7.616   4.461  0.1734  0.6755  0.1623
 1159SOL    HW1 8324   7.700   7.561   4.453  0.1798  0.7373 -0.1835
 1159SOL    HW2 8325   7.580   7.586   4.542  0.0030 -0.0554 -0.1880
 1160SOL     OW 8326   6.712   2.796   4.374 -0.5666  0.2552 -0.0163
 1160SOL    HW1 8327   6.687   2.813   4.465 -3.2410 -0.1187 -0.5697
 1160SOL    HW2 8328   6.712   2.882   4.333 -1.9328  0.1957 -0.1848
 1161SOL     OW 8329   3.623   5.711   2.434  1.0749  0.0794 -0.4777
 1161SOL    HW1 8330   3.572   5.669   2.503  1.9343  1.5668  1.1414
 1161SOL    HW2 8331   3.694   5.649   2.416  0.3630 -0.7001 -0.6456
 1162SOL     OW 8332   4.886   8.671   4.030  0.1042  0.0389 -0.4188
 1162SOL    HW1 8333   4.833   8.745   4.059  0.2822 -0.2337  0.6595
 1162SOL    HW2 8334   4.843   8.594   4.067  0.2279 -0.3495 -1.0700
 1163SOL     OW 8335   4.850   9.063   7.603  0.0556  0.8063  0.7807
 1163SOL    HW1 8336   4.939   9.030   7.604 -0.0729  0.4707  1.6356
 1163SOL    HW2 8337   4.820   9.049   7.513  0.5902  0.1812  0.6945
 1164SOL     OW 8338   1.869   1.055   7.927  0.0331 -0.1289 -0.1458
 1164SOL    HW1 8339   1.826   1.111   7.991  0.1458 -0.5167  0.2721
 1164SOL    HW2 8340   1.815   0.976   7.923 -0.6505  0.3666 -1.4173
 1165SOL     OW 8341   8.437   5.496   2.938 -0.2034  0.2301 -0.0577
 1165SOL    HW1 8342   8.349   5.514   2.972 -1.1575 -1.8163 -1.2967
 1165SOL    HW2 8343   8.479   5.444   3.007 -0.4412  0.1120  0.0001
 1166SOL     OW 8344   4.126   5.575   8.954 -0.5053 -0.9011 -0.2958
 1166SOL    HW1 8345   4.097   5.488   8.925 -0.1878 -0.3805 -2.3355
 1166SOL    HW2 8346   4.173   5.611   8.879  1.1408  0.2622  1.2074
 1167SOL     OW 8347   9.652   1.096   3.602  0.0366 -0.5947  0.0633
 1167SOL    HW1 8348   9.661   1.069   3.510 -1.0393  1.2424 -0.6252
 1167SOL    HW2 8349   9.627   1.016   3.648  2.7088 -2.0614 -0.8064
 1168SOL     OW 8350   1.807   2.255   1.687 -0.1687  0.1399 -0.1879
 1168SOL    HW1 8351   1.860   2.175   1.677 -0.1712  0.0124  0.7876
 1168SOL    HW2 8352   1.797   2.287   1.597 -1.0278 -1.5132 -0.7277
 1169SOL     OW 8353   7.190   7.369   6.989 -0.3165  0.4528  0.3279
 1169SOL    HW1 8354   7.248   7.413   6.926  1.0014 -1.5282  0.0634
 1169SOL    HW2 8355   7.202   7.418   7.071 -0.9733  2.1953 -0.5698
 1170SOL     OW 8356   4.461   6.585   6.299  0.1009  0.2189 -0.2172
 1170SOL    HW1 8357   4.391   6.612   6.240  0.1387 -3.1878 -2.0775
 1170SOL    HW2 8358   4.542   6.613   6.255  0.0625  1.2813  0.3377
 1171SOL     OW 8359   9.337   3.979   1.473  0.0855 -0.5581 -0.1857
 1171SOL    HW1 8360   9.309   3.899   1.428 -0.2557  0.1010 -1.1617
 1171SOL    HW2 8361   9.387   4.027   1.408  0.6494 -0.1614  0.5271
 1172SOL     OW 8362   0.606   4.063   8.836  0.4484  0.2794  0.3399
 1172SOL    HW1 8363   0.523   4.105   8.812  1.4250  1.7159 -0.7126
 1172SOL    HW2 8364   0.621   4.089   8.926  0.2896  0.9627  0.1754
 1173SOL     OW 8365   6.536   9.034   8.120 -0.8098  0.4576 -0.5249
 1173SOL    HW1 8366   6.468   9.022   8.054 -2.0690  2.0851  0.4099
 1173SOL    HW2 8367   6.501   9.101   8.179  1.1001  0.4635  0.6857
 1174SOL     OW 8368   8.697   8.192   5.684 -0.2839  0.0636  0.1187
 1174SOL    HW1 8369   8.706   8.282   5.715 -0.4048 -0.2543  1.1137
 1174SOL    HW2 8370   8.612   8.164   5.717  0.6131 -1.0648  1.5743
 1175SOL     OW 8371   0.225   7.472   4.764 -0.4446 -0.4342  0.3786
 1175SOL    HW1 8372   0.146   7.494   4.715  0.5973 -0.2629 -1.3016
 1175SOL    HW2 8373   0.196   7.406   4.828 -1.6091 -1.7283 -1.3951
 1176SOL     OW 8374   3.502   9.718   8.464 -0.0235  0.6613 -0.0650
 1176SOL    HW1 8375   3.468   9.699   8.377  1.6389  1.3290 -0.9156
 1176SOL    HW2 8376   3.456   9.798   8.491 -1.1239  0.0111  0.0424
 1177SOL     OW 8377   8.661   8.507   8.841  0.2462  0.0366  0.2762
 1177SOL    HW1 8378   8.567   8.494   8.828  0.3174 -0.1612 -0.0628
 1177SOL    HW2 8379   8.675   8.490   8.934  0.0709 -0.7346  0.1754
 1178SOL     OW 8380   1.495   2.554   4.171  0.3922 -0.1625  0.1091
 1178SOL    HW1 8381   1.492   2.459   4.165  0.1889 -0.2567  1.3793
 1178SOL    HW2 8382   1.500   2.584   4.080 -0.4808 -1.3503 -0.3565
 1179SOL     OW 8383   8.493   6.555   8.479 -0.2937  0.3732 -0.0262
 1179SOL    HW1 8384   8.563   6.495   8.504 -0.7482 -0.1062  0.1012
 1179SOL    HW2 8385   8.439   6.505   8.417  0.5794  1.3955 -1.6860
 1180SOL     OW 8386   9.121   4.831   4.459 -0.3078  0.3745  0.0658
 1180SOL    HW1 8387   9.061   4.785   4.519  0.3170 -3.7734 -2.0930
 1180SOL    HW2 8388   9.065   4.892   4.411 -2.0616 -0.6799  0.6772
 1181SOL     OW 8389   6.996   1.759   1.612 -0.2781  0.4253 -0.0730
 1181SOL    HW1 8390   7.041   1.723   1.689 -2.2182  1.4126  1.6274
 1181SOL    HW2 8391   6.996   1.854   1.627 -0.9721  0.6110 -1.1461
 1182SOL     OW 8392   0.037   5.623   8.807  0.1129 -0.0893 -0.1007
 1182SOL    HW1 8393  -0.037   5.670   8.846 -0.1556  0.8136 -1.6397
 1182SOL    HW2 8394   0.026   5.533   8.837 -0.0586  0.5352  1.9027
 1183SOL     OW 8395   9.430   6.429   5.005  0.4701 -0.3762 -0.4634
 1183SOL    HW1 8396   9.344   6.470   4.993  1.3002  1.2196 -1.2471
 1183SOL    HW2 8397   9.443   6.428   5.099 -0.6920 -1.2967 -0.2848
 1184SOL     OW 8398   1.452   6.764   8.606 -0.0690 -0.4148  0.2028
 1184SOL    HW1 8399   1.418   6.707   8.537  0.0622  0.4310 -0.5845
 1184SOL    HW2 8400   1.540   6.731   8.623  0.7529  0.6646 -1.6114
 1185SOL     OW 8401   7.802   7.394   2.580  0.0450  0.3989  0.2271
 1185SOL    HW1 8402   7.877   7.335   2.587 -0.7870 -0.7958 -0.5461
 1185SOL    HW2 8403   7.799   7.419   2.488 -0.6571  0.2019  0.1839
 1186SOL     OW 8404   9.655   1.584   8.200  0.5716 -0.3981  0.3552
 1186SOL    HW1 8405   9.604   1.657   8.165  1.8837  0.9259  1.0796
 1186SOL    HW2 8406   9.599   1.508   8.190 -0.4891  0.5485 -1.2721
 1187SOL     OW 8407   7.495   9.265   2.827  0.8490  0.4862 -0.2375
 1187SOL    HW1 8408   7.563   9.332   2.829 -0.7476  2.1869  1.7784
 1187SOL    HW2 8409   7.500   9.223   2.913 -0.0969  0.0747 -0.3747
 1188SOL     OW 8410   1.380   8.923   8.038  0.3658  0.0293 -0.2747
 1188SOL    HW1 8411   1.424   8.999   8.000  0.4611  0.1855  0.1398
 1188SOL    HW2 8412   1.374   8.860   7.967  2.4291 -0.5028 -0.0303
 1189SOL     OW 8413   0.131   8.580   0.630  0.4728  0.0022  0.5970
 1189SOL    HW1 8414   0.081   8.515   0.678 -1.1299  0.8330  0.1071
 1189SOL    HW2 8415   0.130   8.658   0.686 -0.0169  0.4666 -0.0426
 1190SOL     OW 8416   4.065   8.207   4.108 -0.5094 -0.7075  0.3133
 1190SOL    HW1 8417   4.133   8.235   4.047 -0.8577 -1.0838 -0.2468
 1190SOL    HW2 8418   4.103   8.131   4.152 -0.3708 -0.6051  0.3760
 1191SOL     OW 8419   0.100   9.739   4.976  0.4120  0.2770 -0.7367
 1191SOL    HW1 8420   0.191   9.750   5.003  0.0659 -0.7137  1.0692
 1191SOL    HW2 8421   0.092   9.645   4.957 -0.4418  0.1549  0.1187
 1192SOL     OW 8422   7.901   6.292   1.431  0.0184 -1.2125  0.7274
 1192SOL    HW1 8423   7.827   6.352   1.417 -0.2659 -1.6606  0.2964
 1192SOL    HW2 8424   7.871   6.209   1.396  0.2160 -1.7512  1.7993
 1193SOL     OW 8425   4.731   1.522   0.428  0.1677 -0.6324 -0.2033
 1193SOL    HW1 8426   4.806   1.496   0.375  0.6741  2.4814 -1.2354
 1193SOL    HW2 8427   4.763   1.596   0.480 -1.9971  0.3700 -0.1837
 1194SOL     OW 8428   7.548   7.068   8.854  0.1871 -0.9335 -0.2047
 1194SOL    HW1 8429   7.509   7.139   8.904  1.8374 -0.7993  0.9601
 1194SOL    HW2 8430   7.624   7.108   8.811  0.2016 -1.6248 -0.8391
 1195SOL     OW 8431   5.930   1.525   2.007 -0.3473  0.0963 -0.8744
 1195SOL    HW1 8432   5.969   1.612   2.014  0.5339 -0.2297 -1.6878
 1195SOL    HW2 8433   5.895   1.508   2.095  0.0966  0.9662 -0.5165
 1196SOL     OW 8434   3.871   2.968   2.301  0.9769  0.6762  0.1019
 1196SOL    HW1 8435   3.879   2.921   2.384 -0.3224 -1.2783 -0.8021
 1196SOL    HW2 8436   3.777   2.975   2.287  1.1756  1.6080 -0.8879
 1197SOL     OW 8437   8.873   7.393   4.006  0.1908  0.1008  0.2153
 1197SOL    HW1 8438   8.848   7.305   3.977  0.8284  0.2777 -0.9482
 1197SOL    HW2 8439   8.845   7.397   4.097 -1.0563 -0.8340 -0.0967
 1198SOL     OW 8440   3.672   4.499   9.273 -0.0465 -0.4688  0.2477
 1198SOL    HW1 8441   3.716   4.424   9.234  4.4878  2.2403 -0.5658
 1198SOL    HW2 8442   3.614   4.532   9.204  1.6552 -0.5066 -1.2841
 1199SOL     OW 8443   9.199   4.680   9.038  0.2978  0.2955  0.0334
 1199SOL    HW1 8444   9.262   4.609   9.047 -0.1985 -0.3850 -1.4394
 1199SOL    HW2 8445   9.122   4.650   9.087  1.0575  1.0996  1.7781
 1200SOL     OW 8446   0.389   2.741   7.394  0.2091  0.3873  0.0999
 1200SOL    HW1 8447   0.422   2.738   7.304  0.1188  0.4157  0.0662
 1200SOL    HW2 8448   0.468   2.733   7.448  0.4386  1.8202  0.0229
 1201SOL     OW 8449   5.863   5.155   1.589 -0.4310 -0.2627 -0.0480
 1201SOL    HW1 8450   5.820   5.088   1.536  0.9905  0.7422 -2.6192
 1201SOL    HW2 8451   5.837   5.238   1.549  1.2994  0.4962  0.3152
 1202SOL     OW 8452   8.136   9.225   3.772  0.1850 -0.5166 -0.3805
 1202SOL    HW1 8453   8.048   9.226   3.811  0.4734 -2.1433  0.4028
 1202SOL    HW2 8454   8.125   9.180   3.688 -0.3060  2.3723 -2.0122
 1203SOL     OW 8455   8.948   5.438   7.459  0.0780  0.0165 -0.4113
 1203SOL    HW1 8456   8.925   5.382   7.533  0.1756  0.1999 -0.2369
 1203SOL    HW2 8457   8.917   5.525   7.485  1.8658  0.4952  0.2959
 1204SOL     OW 8458   2.640   0.147   9.181 -0.0698  0.8644 -0.0961
 1204SOL    HW1 8459   2.713   0.199   9.215  1.0620  1.5203 -3.1863
 1204SOL    HW2 8460   2.584   0.210   9.136  0.2884 -0.2509 -2.2422
 1205SOL     OW 8461   1.875   1.021   4.659  0.1384  0.2449  0.2164
 1205SOL    HW1 8462   1.893   1.092   4.597 -1.9654  0.2393 -0.4537
 1205SOL    HW2 8463   1.962   0.989   4.684  1.0695  1.1667 -1.6638
 1206SOL     OW 8464   4.465   0.908   4.773 -0.6479 -0.0664 -0.3714
 1206SOL    HW1 8465   4.466   0.829   4.826 -1.1454 -0.4085 -0.8608
 1206SOL    HW2 8466   4.557   0.937   4.771 -0.5661 -0.2730  0.3235
 1207SOL     OW 8467   6.736   6.541   7.427  0.3163  0.1131  0.2574
 1207SOL    HW1 8468   6.743   6.450   7.398  1.3979  0.7517 -1.6261
 1207SOL    HW2 8469   6.645   6.549   7.458 -0.5667 -0.9793 -1.8493
 1208SOL     OW 8470   1.572   9.276   3.992 -0.2418 -0.3818  0.6490
 1208SOL    HW1 8471   1.656   9.285   4.037  0.3359  0.2189 -0.5137
 1208SOL    HW2 8472   1.583   9.324   3.911 -1.9260  0.2324  0.7456
 1209SOL     OW 8473   1.794   1.372   4.730  0.0187  0.3848 -0.1192
 1209SOL    HW1 8474   1.836   1.316   4.665 -0.0109  1.1397 -0.8054
 1209SOL    HW2 8475   1.857   1.377   4.802 -0.7559 -2.0480  0.8286
 1210SOL     OW 8476   1.148   2.420   3.427  0.1310  0.0032 -0.4737
 1210SOL    HW1 8477   1.169   2.399   3.336 -1.6827  1.9034 -1.4173
 1210SOL    HW2 8478   1.205   2.494   3.448  0.3363 -0.2432 -0.1584
 1211SOL     OW 8479   3.575   7.482   2.557  0.0163  0.1848 -0.1768
 1211SOL    HW1 8480   3.644   7.495   2.622 -0.5357 -0.9223  0.6563
 1211SOL    HW2 8481   3.544   7.570   2.537  0.5459  0.5792  0.6837
 1212SOL     OW 8482   3.624   3.255   7.374 -0.7010 -0.6016  0.1461
 1212SOL    HW1 8483   3.711   3.282   7.345 -1.2640 -0.3225 -1.3547
 1212SOL    HW2 8484   3.638   3.169   7.414  0.5427  0.2827  1.7377
 1213SOL     OW 8485   7.548   6.804   3.124  0.0456 -0.0533 -0.2034
 1213SOL    HW1 8486   7.538   6.843   3.210 -1.1809 -0.9844  0.1034
 1213SOL    HW2 8487   7.521   6.872   3.062  2.8654  1.3505 -0.0442
 1214SOL     OW 8488   9.619   5.613   1.623 -0.1085 -0.3332  0.1342
 1214SOL    HW1 8489   9.702   5.575   1.650 -0.8484 -2.6728 -0.6258
 1214SOL    HW2 8490   9.556   5.540   1.626 -2.0541  1.2541  0.3004
 1215SOL     OW 8491   3.816   5.711   4.737 -0.0611  0.0163 -0.6669
 1215SOL    HW1 8492   3.790   5.720   4.829  0.4888 -1.7218 -0.2983
 1215SOL    HW2 8493   3.735   5.722   4.688 -1.0521 -2.4212  0.2730
 1216SOL     OW 8494   2.752   2.274   2.005  0.3919  0.1271  0.2646
 1216SOL    HW1 8495   2.763   2.180   1.996  1.1568  0.1785  0.5700
 1216SOL    HW2 8496   2.660   2.290   1.984  0.7752 -0.3883 -2.0589
 1217SOL     OW 8497   2.763   1.829   4.603  0.5649 -0.0664 -0.6665
 1217SOL    HW1 8498   2.822   1.852   4.531  0.3158  0.0720 -0.8295
 1217SOL    HW2 8499   2.693   1.778   4.562  0.3474  0.1333 -0.5510
 1218SOL     OW 8500   5.992   8.215   1.839 -0.1853  0.4226  0.0532
 1218SOL    HW1 8501   6.067   8.188   1.893 -0.3425 -1.5279 -0.6394
 1218SOL    HW2 8502   5.915   8.190   1.891 -0.3555  0.7228 -0.0528
 1219SOL     OW 8503   4.595   9.634   6.357  0.0175 -0.8322 -0.0924
 1219SOL    HW1 8504   4.660   9.594   6.299 -1.0543 -1.0354 -1.2091
 1219SOL    HW2 8505   4.511   9.612   6.316 -0.6478  1.9573 -0.3886
 1220SOL     OW 8506   0.302   3.547   3.747 -0.3913 -0.1961 -0.0307
 1220SOL    HW1 8507   0.290   3.459   3.711 -0.2857  0.4458 -1.6883
 1220SOL    HW2 8508   0.236   3.600   3.703 -0.4327  0.5781  0.9362
 1221SOL     OW 8509   5.663   0.637   4.564 -0.5040 -0.3051 -0.2992
 1221SOL    HW1 8510   5.660   0.542   4.552  0.5995 -0.3319 -0.5287
 1221SOL    HW2 8511   5.726   0.667   4.497  2.0422  0.1360  2.1108
 1222SOL     OW 8512   5.804   4.174   2.676  0.0116 -0.4357 -0.5438
 1222SOL    HW1 8513   5.831   4.097   2.627 -0.3533 -0.2722 -1.0091
 1222SOL    HW2 8514   5.863   4.177   2.751  0.5627 -0.6967 -0.9624
 1223SOL     OW 8515   7.660   6.506   2.490 -0.6216 -0.3742 -0.1160
 1223SOL    HW1 8516   7.675   6.546   2.404 -0.9942 -0.2693 -0.1334
 1223SOL    HW2 8517   7.716   6.557   2.550 -1.9909  0.9933  0.0704
 1224SOL     OW 8518   2.394   8.116   9.511 -0.2750  0.1804  0.2993
 1224SOL    HW1 8519   2.312   8.165   9.522 -0.3061  0.0625  0.6145
 1224SOL    HW2 8520   2.453   8.153   9.576 -0.6075 -0.8485  1.2262
 1225SOL     OW 8521   6.984   0.002   5.579  0.3775  0.1818 -0.6130
 1225SOL    HW1 8522   6.907  -0.028   5.530  1.2168 -1.0101 -1.2263
 1225SOL    HW2 8523   6.947   0.046   5.656 -0.9127 -1.7890 -0.0392
 1226SOL     OW 8524   0.873   5.192   2.560 -0.6212 -0.1663 -0.3129
 1226SOL    HW1 8525   0.959   5.152   2.547  0.4103  1.5729  0.7316
 1226SOL    HW2 8526   0.862   5.196   2.655 -1.1283  1.0657 -0.4000
 1227SOL     OW 8527   3.930   5.908   6.978  0.0247 -0.2022  0.5765
 1227SOL    HW1 8528   3.892   5.822   6.960 -0.3835  0.3324 -1.4097
 1227SOL    HW2 8529   4.019   5.889   7.007 -0.1478 -1.3151  0.4347
 1228SOL     OW 8530   1.442   6.285   4.592 -0.4609  0.0466 -0.2595
 1228SOL    HW1 8531   1.437   6.204   4.642 -1.5947  0.8743  1.0735
 1228SOL    HW2 8532   1.534   6.312   4.598 -0.0893 -1.0831 -0.6784
 1229SOL     OW 8533   3.223   9.405   3.875  0.0852 -0.1402  0.1287
 1229SOL    HW1 8534   3.291   9.354   3.919  0.4067  0.2475  0.0860
 1229SOL    HW2 8535   3.180   9.342   3.817  0.4600 -0.3749  0.0974
 1230SOL     OW 8536   3.886   8.263   9.027 -0.6993  0.4481  0.1155
 1230SOL    HW1 8537   3.949   8.246   9.097  0.6723 -1.8228 -1.5141
 1230SOL    HW2 8538   3.800   8.253   9.068 -0.0853  2.8790  2.2378
 1231SOL     OW 8539   3.438   5.038   5.426 -0.0577 -0.3945 -0.1323
 1231SOL    HW1 8540   3.522   5.049   5.382  0.7795  1.2411  1.7381
 1231SOL    HW2 8541   3.394   5.123   5.416 -0.1604 -0.2371  1.4772
 1232SOL     OW 8542   6.523   0.287   1.756  0.0811 -0.4566 -0.0874
 1232SOL    HW1 8543   6.531   0.380   1.734 -0.8140 -0.2169  0.5220
 1232SOL    HW2 8544   6.515   0.243   1.671  2.6539 -0.2504 -0.5132
 1233SOL     OW 8545   3.626   7.852   7.743  0.3491 -0.4783 -0.0234
 1233SOL    HW1 8546   3.536   7.864   7.772  0.4751 -0.1911  0.2465
 1233SOL    HW2 8547   3.675   7.924   7.782  0.8537 -1.0966  0.5186
 1234SOL     OW 8548   7.524   1.361   9.097 -0.0163  0.4021 -0.6765
 1234SOL    HW1 8549   7.516   1.299   9.025 -0.1680 -2.1832  1.4186
 1234SOL    HW2 8550   7.442   1.353   9.145  0.3927  1.4428  0.2388
 1235SOL     OW 8551   5.075   2.567   0.137 -0.1828 -0.3838  0.2548
 1235SOL    HW1 8552   4.999   2.614   0.170  0.1147  1.7788 -1.8515
 1235SOL    HW2 8553   5.042   2.518   0.062  0.5557  1.1520 -1.1287
 1236SOL     OW 8554   0.738   7.405   1.831  0.6265 -0.0313 -1.6565
 1236SOL    HW1 8555   0.828   7.401   1.800  0.7149 -1.1805 -1.3070
 1236SOL    HW2 8556   0.725   7.323   1.879  0.2850  1.3898  0.8229
 1237SOL     OW 8557   9.251   1.207   8.445  0.0162  0.2941  0.4332
 1237SOL    HW1 8558   9.244   1.300   8.464  1.4199  0.2405  1.3503
 1237SOL    HW2 8559   9.210   1.163   8.519  0.8229  0.1674  0.8143
 1238SOL     OW 8560   1.726   1.528   0.970  0.4515  0.5278  0.2981
 1238SOL    HW1 8561   1.651   1.490   0.925  1.4928 -0.5247 -0.6389
 1238SOL    HW2 8562   1.692   1.557   1.055 -1.0732  0.4396 -0.2587
 1239SOL     OW 8563   4.000   2.401   0.543  0.5544 -0.0538  0.0669
 1239SOL    HW1 8564   4.033   2.406   0.453  1.9109  0.3591  0.5558
 1239SOL    HW2 8565   4.007   2.309   0.566 -0.3273 -0.2546 -0.4262
 1240SOL     OW 8566   2.060   0.309   7.477  0.2151 -0.4177 -0.4695
 1240SOL    HW1 8567   2.131   0.371   7.464 -1.8140  1.9794 -0.8519
 1240SOL    HW2 8568   2.023   0.331   7.562 -1.1099 -0.4487 -1.0103
 1241SOL     OW 8569   8.384   5.008   8.787 -0.9432 -0.3065  0.1782
 1241SOL    HW1 8570   8.441   5.081   8.766 -1.3298  0.5625  1.9695
 1241SOL    HW2 8571   8.443   4.939   8.819 -0.7272 -0.1228  0.1721
 1242SOL     OW 8572   2.426   3.770   0.702 -0.5722  0.3247 -0.3399
 1242SOL    HW1 8573   2.429   3.726   0.617 -0.0207  2.5741 -1.5819
 1242SOL    HW2 8574   2.334   3.791   0.715 -0.4584  1.5715 -1.3241
 1243SOL     OW 8575   9.038   5.743   4.365 -0.2323  0.0638  0.3574
 1243SOL    HW1 8576   9.002   5.657   4.382 -2.8879  0.8435 -0.8147
 1243SOL    HW2 8577   8.977   5.804   4.406 -0.1460  1.4550 -1.4270
 1244SOL     OW 8578   8.293   3.584   1.814 -0.1234 -0.6478  0.4278
 1244SOL    HW1 8579   8.318   3.675   1.823 -1.3147 -0.2315 -0.2553
 1244SOL    HW2 8580   8.299   3.548   1.903 -0.1642  0.2371  0.7922
 1245SOL     OW 8581   6.013   1.920   8.274  0.4313 -0.1731 -0.5505
 1245SOL    HW1 8582   6.074   1.962   8.213 -1.0480 -0.8995 -2.6301
 1245SOL    HW2 8583   5.966   1.993   8.314 -1.0313  0.3201 -2.9761
 1246SOL     OW 8584   2.254   4.667   3.594  0.2728 -0.0327  0.0286
 1246SOL    HW1 8585   2.245   4.762   3.596 -2.7759 -0.1977  0.4387
 1246SOL    HW2 8586   2.307   4.648   3.517  0.5448  1.9667 -0.3118
 1247SOL     OW 8587   5.996   8.548   2.513  0.3991  0.2710 -0.2723
 1247SOL    HW1 8588   5.908   8.511   2.503  0.5283 -0.5607  1.4206
 1247SOL    HW2 8589   5.985   8.641   2.491 -1.2447  0.5115  1.3059
 1248SOL     OW 8590   2.846   5.024   6.220 -0.8614  0.3678 -0.1693
 1248SOL    HW1 8591   2.878   5.072   6.297  1.1403  0.8610 -1.2156
 1248SOL    HW2 8592   2.905   5.051   6.150 -3.7029  1.3750 -2.3677
 1249SOL     OW 8593   8.079   7.092   9.495 -0.5808 -0.3614  0.1423
 1249SOL    HW1 8594   8.114   7.021   9.548 -0.7303 -0.9238 -0.5091
 1249SOL    HW2 8595   7.993   7.110   9.533 -0.2388 -0.0102  0.7779
 1250SOL     OW 8596   7.055   7.622   3.449 -0.4114  0.2588  0.0446
 1250SOL    HW1 8597   7.059   7.554   3.381  1.3150  1.2842 -0.9652
 1250SOL    HW2 8598   6.967   7.658   3.442 -1.0106 -1.1681 -0.0911
 1251SOL     OW 8599   1.987   0.348   8.290  0.4351  0.1515 -0.3116
 1251SOL    HW1 8600   1.951   0.262   8.265 -0.1186 -0.1865  1.5156
 1251SOL    HW2 8601   1.973   0.402   8.212  0.6308 -1.3524 -1.4437
 1252SOL     OW 8602   8.721   2.149   6.980 -0.5091  0.2023 -0.2501
 1252SOL    HW1 8603   8.642   2.105   7.012  0.5991 -1.4325  0.4006
 1252SOL    HW2 8604   8.792   2.108   7.029  0.8027  1.3118 -1.1449
 1253SOL     OW 8605   1.819   7.344   2.389  0.1526  0.3069 -0.3244
 1253SOL    HW1 8606   1.744   7.364   2.444 -0.8975  0.7908 -1.8816
 1253SOL    HW2 8607   1.850   7.429   2.358 -0.8140 -0.0318 -2.4056
 1254SOL     OW 8608   3.496   0.564   8.013  0.2815  0.2627  0.0296
 1254SOL    HW1 8609   3.428   0.543   7.948  1.0145  0.2898 -0.7631
 1254SOL    HW2 8610   3.544   0.482   8.025  0.2677  0.3091  0.3969
 1255SOL     OW 8611   4.167   8.492   4.581  0.2114  0.3924  0.1699
 1255SOL    HW1 8612   4.095   8.446   4.537 -0.1620  0.4549  0.7075
 1255SOL    HW2 8613   4.218   8.530   4.510  0.8766 -1.3479 -0.3458
 1256SOL     OW 8614   4.463   2.607   3.424  0.2122 -0.6833 -0.3039
 1256SOL    HW1 8615   4.536   2.575   3.370 -0.0904  1.2737 -1.9993
 1256SOL    HW2 8616   4.502   2.627   3.509  1.6503  0.2547 -1.1515
 1257SOL     OW 8617   6.572   8.329   4.760 -0.3671 -0.5269 -0.6962
 1257SOL    HW1 8618   6.500   8.385   4.732 -0.1002  0.5237  0.5903
 1257SOL    HW2 8619   6.635   8.390   4.800  0.2842 -1.6478  0.0336
 1258SOL     OW 8620   0.219   3.565   8.771 -0.4563  0.1960  0.3395
 1258SOL    HW1 8621   0.284   3.501   8.742 -0.2365  0.1599  0.8832
 1258SOL    HW2 8622   0.270   3.644   8.789 -0.2547 -0.3523  2.4856
 1259SOL     OW 8623   2.250   1.246   6.213 -0.2213 -0.1101 -0.5110
 1259SOL    HW1 8624   2.201   1.317   6.255  2.3034  0.1981  2.2397
 1259SOL    HW2 8625   2.214   1.166   6.251 -1.0958 -0.1704 -1.4148
 1260SOL     OW 8626   6.315   5.437   7.201  0.3104  0.2211 -0.7480
 1260SOL    HW1 8627   6.359   5.484   7.272  0.8415  0.5649 -1.2946
 1260SOL    HW2 8628   6.375   5.367   7.178  0.5479  0.6396 -1.4415
 1261SOL     OW 8629   0.295   3.908   6.182 -0.5202 -0.2780 -0.3939
 1261SOL    HW1 8630   0.259   3.848   6.247 -1.3086  1.9100  1.3267
 1261SOL    HW2 8631   0.227   3.915   6.116 -1.2291  0.1430  0.3661
 1262SOL     OW 8632   7.170   2.589   9.354 -0.4693 -0.0307 -0.2779
 1262SOL    HW1 8633   7.221   2.582   9.273 -1.7311  0.3380 -1.1343
 1262SOL    HW2 8634   7.210   2.662   9.401  0.6233 -0.5960 -0.2897
 1263SOL     OW 8635   2.233   8.433   8.940 -0.1011  0.3517  0.4976
 1263SOL    HW1 8636   2.201   8.459   9.026 -1.2279 -0.3464  0.3215
 1263SOL    HW2 8637   2.238   8.337   8.945 -0.7945  0.2550 -0.4014
 1264SOL     OW 8638   9.282   1.884   2.172 -0.0699  0.9365  0.4893
 1264SOL    HW1 8639   9.336   1.932   2.235 -0.1547  0.2520  1.1060
 1264SOL    HW2 8640   9.339   1.872   2.096  0.4911  0.6521  0.9401
 1265SOL     OW 8641   1.708   0.938   3.326  0.0414  0.2949 -0.1875
 1265SOL    HW1 8642   1.712   0.844   3.342  0.9037  0.3865  0.1976
 1265SOL    HW2 8643   1.647   0.971   3.392  0.4769  0.1253  0.3074
 1266SOL     OW 8644   3.078   2.701   4.140  0.7735  0.2472  0.0403
 1266SOL    HW1 8645   3.074   2.738   4.228 -0.8916  0.7749 -0.2207
 1266SOL    HW2 8646   3.157   2.740   4.102  0.1574  2.0350  0.4563
 1267SOL     OW 8647   6.343   8.844   6.586 -0.4426  0.2068  0.0440
 1267SOL    HW1 8648   6.261   8.849   6.537 -1.4467 -1.8063  1.3689
 1267SOL    HW2 8649   6.316   8.838   6.677  1.1959 -0.3269  0.5250
 1268SOL     OW 8650   0.561   2.760   5.094  0.0500 -0.1636 -0.2573
 1268SOL    HW1 8651   0.590   2.761   5.185 -0.2906 -1.5461 -0.1167
 1268SOL    HW2 8652   0.466   2.749   5.098 -0.1243  1.0501 -0.7698
 1269SOL     OW 8653   6.420   8.801   9.338 -0.9511  0.6365 -0.2882
 1269SOL    HW1 8654   6.443   8.872   9.279  0.1493  1.0477  0.6074
 1269SOL    HW2 8655   6.414   8.724   9.282 -0.3173  1.0917 -0.9887
 1270SOL     OW 8656   3.294   6.563   3.471 -0.5887  0.1036 -0.2826
 1270SOL    HW1 8657   3.298   6.498   3.541 -3.0037  1.8795  1.6902
 1270SOL    HW2 8658   3.207   6.601   3.478  0.5055  3.2423 -1.6057
 1271SOL     OW 8659   6.909   9.116   8.666 -0.3306  0.2746  0.9282
 1271SOL    HW1 8660   6.900   9.054   8.593  2.1590 -1.3621  1.8956
 1271SOL    HW2 8661   6.848   9.083   8.732  0.0212 -0.4029  0.9302
 1272SOL     OW 8662   2.249   5.962   2.159 -0.4043 -0.6790  0.3431
 1272SOL    HW1 8663   2.235   6.027   2.228 -0.7784 -0.0505 -0.3113
 1272SOL    HW2 8664   2.273   6.014   2.082  0.5074 -1.4004  0.1212
 1273SOL     OW 8665   2.387   3.488   1.738  0.0917 -0.3900 -0.1611
 1273SOL    HW1 8666   2.354   3.549   1.673  0.4514  0.1130  0.1155
 1273SOL    HW2 8667   2.398   3.405   1.691 -4.2228 -1.4850  0.3287
 1274SOL     OW 8668   8.740   3.277   7.340 -0.4280  0.4392 -0.9746
 1274SOL    HW1 8669   8.778   3.212   7.280 -0.7961 -0.1497 -0.5890
 1274SOL    HW2 8670   8.646   3.261   7.335 -0.7034  2.1634 -2.2373
 1275SOL     OW 8671   7.583   0.305   8.951 -0.3296  0.2424  0.1287
 1275SOL    HW1 8672   7.570   0.320   8.858  0.6550  0.6042  0.0372
 1275SOL    HW2 8673   7.570   0.390   8.992 -0.0344  0.2394  0.2329
 1276SOL     OW 8674   0.038   6.437   5.651 -0.5747 -0.0381 -0.3034
 1276SOL    HW1 8675  -0.037   6.422   5.708 -0.2626  0.0517  0.1347
 1276SOL    HW2 8676   0.091   6.358   5.660 -0.9543 -0.3980 -1.1430
 1277SOL     OW 8677   3.114   8.506   0.850  0.3591 -0.3294  0.1479
 1277SOL    HW1 8678   3.178   8.537   0.785  1.4656  0.2953  1.4907
 1277SOL    HW2 8679   3.067   8.585   0.876 -1.5546 -0.8896 -1.3758
 1278SOL     OW 8680   4.072   3.303   8.311 -0.1374  0.1942 -0.1771
 1278SOL    HW1 8681   4.119   3.359   8.250  0.8039 -1.2978 -0.8787
 1278SOL    HW2 8682   4.129   3.299   8.388  0.0221 -0.1869 -0.3163
 1279SOL     OW 8683   7.897   0.205   0.507  0.8205 -0.0272  0.6185
 1279SOL    HW1 8684   7.884   0.293   0.543 -0.2801  0.4269 -0.7650
 1279SOL    HW2 8685   7.990   0.188   0.518  1.0889  1.3881  0.7868
 1280SOL     OW 8686   2.829   1.317   5.821  0.2060 -0.5547  0.3224
 1280SOL    HW1 8687   2.817   1.271   5.904 -0.4464 -2.5921 -0.8350
 1280SOL    HW2 8688   2.888   1.261   5.770 -0.7427 -0.2304 -1.2129
 1281SOL     OW 8689   0.773   3.507   0.124 -0.3506  0.3019  0.4573
 1281SOL    HW1 8690   0.761   3.533   0.032 -1.8559 -2.2068 -0.1621
 1281SOL    HW2 8691   0.867   3.519   0.140  0.0611  0.3116 -1.6116
 1282SOL     OW 8692   9.254   8.082   6.346 -1.0569  0.0743 -0.6137
 1282SOL    HW1 8693   9.291   8.148   6.287 -0.3653 -0.0698 -0.3504
 1282SOL    HW2 8694   9.182   8.127   6.391 -0.5384  0.6808 -0.3725
 1283SOL     OW 8695   2.244   1.311   2.362  0.2596  0.1444 -0.4220
 1283SOL    HW1 8696   2.239   1.385   2.302  0.7595  1.2239  0.8037
 1283SOL    HW2 8697   2.154   1.297   2.391  0.2093  0.5000 -0.4045
 1284SOL     OW 8698   5.242   9.166   7.273 -0.4066 -0.0901 -0.2683
 1284SOL    HW1 8699   5.218   9.241   7.218  2.2664 -0.6827 -2.4738
 1284SOL    HW2 8700   5.223   9.195   7.362 -2.3355  1.9869 -1.2387
 1285SOL     OW 8701   3.738   6.252   3.823 -0.0439  0.0596 -0.0919
 1285SOL    HW1 8702   3.694   6.220   3.744  1.2543 -0.3384 -0.6757
 1285SOL    HW2 8703   3.797   6.182   3.849  0.2868  0.5882  0.6583
 1286SOL     OW 8704   5.337   2.345   5.853 -0.0947 -0.2112 -0.0761
 1286SOL    HW1 8705   5.290   2.338   5.936 -0.4549  1.0896 -0.1516
 1286SOL    HW2 8706   5.401   2.273   5.855  0.8002  0.5868  1.9117
 1287SOL     OW 8707   7.639   6.278   7.234  0.3653  0.3015  0.6028
 1287SOL    HW1 8708   7.689   6.355   7.207  0.3509  0.1899  0.2522
 1287SOL    HW2 8709   7.703   6.207   7.235 -0.0262 -0.1155 -1.1142
 1288SOL     OW 8710   2.905   1.002   7.593 -0.5430 -0.0111  0.1125
 1288SOL    HW1 8711   2.886   0.995   7.686  5.4596  0.5974  1.8109
 1288SOL    HW2 8712   2.913   0.911   7.563  1.8601 -0.3775  1.5787
 1289SOL     OW 8713   9.396   4.866   8.326 -0.4496 -0.0138  0.0222
 1289SOL    HW1 8714   9.488   4.874   8.301  0.3192  1.7925  3.0276
 1289SOL    HW2 8715   9.388   4.777   8.361  0.8358  0.5681  1.9373
 1290SOL     OW 8716   3.471   9.333   9.207  0.0760  0.6468 -0.5573
 1290SOL    HW1 8717   3.459   9.259   9.148 -2.2286  1.4560 -1.2463
 1290SOL    HW2 8718   3.542   9.307   9.266 -0.3260 -1.8785 -1.0938
 1291SOL     OW 8719   4.706   1.860   8.105 -0.5019  0.2198 -0.6525
 1291SOL    HW1 8720   4.642   1.861   8.177 -0.3825 -0.4559 -0.5328
 1291SOL    HW2 8721   4.765   1.932   8.124 -0.7827  0.3717 -0.3518
 1292SOL     OW 8722   8.371   9.341   7.938 -0.6625 -0.5031  0.3914
 1292SOL    HW1 8723   8.307   9.402   7.902  0.7988  1.4741  0.9236
 1292SOL    HW2 8724   8.328   9.256   7.936 -2.7167  0.4966 -0.6252
 1293SOL     OW 8725   5.331   1.987   9.327  0.0202  0.1330 -0.1112
 1293SOL    HW1 8726   5.270   2.005   9.399 -0.6781  1.3824 -0.9747
 1293SOL    HW2 8727   5.405   2.045   9.343 -0.2240  0.5527 -0.5085
 1294SOL     OW 8728   5.322   8.973   3.209  0.2301  0.3364 -0.1517
 1294SOL    HW1 8729   5.353   9.047   3.157 -0.3038  1.9750  1.7248
 1294SOL    HW2 8730   5.231   8.961   3.181  0.8320 -0.8517 -1.7366
 1295SOL     OW 8731   4.888   9.566   3.874 -0.0145  0.3393  0.2931
 1295SOL    HW1 8732   4.933   9.550   3.957 -0.9115 -1.4709  0.4973
 1295SOL    HW2 8733   4.918   9.652   3.846  1.6532  0.2461  1.6197
 1296SOL     OW 8734   0.278   0.394   1.580 -0.2824  0.4980  0.0716
 1296SOL    HW1 8735   0.345   0.448   1.620  1.2189 -0.9506 -0.3579
 1296SOL    HW2 8736   0.290   0.405   1.486  0.9531 -1.5081 -0.0747
 1297SOL     OW 8737   3.353   9.641   8.734  0.9050  0.4480 -0.2542
 1297SOL    HW1 8738   3.436   9.636   8.687 -0.0104  1.3995 -2.1044
 1297SOL    HW2 8739   3.287   9.642   8.664 -0.4934  2.9784  0.9957
 1298SOL     OW 8740   4.726   5.760   7.109 -0.1567 -0.6462 -0.1940
 1298SOL    HW1 8741   4.712   5.794   7.197 -0.6917  0.4321 -0.6803
 1298SOL    HW2 8742   4.776   5.680   7.123 -0.1325 -0.4406  1.0813
 1299SOL     OW 8743   2.564   6.205   9.534 -0.1002  0.2406  0.0558
 1299SOL    HW1 8744   2.532   6.271   9.596  0.8921 -1.2335  2.2911
 1299SOL    HW2 8745   2.621   6.149   9.587 -0.6989 -2.2769 -1.7902
 1300SOL     OW 8746   3.331   0.200   4.842 -0.4520 -0.5344 -0.4445
 1300SOL    HW1 8747   3.328   0.104   4.834  1.0228 -0.5302 -1.5028
 1300SOL    HW2 8748   3.292   0.231   4.760 -0.3508 -0.2250 -0.3734
 1301SOL     OW 8749   8.305   7.669   2.566 -0.1544 -0.0086  0.1410
 1301SOL    HW1 8750   8.257   7.747   2.590 -1.5084 -0.5649 -0.6377
 1301SOL    HW2 8751   8.311   7.672   2.470 -1.4245 -1.4976 -0.0231
 1302SOL     OW 8752   7.035   1.570   6.838  0.2228  0.3256  0.1738
 1302SOL    HW1 8753   7.111   1.574   6.781  1.3098 -0.3575  1.5178
 1302SOL    HW2 8754   6.962   1.601   6.784  1.2322 -0.1225 -1.4990
 1303SOL     OW 8755   8.437   8.411   4.595  0.0973  0.5038  0.0809
 1303SOL    HW1 8756   8.353   8.444   4.564 -1.2212 -1.3440  1.4257
 1303SOL    HW2 8757   8.445   8.445   4.684  0.3128 -0.0604  0.2827
 1304SOL     OW 8758   1.785   6.484   5.126 -0.3440 -0.0071  0.1082
 1304SOL    HW1 8759   1.739   6.485   5.211 -0.4861  1.4717  0.0303
 1304SOL    HW2 8760   1.717   6.461   5.063 -0.5802  0.4038  0.2120
 1305SOL     OW 8761   4.095   3.586   1.361 -0.1431 -0.0194  0.1299
 1305SOL    HW1 8762   4.072   3.678   1.368 -0.6801  0.0111 -1.7303
 1305SOL    HW2 8763   4.013   3.539   1.372  0.3190 -0.4080  2.4998
 1306SOL     OW 8764   2.773   3.996   3.372  0.6069 -0.1759 -0.5207
 1306SOL    HW1 8765   2.788   3.953   3.288  1.5550 -0.6942 -0.1042
 1306SOL    HW2 8766   2.710   3.940   3.418  1.9345 -1.2397  0.0733
 1307SOL     OW 8767   8.288   2.348   2.465 -0.1540  0.3096  0.0671
 1307SOL    HW1 8768   8.228   2.284   2.425 -0.1969  0.9376 -0.9008
 1307SOL    HW2 8769   8.354   2.364   2.398 -0.4690  1.7247  0.0602
 1308SOL     OW 8770   5.942   2.597   8.633  0.4078  0.4549 -0.4277
 1308SOL    HW1 8771   5.914   2.626   8.719  2.1566 -1.4680  0.8795
 1308SOL    HW2 8772   5.895   2.515   8.618 -0.0808  0.8997 -1.4519
 1309SOL     OW 8773   7.311   4.114   2.386 -0.1310 -0.3257  0.2400
 1309SOL    HW1 8774   7.350   4.065   2.459 -0.6327  0.5571  1.1332
 1309SOL    HW2 8775   7.244   4.055   2.351 -0.8831 -0.2367  1.4491
 1310SOL     OW 8776   4.503   3.982   6.111  0.2417  0.4231  0.1380
 1310SOL    HW1 8777   4.536   3.892   6.103  1.3149  0.5204  2.5546
 1310SOL    HW2 8778   4.567   4.035   6.064 -0.6262 -0.0555 -1.6771
 1311SOL     OW 8779   9.128   3.501   2.982  0.4022 -0.1996 -0.3117
 1311SOL    HW1 8780   9.172   3.423   3.017  0.4058  0.1312  0.4327
 1311SOL    HW2 8781   9.046   3.506   3.031 -1.5721 -2.0450 -3.1326
 1312SOL     OW 8782   7.306   1.551   3.469  0.3366  0.3753  0.3721
 1312SOL    HW1 8783   7.380   1.494   3.448 -0.3952 -0.6043  0.3887
 1312SOL    HW2 8784   7.256   1.557   3.387 -1.1089 -1.3418  1.0384
 1313SOL     OW 8785   0.548   3.426   1.580 -0.2841  0.1711  0.1424
 1313SOL    HW1 8786   0.600   3.499   1.613  0.2591 -0.3852  0.5299
 1313SOL    HW2 8787   0.603   3.387   1.512 -0.5229  0.0435  0.0216
 1314SOL     OW 8788   0.366   1.469   7.825 -0.0652  0.1767 -0.3221
 1314SOL    HW1 8789   0.426   1.438   7.758  0.7448 -0.6000  0.7179
 1314SOL    HW2 8790   0.405   1.439   7.907 -1.9558 -0.5058  0.3862
 1315SOL     OW 8791   2.810   9.669   2.507 -0.5840 -0.4013 -0.1521
 1315SOL    HW1 8792   2.752   9.630   2.441 -2.7576 -0.0558  1.4620
 1315SOL    HW2 8793   2.789   9.762   2.504  0.4185 -0.1584  0.0152
 1316SOL     OW 8794   0.805   2.773   3.806  0.0359 -0.3640  0.1089
 1316SOL    HW1 8795   0.846   2.835   3.745 -0.0838  1.0253  1.3622
 1316SOL    HW2 8796   0.711   2.784   3.792  0.0119 -0.1633  0.4115
 1317SOL     OW 8797   4.568   4.727   3.222  0.1993 -0.2918 -0.8057
 1317SOL    HW1 8798   4.506   4.720   3.150 -0.4942 -1.2594 -0.1432
 1317SOL    HW2 8799   4.537   4.801   3.274  0.9093  0.6354 -1.6721
 1318SOL     OW 8800   8.265   7.436   8.740 -0.5181 -0.3236 -0.7913
 1318SOL    HW1 8801   8.314   7.355   8.754 -1.6858 -0.8541  0.4889
 1318SOL    HW2 8802   8.330   7.505   8.752  0.0817 -1.0183  0.1160
 1319SOL     OW 8803   2.927   1.863   7.038  0.0609  0.1236  0.4630
 1319SOL    HW1 8804   2.913   1.823   6.952  0.5030  0.2597  0.3238
 1319SOL    HW2 8805   2.898   1.796   7.100  1.6026 -0.7850  0.2625
 1320SOL     OW 8806   4.037   3.812   5.817 -0.3339 -0.1826 -0.2760
 1320SOL    HW1 8807   3.968   3.780   5.875 -0.8010 -0.6788 -1.0764
 1320SOL    HW2 8808   4.102   3.851   5.875 -1.2160  0.1520  0.5086
 1321SOL     OW 8809   6.372   7.559   3.439  0.6885 -0.1442  0.0263
 1321SOL    HW1 8810   6.437   7.494   3.468  2.6980  0.3096 -3.0468
 1321SOL    HW2 8811   6.347   7.531   3.351 -1.0198  1.4329 -0.0539
 1322SOL     OW 8812   6.412   4.224   7.961 -0.1079 -0.2023  0.2095
 1322SOL    HW1 8813   6.370   4.142   7.936 -0.2534  0.3610 -1.4682
 1322SOL    HW2 8814   6.453   4.256   7.881  0.7956  0.8862  1.0632
 1323SOL     OW 8815   1.431   8.555   5.975  0.0201 -0.1060  0.1788
 1323SOL    HW1 8816   1.350   8.519   6.013 -0.0210 -0.5186 -0.2901
 1323SOL    HW2 8817   1.452   8.496   5.903  1.0518 -0.3224  0.6398
 1324SOL     OW 8818   5.784   0.904   5.298 -0.2655 -0.4033 -0.1228
 1324SOL    HW1 8819   5.701   0.858   5.310  0.0745 -0.9158  0.3175
 1324SOL    HW2 8820   5.766   0.994   5.324 -1.6141  0.3927 -3.3128
 1325SOL     OW 8821   0.606   3.044   8.295 -0.3794  0.1153  0.1155
 1325SOL    HW1 8822   0.590   3.034   8.201  0.9860 -0.3476 -0.0894
 1325SOL    HW2 8823   0.539   3.106   8.324 -1.5684 -0.6397 -0.9189
 1326SOL     OW 8824   7.719   0.063   3.709  0.4329 -1.1582  0.5313
 1326SOL    HW1 8825   7.807   0.098   3.691 -0.1976  0.0910 -0.2352
 1326SOL    HW2 8826   7.702   0.003   3.637 -0.4589  0.7707 -0.9324
 1327SOL     OW 8827   1.820   1.386   3.562  0.3239 -0.4205  0.0341
 1327SOL    HW1 8828   1.905   1.359   3.597 -0.3739 -0.2132  2.0284
 1327SOL    HW2 8829   1.841   1.452   3.496  1.6981 -0.2842  0.5698
 1328SOL     OW 8830   1.076   2.629   9.291  0.7813  0.1614  0.4133
 1328SOL    HW1 8831   1.141   2.699   9.296  2.4152 -0.9925 -2.3660
 1328SOL    HW2 8832   1.126   2.549   9.306 -0.2310 -0.6573 -0.4296
 1329SOL     OW 8833   3.716   3.329   5.973 -0.6764 -0.6424  0.4719
 1329SOL    HW1 8834   3.627   3.329   6.007 -0.5213 -3.1506  1.0739
 1329SOL    HW2 8835   3.758   3.254   6.015  2.3624  1.4908  1.7113
 1330SOL     OW 8836   8.093   5.701   0.808  0.0556  0.5081 -0.7844
 1330SOL    HW1 8837   8.106   5.729   0.718 -0.4409 -2.2339 -1.7916
 1330SOL    HW2 8838   7.999   5.683   0.815  0.0515  0.8782  0.3450
 1331SOL     OW 8839   2.167   4.067   8.701  0.1125  0.3899  0.0606
 1331SOL    HW1 8840   2.122   4.014   8.635 -0.9505 -0.3328  1.3090
 1331SOL    HW2 8841   2.109   4.064   8.777  2.5953 -1.1743  2.0395
 1332SOL     OW 8842   4.322   1.284   7.561 -0.4561  0.7907  0.5384
 1332SOL    HW1 8843   4.404   1.252   7.524 -1.1938 -2.2993  1.3299
 1332SOL    HW2 8844   4.343   1.372   7.593  2.5639  0.0669  0.8099
 1333SOL     OW 8845   8.069   1.460   1.716  0.3053 -0.7152  0.4351
 1333SOL    HW1 8846   8.040   1.479   1.805 -0.4143 -1.7795  0.4470
 1333SOL    HW2 8847   8.165   1.460   1.721  0.2917  0.2743  0.9665
 1334SOL     OW 8848   4.385   2.639   8.462  0.2513  0.3164 -0.2049
 1334SOL    HW1 8849   4.360   2.698   8.390 -0.0887 -0.8881 -1.1204
 1334SOL    HW2 8850   4.393   2.553   8.420 -0.5692 -0.5388  1.3100
 1335SOL     OW 8851   1.234   3.285   7.725 -0.0998  0.0757  0.6121
 1335SOL    HW1 8852   1.303   3.229   7.690 -0.5857 -0.8955  1.1683
 1335SOL    HW2 8853   1.164   3.224   7.750 -1.0123  1.0075  0.3896
 1336SOL     OW 8854   3.618   5.784   3.814  0.3692 -0.0941  0.6172
 1336SOL    HW1 8855   3.705   5.822   3.827 -0.0182  1.0343 -0.0224
 1336SOL    HW2 8856   3.584   5.826   3.736  0.3331 -2.5379 -0.7810
 1337SOL     OW 8857   2.286   9.083   0.993  0.2008  0.4277 -0.0852
 1337SOL    HW1 8858   2.334   9.145   0.938 -2.0447  2.2880 -0.1071
 1337SOL    HW2 8859   2.263   9.012   0.933  0.8214  0.7067 -0.6712
 1338SOL     OW 8860   8.781   3.062   4.734  0.1129  0.6398 -0.3847
 1338SOL    HW1 8861   8.743   3.002   4.798  0.7250  0.1186 -0.4973
 1338SOL    HW2 8862   8.709   3.083   4.675  0.3369 -1.6233 -1.5706
 1339SOL     OW 8863   6.555   5.179   1.968 -0.7260 -0.3641 -0.4289
 1339SOL    HW1 8864   6.528   5.242   1.901  0.4347 -0.0665 -0.6298
 1339SOL    HW2 8865   6.472   5.145   2.003 -1.3637 -0.5303 -1.9994
 1340SOL     OW 8866   3.568   1.617   9.698  0.5456 -0.4517  0.2460
 1340SOL    HW1 8867   3.534   1.533   9.727 -0.2485 -0.0253  0.5934
 1340SOL    HW2 8868   3.496   1.658   9.652  1.5605 -0.7910 -1.7370
 1341SOL     OW 8869   4.813   9.341   2.398  0.0758 -0.0015  0.4093
 1341SOL    HW1 8870   4.887   9.343   2.458  0.6756  1.5538 -0.3054
 1341SOL    HW2 8871   4.750   9.281   2.438  0.3010  1.2071  2.7532
 1342SOL     OW 8872   3.084   2.568   2.013 -0.1644 -0.4247  0.0281
 1342SOL    HW1 8873   3.053   2.639   1.956  0.3593  0.8025  1.2165
 1342SOL    HW2 8874   3.100   2.495   1.953 -1.0007  0.3518 -1.2024
 1343SOL     OW 8875   4.260   0.205   1.951  0.1377  0.4099 -0.4291
 1343SOL    HW1 8876   4.176   0.246   1.932 -0.2304 -0.5388 -0.8869
 1343SOL    HW2 8877   4.316   0.278   1.979 -0.9224  0.9994  0.2082
 1344SOL     OW 8878   1.088   9.066   7.532 -0.3113  0.3265 -0.4182
 1344SOL    HW1 8879   1.088   8.986   7.586  1.1156  0.9600  0.5938
 1344SOL    HW2 8880   1.048   9.132   7.587  0.3244  0.7643 -0.4673
 1345SOL     OW 8881   0.078   6.355   4.656  0.3689  0.2933  0.0019
 1345SOL    HW1 8882   0.116   6.423   4.601  0.9934  0.2191  0.3314
 1345SOL    HW2 8883   0.142   6.283   4.654 -0.1589 -0.1788 -0.1293
 1346SOL     OW 8884   6.198   9.054   6.005 -0.1401 -0.0441  0.3106
 1346SOL    HW1 8885   6.221   8.965   5.978 -0.1047  0.3000 -0.8728
 1346SOL    HW2 8886   6.103   9.052   6.015 -0.1178 -0.2653  0.4767
 1347SOL     OW 8887   6.131   5.092   1.533  0.3589 -0.7193  0.2150
 1347SOL    HW1 8888   6.041   5.073   1.561  0.3646 -1.9174 -0.5101
 1347SOL    HW2 8889   6.185   5.029   1.580  0.9672  0.6686  1.4412
 1348SOL     OW 8890   1.151   7.124   0.122 -0.0908 -0.2897 -0.1538
 1348SOL    HW1 8891   1.224   7.074   0.159 -0.4855 -0.2920  0.6338
 1348SOL    HW2 8892   1.072   7.080   0.154 -0.4700  1.4214  1.4354
 1349SOL     OW 8893   3.813   2.139   9.512 -0.1845 -0.2572  0.8268
 1349SOL    HW1 8894   3.758   2.214   9.531  0.2992  0.0046  1.2328
 1349SOL    HW2 8895   3.802   2.123   9.419  1.0803  1.4467  0.3531
 1350SOL     OW 8896   5.946   8.361   3.748  0.1457 -0.2767 -0.8604
 1350SOL    HW1 8897   6.001   8.284   3.737 -0.4647 -0.8666  0.0810
 1350SOL    HW2 8898   5.908   8.352   3.835  1.9685  2.3452  0.3321
 1351SOL     OW 8899   2.150   0.531   7.614  0.5894 -0.3678 -0.1590
 1351SOL    HW1 8900   2.243   0.553   7.618  0.9022 -1.5276 -0.5672
 1351SOL    HW2 8901   2.105   0.615   7.608  1.5360  0.2785  1.2266
 1352SOL     OW 8902   5.024   4.480   7.353  0.3156  0.7377 -0.2084
 1352SOL    HW1 8903   4.939   4.473   7.396  0.7498 -2.1512  0.3701
 1352SOL    HW2 8904   5.072   4.545   7.404  0.3627 -1.6268  3.0359
 1353SOL     OW 8905   8.875   4.588   6.856  0.3061  0.2094  0.1655
 1353SOL    HW1 8906   8.803   4.547   6.808  0.4101 -0.3546  0.4849
 1353SOL    HW2 8907   8.859   4.682   6.847 -0.6311  0.0878  0.4731
 1354SOL     OW 8908   4.460   8.208   5.738  0.0575 -0.2818 -0.1820
 1354SOL    HW1 8909   4.409   8.164   5.670 -0.4055  0.6016 -0.4195
 1354SOL    HW2 8910   4.458   8.300   5.714  1.8490 -0.2149 -0.2410
 1355SOL     OW 8911   4.051   4.962   7.160 -0.2813  0.3950 -0.0013
 1355SOL    HW1 8912   4.146   4.961   7.169 -0.2412  0.9363 -0.2800
 1355SOL    HW2 8913   4.023   5.036   7.214 -0.5590  0.1491  0.1952
 1356SOL     OW 8914   6.755   1.014   5.630  0.1802 -0.1870  0.4118
 1356SOL    HW1 8915   6.725   0.937   5.679 -0.5192  0.3969  0.9143
 1356SOL    HW2 8916   6.687   1.030   5.565  1.8187 -1.9196 -1.9349
 1357SOL     OW 8917   3.150   9.678   7.837  0.0609  0.0523  0.4816
 1357SOL    HW1 8918   3.055   9.688   7.841  0.0463 -0.4145  1.7394
 1357SOL    HW2 8919   3.175   9.722   7.756 -1.2638 -0.1226 -0.0594
 1358SOL     OW 8920   1.818   6.100   6.462 -0.1212  0.1851 -0.2040
 1358SOL    HW1 8921   1.787   6.117   6.551  1.0916 -1.4439  0.5790
 1358SOL    HW2 8922   1.754   6.039   6.426  0.3304 -0.5475  0.2095
 1359SOL     OW 8923   9.407   1.752   7.112  0.5568  0.6422 -0.2167
 1359SOL    HW1 8924   9.435   1.663   7.092 -0.1240  0.4678 -0.4329
 1359SOL    HW2 8925   9.472   1.808   7.068 -0.0472  0.2552 -1.6834
 1360SOL     OW 8926   0.118   5.843   3.073  0.5220  0.2323  0.5748
 1360SOL    HW1 8927   0.197   5.797   3.100  1.7718  1.8002 -0.2234
 1360SOL    HW2 8928   0.144   5.890   2.994 -1.1427  1.0128  0.4493
 1361SOL     OW 8929   3.389   0.523   4.560 -0.6142  0.2381  0.2310
 1361SOL    HW1 8930   3.371   0.430   4.543 -0.4588  0.4921 -1.5041
 1361SOL    HW2 8931   3.303   0.565   4.556 -0.4096  0.5851 -2.1639
 1362SOL     OW 8932   7.629   2.650   0.529  0.5680  0.1424  0.7965
 1362SOL    HW1 8933   7.551   2.604   0.498 -1.0019  2.8276  0.4373
 1362SOL    HW2 8934   7.619   2.653   0.624  0.9749 -0.7165  0.8724
 1363SOL     OW 8935   1.605   8.720   9.380 -0.2676 -0.4993 -0.1260
 1363SOL    HW1 8936   1.611   8.790   9.445  0.3348  1.0914 -1.8151
 1363SOL    HW2 8937   1.511   8.700   9.375 -0.1736 -2.1665  2.6766
 1364SOL     OW 8938   8.540   0.575   4.728 -0.5517  0.6134  0.2184
 1364SOL    HW1 8939   8.537   0.609   4.818  1.0085  0.6461  0.2878
 1364SOL    HW2 8940   8.549   0.481   4.738  0.9954  0.7328  0.1449
 1365SOL     OW 8941   4.849   1.212   1.062  0.0210 -0.0958 -0.0495
 1365SOL    HW1 8942   4.821   1.272   0.992 -0.5939  0.3539  0.5653
 1365SOL    HW2 8943   4.912   1.263   1.113  0.0367 -0.2232  0.0591
 1366SOL     OW 8944   9.089   2.976   0.247  0.0793  0.0074 -0.0868
 1366SOL    HW1 8945   9.184   2.968   0.258  0.1332 -0.3413 -0.7579
 1366SOL    HW2 8946   9.077   3.002   0.155 -0.4933 -0.4335 -0.1437
 1367SOL     OW 8947   8.958   8.250   8.531 -0.0780 -0.3653  0.7491
 1367SOL    HW1 8948   8.917   8.249   8.618  1.3115  1.8934  1.5270
 1367SOL    HW2 8949   9.000   8.336   8.526  1.8825 -1.3510 -1.2383
 1368SOL     OW 8950   7.249   0.024   9.037  0.0256  0.0888 -0.3877
 1368SOL    HW1 8951   7.231   0.081   9.111  2.4418  0.5960 -0.1116
 1368SOL    HW2 8952   7.287   0.082   8.971  2.4677 -1.1106 -0.1310
 1369SOL     OW 8953   6.410   3.637   2.009  0.2785 -0.1784 -0.1608
 1369SOL    HW1 8954   6.322   3.654   1.975  0.2044  0.3141  0.2710
 1369SOL    HW2 8955   6.468   3.685   1.950  0.0631  1.8283  1.1402
 1370SOL     OW 8956   6.189   7.093   1.465  0.0423 -0.2584 -0.1156
 1370SOL    HW1 8957   6.191   7.133   1.378 -0.0261  1.7014  0.7371
 1370SOL    HW2 8958   6.103   7.049   1.470  0.2640 -0.8514 -1.1955
 1371SOL     OW 8959   1.357   9.383   5.187  0.1357  0.1686 -0.0675
 1371SOL    HW1 8960   1.450   9.406   5.185  0.5881 -1.5203  0.2000
 1371SOL    HW2 8961   1.349   9.310   5.126 -0.7171 -0.7129  1.0705
 1372SOL     OW 8962   6.600   6.487   5.765  0.4083  0.1385 -0.3942
 1372SOL    HW1 8963   6.540   6.436   5.711  0.1882 -0.6810  0.5765
 1372SOL    HW2 8964   6.684   6.481   5.720  0.3721 -1.0632 -0.3523
 1373SOL     OW 8965   7.701   6.843   8.020 -0.2953  0.3048  0.0276
 1373SOL    HW1 8966   7.792   6.847   8.050  0.0889  0.6451 -1.1289
 1373SOL    HW2 8967   7.687   6.929   7.979 -0.5674 -0.3914 -1.3661
 1374SOL     OW 8968   0.188   0.356   5.346 -0.1060  0.9216  0.3686
 1374SOL    HW1 8969   0.237   0.372   5.427 -0.0337  1.5243  0.2101
 1374SOL    HW2 8970   0.215   0.269   5.318  1.3173  1.4722 -0.0257
 1375SOL     OW 8971   1.039   1.823   0.599  0.3437  0.1875  0.0612
 1375SOL    HW1 8972   0.954   1.812   0.557  1.3097  0.4232 -2.1029
 1375SOL    HW2 8973   1.026   1.791   0.688 -1.2556 -2.5581 -1.0443
 1376SOL     OW 8974   1.189   4.769   8.518 -0.1455  0.3258 -0.6105
 1376SOL    HW1 8975   1.103   4.795   8.554  0.4451  1.5359 -0.0105
 1376SOL    HW2 8976   1.240   4.850   8.520  0.4666  0.0261 -2.6244
 1377SOL     OW 8977   2.912   0.789   1.907  0.7555  0.6229 -0.5135
 1377SOL    HW1 8978   2.917   0.721   1.839  0.8698 -0.0418  0.1433
 1377SOL    HW2 8979   3.001   0.793   1.943 -0.0463 -1.6675  2.0688
 1378SOL     OW 8980   1.850   2.273   0.688 -0.1536  0.0556 -0.0745
 1378SOL    HW1 8981   1.911   2.336   0.725 -0.1694  0.3871 -0.6084
 1378SOL    HW2 8982   1.764   2.316   0.694 -0.0070  0.6171 -1.5665
 1379SOL     OW 8983   3.356   4.655   5.863 -0.9900  0.6460 -0.8548
 1379SOL    HW1 8984   3.316   4.681   5.780 -1.5185 -3.2690 -2.0109
 1379SOL    HW2 8985   3.285   4.611   5.910 -0.8245  3.1009  2.0172
 1380SOL     OW 8986   9.236   8.947   1.790 -0.3545  0.0978 -0.3264
 1380SOL    HW1 8987   9.269   8.869   1.747 -1.7654 -0.9332  0.4006
 1380SOL    HW2 8988   9.309   9.010   1.785  0.8657 -1.3031 -0.7723
 1381SOL     OW 8989   2.816   5.487   5.760  0.4308  0.3774  0.1971
 1381SOL    HW1 8990   2.836   5.435   5.838 -0.8083 -0.2895  0.1012
 1381SOL    HW2 8991   2.722   5.504   5.766 -0.2659 -1.8137 -2.3573
 1382SOL     OW 8992   1.308   2.851   2.727  0.1861 -0.2294 -0.4266
 1382SOL    HW1 8993   1.292   2.765   2.687 -1.8984  0.0736 -0.3281
 1382SOL    HW2 8994   1.263   2.847   2.811  0.0736  0.9594 -0.4186
 1383SOL     OW 8995   4.415   6.557   2.285 -0.0211  0.6812  0.0282
 1383SOL    HW1 8996   4.368   6.510   2.216  0.3918 -1.9625  1.4319
 1383SOL    HW2 8997   4.507   6.556   2.257 -0.0142  0.6578  0.0518
 1384SOL     OW 8998   6.683   3.055   4.266 -0.6811  0.1905 -0.5758
 1384SOL    HW1 8999   6.733   3.136   4.277 -0.6435  0.0440  0.4060
 1384SOL    HW2 9000   6.738   2.999   4.213 -0.3412  0.4953 -0.5468
 1385SOL     OW 9001   6.627   6.107   9.057 -0.2092 -0.1796  0.0087
 1385SOL    HW1 9002   6.553   6.151   9.099  0.3937  0.9154 -0.0437
 1385SOL    HW2 9003   6.653   6.166   8.986  0.8368 -0.4564  0.1483
 1386SOL     OW 9004   0.335   6.858   5.100  0.2036 -0.8689 -0.0216
 1386SOL    HW1 9005   0.381   6.784   5.140  1.9665  1.3658  2.4001
 1386SOL    HW2 9006   0.312   6.914   5.174 -0.5359  1.3051 -1.8045
 1387SOL     OW 9007   3.153   0.657   3.439  0.0994 -0.3317  0.4551
 1387SOL    HW1 9008   3.191   0.743   3.421 -0.6587 -0.1672 -0.4469
 1387SOL    HW2 9009   3.214   0.595   3.398  1.6950 -0.4001  2.7741
 1388SOL     OW 9010   2.825   7.786   8.558  0.0330 -0.3363 -0.6522
 1388SOL    HW1 9011   2.852   7.877   8.570 -0.6263 -0.2729  0.5162
 1388SOL    HW2 9012   2.772   7.787   8.478 -0.9047  0.5348 -0.0429
 1389SOL     OW 9013   1.004   8.840   5.221  0.0682 -0.0962  0.1562
 1389SOL    HW1 9014   0.930   8.898   5.203 -0.2935 -0.6417 -0.1787
 1389SOL    HW2 9015   1.013   8.840   5.316 -1.9716 -1.9152  0.4558
 1390SOL     OW 9016   0.099   2.841   1.796  0.4085 -0.7087  0.5998
 1390SOL    HW1 9017   0.018   2.839   1.845  0.3516  0.7512  0.6210
 1390SOL    HW2 9018   0.112   2.934   1.774  2.4887 -0.7567  1.3224
 1391SOL     OW 9019   2.788   7.480   7.198 -0.5079  0.4384 -0.3134
 1391SOL    HW1 9020   2.820   7.489   7.108 -1.2247 -0.4821 -0.6734
 1391SOL    HW2 9021   2.698   7.448   7.188 -0.1359 -1.0226  0.7398
 1392SOL     OW 9022   1.531   7.402   2.094 -0.3254  0.0459  0.4995
 1392SOL    HW1 9023   1.618   7.395   2.134 -0.0441 -0.5604 -0.1913
 1392SOL    HW2 9024   1.543   7.368   2.005 -1.5881 -1.4964  0.8651
 1393SOL     OW 9025   1.336   8.778   6.949  0.2458 -0.1773 -0.0298
 1393SOL    HW1 9026   1.358   8.868   6.974  1.5769  0.2947 -2.5311
 1393SOL    HW2 9027   1.392   8.723   7.003  0.5446  0.5902  0.4491
 1394SOL     OW 9028   3.542   8.974   7.544 -0.2127  0.5257  0.6087
 1394SOL    HW1 9029   3.501   9.058   7.566 -1.5953  0.5156 -1.6220
 1394SOL    HW2 9030   3.471   8.921   7.507  1.4074 -0.1276 -1.8308
 1395SOL     OW 9031   4.031   9.413   5.206  0.2155  0.1106 -0.1530
 1395SOL    HW1 9032   3.960   9.359   5.240  0.7270 -1.1914 -1.0586
 1395SOL    HW2 9033   4.092   9.422   5.279 -0.4999  0.5748  0.3932
 1396SOL     OW 9034   4.258   1.172   8.290  0.0814 -0.1992  0.1462
 1396SOL    HW1 9035   4.345   1.211   8.296  0.6017 -1.3492  0.3187
 1396SOL    HW2 9036   4.201   1.244   8.265  0.6926  1.0988  2.2549
 1397SOL     OW 9037   6.038   8.007   6.275  0.9477 -0.1544  0.5975
 1397SOL    HW1 9038   5.963   8.063   6.254 -0.1302 -0.7985  2.4227
 1397SOL    HW2 9039   6.077   8.048   6.352  1.0675 -1.0572  1.0286
 1398SOL     OW 9040   0.483   1.948   5.548 -0.8378 -0.0239  0.5790
 1398SOL    HW1 9041   0.517   1.863   5.575  0.6314  0.2378 -0.3359
 1398SOL    HW2 9042   0.415   1.928   5.484  0.1594 -0.5163 -0.3504
 1399SOL     OW 9043   9.638   6.376   8.040  0.1153  0.1194  0.2173
 1399SOL    HW1 9044   9.602   6.304   7.988 -0.0244 -0.2217  0.7833
 1399SOL    HW2 9045   9.732   6.357   8.045  0.2519  0.5686 -0.5630
 1400SOL     OW 9046   5.512   7.565   7.788  0.4038  0.6647  0.3890
 1400SOL    HW1 9047   5.535   7.589   7.878 -0.4650  1.4543  0.4176
 1400SOL    HW2 9048   5.527   7.644   7.737  1.1334  0.1501 -0.2266
 1401SOL     OW 9049   3.548   4.929   3.642 -0.3703  0.0291  0.2585
 1401SOL    HW1 9050   3.638   4.961   3.650 -0.1913 -0.4086 -0.0064
 1401SOL    HW2 9051   3.502   4.997   3.593 -0.5331  0.9226  1.5852
 1402SOL     OW 9052   3.450   1.983   4.209  0.0149 -0.7265 -0.0367
 1402SOL    HW1 9053   3.380   2.047   4.213  1.4623  0.9976 -0.8922
 1402SOL    HW2 9054   3.530   2.034   4.222  1.1191 -2.7392  1.9404
 1403SOL     OW 9055   6.142   9.606   7.958 -0.2233  0.7896  0.0512
 1403SOL    HW1 9056   6.164   9.564   7.875 -0.0811 -0.2412  0.6019
 1403SOL    HW2 9057   6.068   9.663   7.937  0.0585  0.8257 -0.8591
 1404SOL     OW 9058   9.640   1.201   5.091  0.0776 -0.9772 -0.4229
 1404SOL    HW1 9059   9.548   1.228   5.092  0.2705 -0.3080 -0.3379
 1404SOL    HW2 9060   9.653   1.158   5.176  0.2400  0.3383  0.2525
 1405SOL     OW 9061   5.701   7.408   6.438 -0.5279  0.3614  0.3364
 1405SOL    HW1 9062   5.653   7.418   6.356  0.2951  1.0332 -0.0745
 1405SOL    HW2 9063   5.685   7.317   6.464 -2.2169  0.6367  0.3417
 1406SOL     OW 9064   4.534   4.166   1.669 -0.2479  0.1253 -0.6215
 1406SOL    HW1 9065   4.571   4.242   1.624  1.4775 -0.3923 -0.1468
 1406SOL    HW2 9066   4.439   4.176   1.658  0.0237  0.5169 -3.5575
 1407SOL     OW 9067   9.289   4.539   5.468 -0.2301 -0.7030 -0.2123
 1407SOL    HW1 9068   9.367   4.572   5.512  0.8240 -1.5731 -1.3623
 1407SOL    HW2 9069   9.322   4.483   5.398 -1.8946 -1.8104 -0.1847
 1408SOL     OW 9070   1.299   6.616   8.418 -0.1013 -0.3337  0.1543
 1408SOL    HW1 9071   1.341   6.535   8.447 -1.9227 -0.4424  2.8401
 1408SOL    HW2 9072   1.251   6.590   8.339 -1.2558 -2.1508  1.3627
 1409SOL     OW 9073   0.726   9.025   2.982  0.5698  0.1881  0.5714
 1409SOL    HW1 9074   0.758   9.115   2.991  0.1043  0.5627 -1.1558
 1409SOL    HW2 9075   0.635   9.035   2.953  0.6153 -0.8200  0.0425
 1410SOL     OW 9076   1.653   0.820   1.807 -0.5962  0.1736 -0.1243
 1410SOL    HW1 9077   1.593   0.890   1.831 -0.9906 -0.0069 -0.5783
 1410SOL    HW2 9078   1.621   0.743   1.855 -0.4873  0.1757 -0.0483
 1411SOL     OW 9079   8.363   6.187   0.831  0.1137 -0.0795  0.1163
 1411SOL    HW1 9080   8.306   6.175   0.907  0.8969  0.3624  0.7860
 1411SOL    HW2 9081   8.370   6.099   0.793  1.6786 -0.8647  2.0049
 1412SOL     OW 9082   2.343   4.311   0.885 -0.0639  0.8647 -0.1188
 1412SOL    HW1 9083   2.306   4.307   0.973  1.6092 -0.5756  0.5822
 1412SOL    HW2 9084   2.436   4.329   0.899  0.3001  0.2622 -1.5660
 1413SOL     OW 9085   3.578   3.999   4.365  0.3994 -0.3382  0.3359
 1413SOL    HW1 9086   3.663   4.041   4.352  0.8201 -0.7726  1.5482
 1413SOL    HW2 9087   3.594   3.906   4.350  0.1688 -0.4329  0.6469
 1414SOL     OW 9088   5.371   0.531   5.592 -0.2940  0.9047  0.0901
 1414SOL    HW1 9089   5.303   0.467   5.613 -0.0146  0.0808 -1.3409
 1414SOL    HW2 9090   5.360   0.547   5.498  1.9749  0.0943 -0.3888
 1415SOL     OW 9091   1.219   6.715   5.050 -0.2635 -0.1626 -0.4127
 1415SOL    HW1 9092   1.137   6.749   5.013 -1.1255  1.1101  2.3343
 1415SOL    HW2 9093   1.254   6.657   4.983 -2.3298  0.8943 -2.5503
 1416SOL     OW 9094   6.903   5.353   8.551 -0.3863  0.1114  0.2990
 1416SOL    HW1 9095   6.887   5.260   8.535  1.7912 -0.5191  1.4186
 1416SOL    HW2 9096   6.883   5.365   8.644 -0.1416  0.6547  0.2863
 1417SOL     OW 9097   1.992   1.171   9.750 -0.8608  0.3959 -0.1507
 1417SOL    HW1 9098   1.969   1.110   9.821  0.2337  0.5383  0.3373
 1417SOL    HW2 9099   1.908   1.195   9.712 -1.3139 -1.9553 -0.8102
 1418SOL     OW 9100   9.508   6.207   7.868  0.3852  0.5650  0.0030
 1418SOL    HW1 9101   9.415   6.211   7.845  0.7114  1.0778 -1.3247
 1418SOL    HW2 9102   9.517   6.126   7.918 -0.1364 -1.5654 -3.0774
 1419SOL     OW 9103   2.499   8.093   6.548 -0.4041  0.1818  0.1297
 1419SOL    HW1 9104   2.520   8.002   6.571 -2.8894 -0.8362 -1.2301
 1419SOL    HW2 9105   2.578   8.142   6.571  0.9210 -2.2505  1.1984
 1420SOL     OW 9106   6.126   0.785   1.944 -0.2591 -0.1022 -0.0538
 1420SOL    HW1 9107   6.189   0.759   2.011  1.2415  0.4979 -1.1710
 1420SOL    HW2 9108   6.142   0.725   1.871  0.2033  1.1099 -0.9784
 1421SOL     OW 9109   0.886   0.769   9.149 -0.2618 -0.1278 -0.0818
 1421SOL    HW1 9110   0.959   0.731   9.100  0.4401  0.9148  0.1245
 1421SOL    HW2 9111   0.898   0.737   9.238 -2.1128 -2.8591 -0.6862
 1422SOL     OW 9112   2.126   7.122   7.654 -0.0299  0.3422  0.4059
 1422SOL    HW1 9113   2.208   7.168   7.639  0.0160  0.6711  1.6127
 1422SOL    HW2 9114   2.092   7.105   7.566  1.1951  0.4250 -0.1039
 1423SOL     OW 9115   6.699   6.013   6.725  0.0618  0.2728  0.3351
 1423SOL    HW1 9116   6.711   5.919   6.715 -0.5027  0.3380 -1.3916
 1423SOL    HW2 9117   6.785   6.046   6.750  0.9101 -0.4367 -1.4767
 1424SOL     OW 9118   0.273   6.232   2.668 -0.1298  1.2402  0.7109
 1424SOL    HW1 9119   0.184   6.199   2.682  0.1239  1.2935  2.7848
 1424SOL    HW2 9120   0.264   6.327   2.664 -0.2905  1.1888 -0.2767
 1425SOL     OW 9121   8.515   0.693   0.516  0.6041 -0.1461  0.3611
 1425SOL    HW1 9122   8.428   0.734   0.514  0.1047 -1.1848 -0.4814
 1425SOL    HW2 9123   8.573   0.756   0.473  0.0421  0.0902 -0.0681
 1426SOL     OW 9124   4.923   2.186   8.439  0.4060  0.2277 -0.5485
 1426SOL    HW1 9125   4.949   2.115   8.497  0.8477 -0.4810 -1.5877
 1426SOL    HW2 9126   4.928   2.265   8.494  1.9961 -0.2497  0.0505
 1427SOL     OW 9127   1.841   2.691   3.925  0.4968  0.0056 -0.1612
 1427SOL    HW1 9128   1.911   2.697   3.860  1.0200 -1.2726  0.2540
 1427SOL    HW2 9129   1.765   2.660   3.876  0.7203 -0.3564 -0.2796
 1428SOL     OW 9130   2.877   7.573   9.736 -0.5593 -0.5270 -0.1398
 1428SOL    HW1 9131   2.787   7.584   9.764 -0.6957  0.3276 -0.8335
 1428SOL    HW2 9132   2.875   7.591   9.641  0.2986 -0.6802 -0.1998
 1429SOL     OW 9133   9.230   4.478   9.735 -0.1455  0.3553 -0.7341
 1429SOL    HW1 9134   9.170   4.551   9.724  0.5511  0.9290 -0.8043
 1429SOL    HW2 9135   9.264   4.461   9.647  0.2437  0.4374 -0.6043
 1430SOL     OW 9136   1.738   6.537   1.423  0.5591 -0.3444  0.3383
 1430SOL    HW1 9137   1.680   6.530   1.500  1.8359 -2.4887  1.1760
 1430SOL    HW2 9138   1.817   6.580   1.457 -0.2702  2.2845 -0.7338
 1431SOL     OW 9139   7.640   4.313   5.949  0.0263 -0.3671  0.2076
 1431SOL    HW1 9140   7.659   4.399   5.911  1.0470 -1.4642 -1.9565
 1431SOL    HW2 9141   7.605   4.332   6.036 -1.8662  2.3082 -1.0076
 1432SOL     OW 9142   4.357   9.384   6.553  0.2811 -0.4601 -0.3691
 1432SOL    HW1 9143   4.367   9.335   6.472 -0.3917 -1.7518  0.3076
 1432SOL    HW2 9144   4.289   9.338   6.602 -1.4908  2.0020 -0.3230
 1433SOL     OW 9145   8.640   8.830   8.782 -0.5106 -0.0851 -0.5135
 1433SOL    HW1 9146   8.684   8.745   8.787 -0.0180  0.2417  1.3720
 1433SOL    HW2 9147   8.550   8.808   8.758 -0.2965 -1.1140 -0.4449
 1434SOL     OW 9148   2.858   2.507   8.741  0.4604  0.6786  0.0158
 1434SOL    HW1 9149   2.929   2.444   8.757  0.3299  0.5442  0.0657
 1434SOL    HW2 9150   2.778   2.460   8.767  0.1762  0.2291 -1.5646
 1435SOL     OW 9151   6.870   7.692   8.209  0.2184  0.0555  0.2808
 1435SOL    HW1 9152   6.857   7.763   8.273 -0.4926 -0.4881  0.7580
 1435SOL    HW2 9153   6.952   7.714   8.165 -1.1875  2.5373 -1.3324
 1436SOL     OW 9154   1.279   3.383   3.129  0.0896 -0.5144 -0.6022
 1436SOL    HW1 9155   1.351   3.384   3.192  0.1828 -2.2872 -0.6441
 1436SOL    HW2 9156   1.200   3.391   3.181  0.1561 -2.1565 -0.2076
 1437SOL     OW 9157   6.620   4.656   6.199  0.5423  0.0753 -0.5710
 1437SOL    HW1 9158   6.635   4.679   6.290  1.3785  2.5244 -1.2440
 1437SOL    HW2 9159   6.566   4.577   6.202  1.2786 -0.4079  2.0040
 1438SOL     OW 9160   1.119   4.240   7.861 -0.4797  0.2516  0.5312
 1438SOL    HW1 9161   1.090   4.324   7.896  0.8039  0.1800  1.8883
 1438SOL    HW2 9162   1.062   4.224   7.786 -1.7651  1.5794  1.1731
 1439SOL     OW 9163   9.042   6.090   0.399 -0.5251 -0.4794  0.4936
 1439SOL    HW1 9164   9.097   6.094   0.321 -1.5195  0.6153 -0.1719
 1439SOL    HW2 9165   9.090   6.031   0.458  0.8409 -0.3764 -0.4508
 1440SOL     OW 9166   7.698   0.613   4.457 -0.0697 -0.1046  0.1398
 1440SOL    HW1 9167   7.609   0.619   4.422  0.0249  0.5656  0.0010
 1440SOL    HW2 9168   7.704   0.525   4.494 -1.3336  0.4113  1.6303
 1441SOL     OW 9169   2.072   2.503   8.816  0.5290  0.0776 -0.1952
 1441SOL    HW1 9170   2.051   2.573   8.878  2.6151  2.2400 -1.7524
 1441SOL    HW2 9171   2.150   2.461   8.854 -0.3739 -1.0707  0.4405
 1442SOL     OW 9172   8.018   7.917   7.539 -0.8751  0.4765  0.1070
 1442SOL    HW1 9173   7.995   8.008   7.558 -1.1356  0.6334 -0.8876
 1442SOL    HW2 9174   7.956   7.865   7.589 -1.9437  0.8756 -0.7795
 1443SOL     OW 9175   0.171   1.640   3.164  0.6716  0.5573 -0.1589
 1443SOL    HW1 9176   0.090   1.690   3.151  0.6588  0.2381 -1.5593
 1443SOL    HW2 9177   0.192   1.651   3.256 -1.5533 -0.2062  0.5114
 1444SOL     OW 9178   1.428   0.815   5.010 -0.2721 -0.5142 -0.3806
 1444SOL    HW1 9179   1.469   0.750   5.067  1.1566 -0.3927 -1.2282
 1444SOL    HW2 9180   1.496   0.880   4.995 -1.1796  0.3518 -0.8513
 1445SOL     OW 9181   6.401   0.391   8.637  0.1166  0.2764 -0.9689
 1445SOL    HW1 9182   6.459   0.415   8.709  1.1603  1.1383 -2.0642
 1445SOL    HW2 9183   6.313   0.399   8.673  0.5268  2.7742 -0.3630
 1446SOL     OW 9184   1.882   3.773   9.441  0.6355  0.1013 -0.3511
 1446SOL    HW1 9185   1.943   3.794   9.370 -0.9249 -1.4183 -2.2184
 1446SOL    HW2 9186   1.885   3.678   9.448  0.4823  0.1875  1.4377
 1447SOL     OW 9187   0.896   7.706   1.674 -0.0880  0.9561 -0.4421
 1447SOL    HW1 9188   0.965   7.640   1.665 -2.1245 -1.5608  0.8646
 1447SOL    HW2 9189   0.832   7.682   1.607 -0.3660  2.3457 -0.6938
 1448SOL     OW 9190   8.714   2.106   1.396  0.2118  0.8518 -0.0672
 1448SOL    HW1 9191   8.765   2.185   1.411  2.0273 -0.3424  0.3501
 1448SOL    HW2 9192   8.646   2.107   1.463  1.1676  1.3002  0.9105
 1449SOL     OW 9193   0.059   8.991   1.929  0.4378  0.0423 -0.3119
 1449SOL    HW1 9194   0.004   8.955   1.859 -0.3841 -0.5230  0.5916
 1449SOL    HW2 9195  -0.003   9.015   1.998  1.2503  0.3771  0.3127
 1450SOL     OW 9196   2.991   0.730   7.495  0.5382  0.4155 -0.0432
 1450SOL    HW1 9197   2.897   0.710   7.492  0.5472  0.2448  0.6340
 1450SOL    HW2 9198   3.025   0.698   7.411 -0.0725  0.8332 -0.4618
 1451SOL     OW 9199   2.334   6.419   4.361 -0.0529  0.1635  0.5022
 1451SOL    HW1 9200   2.282   6.348   4.324  0.5605 -0.1957  0.3224
 1451SOL    HW2 9201   2.290   6.440   4.444 -1.5834  1.1475 -0.4952
 1452SOL     OW 9202   2.909   7.973   3.928  0.3041  0.2085 -0.2505
 1452SOL    HW1 9203   2.929   8.037   3.859  1.5298 -0.4677 -0.5512
 1452SOL    HW2 9204   2.968   7.900   3.910 -0.2463 -0.5051  0.7933
 1453SOL     OW 9205   4.141   5.937   3.735  0.1856 -0.1284 -0.5637
 1453SOL    HW1 9206   4.203   5.922   3.806 -1.4097 -0.5402  0.8303
 1453SOL    HW2 9207   4.160   5.869   3.670  1.2033 -0.2009 -0.1939
 1454SOL     OW 9208   8.470   5.437   5.401 -0.6110  0.0329  0.3398
 1454SOL    HW1 9209   8.467   5.503   5.470 -1.8479  0.1768  0.1585
 1454SOL    HW2 9210   8.550   5.458   5.352  0.4722 -0.2727  1.8937
 1455SOL     OW 9211   2.544   8.097   4.438 -0.4009 -0.1345  0.0926
 1455SOL    HW1 9212   2.500   8.015   4.416 -0.5815  0.2613 -1.1423
 1455SOL    HW2 9213   2.607   8.110   4.367 -0.9183  1.1691 -0.1585
 1456SOL     OW 9214   4.612   1.665   9.457 -0.3649  0.1387  0.2213
 1456SOL    HW1 9215   4.662   1.583   9.458 -1.6831 -0.7418 -1.3330
 1456SOL    HW2 9216   4.665   1.726   9.509  0.3693 -1.8467  1.9614
 1457SOL     OW 9217   0.352   7.703   4.252  0.0455  0.0650  0.1285
 1457SOL    HW1 9218   0.327   7.662   4.335 -0.0013 -1.0203 -0.4029
 1457SOL    HW2 9219   0.361   7.796   4.273  0.4330 -0.2415  1.4416
 1458SOL     OW 9220   3.931   7.280   5.261 -0.3371  0.1952 -0.6182
 1458SOL    HW1 9221   3.950   7.225   5.337  1.6520  0.6101 -0.7655
 1458SOL    HW2 9222   3.850   7.325   5.284  0.0750  0.1068  1.1336
 1459SOL     OW 9223   0.169   9.031   0.344  0.3756  0.0438  0.7550
 1459SOL    HW1 9224   0.108   9.105   0.333  0.6486  0.4549  1.8817
 1459SOL    HW2 9225   0.191   9.032   0.437  0.5513 -1.3411  0.7497
 1460SOL     OW 9226   1.829   3.553   8.241  0.4312  0.1028 -0.3427
 1460SOL    HW1 9227   1.901   3.617   8.241 -0.3519  0.9971 -0.7789
 1460SOL    HW2 9228   1.874   3.468   8.245  1.5157  0.6397 -0.6003
 1461SOL     OW 9229   3.727   9.046   5.602  0.0592 -0.2631 -0.1348
 1461SOL    HW1 9230   3.733   9.013   5.512 -3.4177  0.4877 -0.7700
 1461SOL    HW2 9231   3.655   9.109   5.600 -0.5071 -0.6285  3.2875
 1462SOL     OW 9232   4.293   6.771   1.267 -0.2495 -0.3446  0.2865
 1462SOL    HW1 9233   4.202   6.757   1.289 -0.4473 -0.1339 -0.3584
 1462SOL    HW2 9234   4.325   6.834   1.332  0.9109 -4.1543  3.8442
 1463SOL     OW 9235   5.985   3.640   0.532  0.4350 -0.3216 -0.2423
 1463SOL    HW1 9236   5.913   3.703   0.535 -0.3137 -1.1708  1.2369
 1463SOL    HW2 9237   5.942   3.555   0.544  1.5943 -0.9439 -0.3587
 1464SOL     OW 9238   4.385   9.223   1.012 -0.6502 -0.1431 -0.0493
 1464SOL    HW1 9239   4.329   9.283   0.962 -0.8659 -0.4070 -0.1258
 1464SOL    HW2 9240   4.323   9.166   1.059 -0.4475 -0.1702  0.1877
 1465SOL     OW 9241   8.704   2.185   0.279  0.1752 -0.0863  0.4103
 1465SOL    HW1 9242   8.746   2.268   0.302  2.1060 -0.5856 -1.0498
 1465SOL    HW2 9243   8.721   2.128   0.354 -0.5829  0.6026  1.1301
 1466SOL     OW 9244   3.639   6.716   1.896  0.2349  0.1560  0.8675
 1466SOL    HW1 9245   3.696   6.733   1.822 -0.2029 -0.0791  0.4702
 1466SOL    HW2 9246   3.589   6.797   1.907 -1.3390 -0.5702 -0.5699
 1467SOL     OW 9247   7.102   6.413   9.293  0.8323 -0.3470  0.1307
 1467SOL    HW1 9248   7.072   6.502   9.275  0.3664 -0.4580  0.3477
 1467SOL    HW2 9249   7.145   6.419   9.378 -0.0803 -0.5183  0.6213
 1468SOL     OW 9250   3.886   4.746   4.571 -0.4104  0.0888  0.3490
 1468SOL    HW1 9251   3.891   4.651   4.564 -0.2386 -0.0930  2.3925
 1468SOL    HW2 9252   3.956   4.778   4.515  1.0139 -1.1028  1.3852
 1469SOL     OW 9253   9.691   3.513   3.776 -0.3011 -0.5809  0.5503
 1469SOL    HW1 9254   9.723   3.424   3.787  1.1719 -0.4739 -2.0161
 1469SOL    HW2 9255   9.642   3.511   3.694  0.9304  1.1932 -0.3040
 1470SOL     OW 9256   3.214   0.288   4.604 -0.0905  0.0248  0.3948
 1470SOL    HW1 9257   3.125   0.323   4.608 -0.2834 -0.4633  0.4419
 1470SOL    HW2 9258   3.231   0.280   4.510 -0.8968 -1.8454  0.3626
 1471SOL     OW 9259   5.441   6.079   2.844  0.6518 -0.4978  0.5507
 1471SOL    HW1 9260   5.375   6.011   2.849 -1.6962  1.4424 -1.4006
 1471SOL    HW2 9261   5.447   6.113   2.934 -1.5844 -0.2908  0.6823
 1472SOL     OW 9262   5.552   9.266   8.164  0.0226  0.6502  0.3083
 1472SOL    HW1 9263   5.595   9.271   8.079 -0.3020  1.5431  0.1943
 1472SOL    HW2 9264   5.462   9.243   8.145  0.4886 -1.6470  0.5743
 1473SOL     OW 9265   7.684   7.601   6.448 -0.1538 -0.6467 -0.5577
 1473SOL    HW1 9266   7.734   7.551   6.383  0.7985  0.4522 -0.7107
 1473SOL    HW2 9267   7.665   7.538   6.517 -1.3209 -1.8876 -1.9398
 1474SOL     OW 9268   6.466   5.376   3.067 -0.6736 -1.1565 -0.6594
 1474SOL    HW1 9269   6.539   5.319   3.089  0.9376  0.2639 -1.9626
 1474SOL    HW2 9270   6.435   5.344   2.982 -0.2990 -0.6376 -1.0025
 1475SOL     OW 9271   6.017   3.465   1.964 -0.1016  0.2382  0.0757
 1475SOL    HW1 9272   5.947   3.434   2.021 -0.1458  1.6233  0.8046
 1475SOL    HW2 9273   6.025   3.558   1.984  3.3566 -0.2404  1.5222
 1476SOL     OW 9274   2.402   3.932   9.451  0.0360 -0.4845  0.1205
 1476SOL    HW1 9275   2.328   3.926   9.390 -1.4422  0.6688  1.7135
 1476SOL    HW2 9276   2.365   3.913   9.537  1.9427 -1.4617  0.7919
 1477SOL     OW 9277   2.278   6.154   8.283  0.0736 -0.2511  0.1566
 1477SOL    HW1 9278   2.294   6.215   8.211  1.4996  0.7740  1.2951
 1477SOL    HW2 9279   2.364   6.118   8.305 -0.5186 -1.5275  0.5308
 1478SOL     OW 9280   4.635   7.127   6.420  0.0222 -0.1957 -0.0862
 1478SOL    HW1 9281   4.577   7.055   6.394  0.2862 -0.2173 -0.6328
 1478SOL    HW2 9282   4.719   7.085   6.437  0.0510 -0.0798  0.0554
 1479SOL     OW 9283   6.506   0.718   6.930 -0.2055  0.3187  0.0663
 1479SOL    HW1 9284   6.535   0.791   6.985  2.6005 -1.2332  0.8886
 1479SOL    HW2 9285   6.562   0.723   6.852 -0.3381 -0.6445 -0.1016
 1480SOL     OW 9286   3.182   5.586   2.906 -0.0147 -0.4242 -0.3217
 1480SOL    HW1 9287   3.229   5.647   2.962  2.3742 -1.4440 -1.0877
 1480SOL    HW2 9288   3.216   5.500   2.931 -2.4845 -1.4096 -0.0278
 1481SOL     OW 9289   9.189   8.519   4.584  0.2207  0.0361 -0.0602
 1481SOL    HW1 9290   9.276   8.557   4.579 -0.8106  2.3710 -2.8700
 1481SOL    HW2 9291   9.184   8.458   4.510 -0.4972 -0.1847  0.1519
 1482SOL     OW 9292   6.788   0.960   2.372  0.2551 -0.0327  0.1884
 1482SOL    HW1 9293   6.791   0.981   2.465 -2.1084  0.7262  0.1675
 1482SOL    HW2 9294   6.801   1.044   2.328 -0.7810  0.0028 -0.0828
 1483SOL     OW 9295   1.848   7.578   7.770 -0.3338 -0.1512 -0.4089
 1483SOL    HW1 9296   1.763   7.620   7.785  0.7107  1.4254  1.5780
 1483SOL    HW2 9297   1.912   7.643   7.799  1.4567 -2.2528  0.6007
 1484SOL     OW 9298   4.775   9.189   6.699  0.5324  0.2728 -0.6341
 1484SOL    HW1 9299   4.740   9.208   6.785 -1.8141  1.0788 -1.7013
 1484SOL    HW2 9300   4.777   9.273   6.654  1.2290 -0.2155 -1.5616
 1485SOL     OW 9301   4.914   6.774   2.984  0.6241  0.2581  0.1697
 1485SOL    HW1 9302   4.912   6.690   3.029 -0.1800 -0.4685 -1.1535
 1485SOL    HW2 9303   4.882   6.754   2.896 -2.0336  2.4048  0.5545
 1486SOL     OW 9304   5.690   9.523   6.812 -0.0126  0.3055 -0.1793
 1486SOL    HW1 9305   5.664   9.472   6.889 -0.4928  1.2790  0.3113
 1486SOL    HW2 9306   5.751   9.588   6.845  0.4884  0.1577 -0.7856
 1487SOL     OW 9307   9.262   9.574   2.961 -0.2605 -0.4444  0.1308
 1487SOL    HW1 9308   9.241   9.646   2.901 -1.8642 -0.3793  0.7042
 1487SOL    HW2 9309   9.299   9.617   3.038  0.3750 -0.3950 -0.1967
 1488SOL     OW 9310   7.292   7.677   5.748  0.0363  0.2231  0.1479
 1488SOL    HW1 9311   7.206   7.702   5.781 -0.6283 -2.3965  0.5462
 1488SOL    HW2 9312   7.332   7.761   5.722 -2.3922  1.5649  0.4029
 1489SOL     OW 9313   9.612   3.190   6.782  0.7944  0.1855 -0.1846
 1489SOL    HW1 9314   9.532   3.189   6.729  0.5051  0.9661  0.2288
 1489SOL    HW2 9315   9.620   3.101   6.815  0.1268  0.0919 -0.2661
 1490SOL     OW 9316   9.187   3.214   3.043 -0.5644 -0.3903 -0.4732
 1490SOL    HW1 9317   9.124   3.233   3.112 -0.5485 -0.5021 -0.4279
 1490SOL    HW2 9318   9.216   3.124   3.060  0.0127 -0.1535 -0.1814
 1491SOL     OW 9319   8.738   6.424   2.600 -0.2208  0.3311  0.0953
 1491SOL    HW1 9320   8.644   6.435   2.594 -0.4017 -0.0294  1.7442
 1491SOL    HW2 9321   8.757   6.345   2.549 -1.1432 -0.9016  1.5841
 1492SOL     OW 9322   7.856   5.023   0.790 -0.0767  0.0406  0.4863
 1492SOL    HW1 9323   7.930   4.964   0.802 -0.5158 -0.1856  2.4035
 1492SOL    HW2 9324   7.887   5.090   0.730  0.6630 -1.7418 -1.2237
 1493SOL     OW 9325   8.207   1.912   3.363 -0.4618 -0.1615 -0.3241
 1493SOL    HW1 9326   8.181   1.859   3.439 -2.9187  1.4091  0.0177
 1493SOL    HW2 9327   8.294   1.946   3.386 -1.0792  0.1441  1.7360
 1494SOL     OW 9328   6.861   5.825   2.400 -0.0898 -0.4270 -0.0801
 1494SOL    HW1 9329   6.904   5.895   2.450  0.6891  0.6139 -2.0955
 1494SOL    HW2 9330   6.775   5.816   2.442  0.1752  1.0332  0.8744
 1495SOL     OW 9331   5.627   1.303   2.518  0.6804 -0.1481 -0.5471
 1495SOL    HW1 9332   5.665   1.381   2.558  0.4097  0.2231 -1.0015
 1495SOL    HW2 9333   5.675   1.230   2.558 -0.0021  0.1596  0.9295
 1496SOL     OW 9334   0.752   2.322   8.032 -0.2867  0.2597  0.5215
 1496SOL    HW1 9335   0.663   2.301   8.061  0.1031  1.4549  2.8390
 1496SOL    HW2 9336   0.771   2.258   7.964 -1.4091 -2.7891  2.8287
 1497SOL     OW 9337   2.501   8.254   2.816 -0.1970  0.2026  0.7412
 1497SOL    HW1 9338   2.420   8.217   2.782  0.0770 -0.3702  0.6977
 1497SOL    HW2 9339   2.568   8.229   2.752 -0.1851  1.8116  0.0620
 1498SOL     OW 9340   3.233   8.204   5.137  0.0883  1.0475 -0.0389
 1498SOL    HW1 9341   3.233   8.299   5.121 -2.1344  0.9648 -0.9635
 1498SOL    HW2 9342   3.238   8.166   5.049 -2.5198  0.4087  0.0093
 1499SOL     OW 9343   7.282   2.623   0.696 -0.2509  0.1546 -0.3321
 1499SOL    HW1 9344   7.289   2.717   0.711 -0.5363  0.1682 -0.2821
 1499SOL    HW2 9345   7.356   2.603   0.640  0.1611  0.3053  0.1413
 1500SOL     OW 9346   3.205   3.278   1.203  0.1079  0.1560  0.0229
 1500SOL    HW1 9347   3.198   3.290   1.108  0.1910  0.6162  0.0720
 1500SOL    HW2 9348   3.299   3.276   1.219  0.1526 -2.6127 -0.2226
 1501SOL     OW 9349   5.014   7.911   8.635 -0.9024  0.0082 -0.3782
 1501SOL    HW1 9350   4.998   7.895   8.542 -2.8821 -0.9892  0.0881
 1501SOL    HW2 9351   4.964   7.844   8.680  1.5119 -0.7163  1.4245
 1502SOL     OW 9352   3.309   2.497   5.627 -0.3146  0.3124  0.1271
 1502SOL    HW1 9353   3.242   2.486   5.694  0.9140  0.5826  1.4405
 1502SOL    HW2 9354   3.361   2.416   5.632  0.4517  0.8076  0.2857
 1503SOL     OW 9355   1.700   5.365   7.877 -0.4754  0.3695 -0.4749
 1503SOL    HW1 9356   1.626   5.321   7.919 -0.5675 -0.2049 -1.2286
 1503SOL    HW2 9357   1.760   5.294   7.854 -0.1832  0.7338 -0.8383
 1504SOL     OW 9358   5.130   5.200   1.374 -0.1508 -0.3640  0.1988
 1504SOL    HW1 9359   5.175   5.116   1.364 -1.5112 -1.0825  0.0030
 1504SOL    HW2 9360   5.132   5.239   1.287 -1.6655 -1.3231 -0.3022
 1505SOL     OW 9361   7.268   1.625   6.565 -0.7135  0.6852  0.2481
 1505SOL    HW1 9362   7.291   1.535   6.588 -1.3844  0.7241  1.1263
 1505SOL    HW2 9363   7.319   1.679   6.625 -0.5178  0.8831 -0.0942
 1506SOL     OW 9364   8.287   3.164   5.514 -0.0010 -0.6653  0.7527
 1506SOL    HW1 9365   8.246   3.086   5.476 -0.1885 -0.9363  1.4877
 1506SOL    HW2 9366   8.332   3.131   5.592  1.0411 -0.2538  0.3367
 1507SOL     OW 9367   6.657   4.978   9.468  0.2687 -0.1193  0.1898
 1507SOL    HW1 9368   6.665   5.033   9.390 -0.7761  0.9516  0.8056
 1507SOL    HW2 9369   6.665   4.888   9.435 -0.9736  0.2738 -1.2750
 1508SOL     OW 9370   3.657   7.385   3.637  0.3141 -0.4129 -0.4144
 1508SOL    HW1 9371   3.661   7.480   3.647 -3.4057 -0.2663  1.8010
 1508SOL    HW2 9372   3.598   7.371   3.562 -0.7690 -0.8579  0.4849
 1509SOL     OW 9373   6.304   1.102   7.928 -0.0216 -0.1428 -0.2418
 1509SOL    HW1 9374   6.225   1.099   7.982  0.5593  0.9770  0.7240
 1509SOL    HW2 9375   6.273   1.126   7.841 -0.7689  0.1328  0.0899
 1510SOL     OW 9376   4.959   7.420   9.434 -0.0936 -0.2698  0.3747
 1510SOL    HW1 9377   4.992   7.486   9.374 -1.0122  0.5143  0.7031
 1510SOL    HW2 9378   5.035   7.367   9.457  0.4115 -0.1188 -0.8855
 1511SOL     OW 9379   2.557   1.668   4.430  0.4487 -0.1513  0.6033
 1511SOL    HW1 9380   2.484   1.730   4.429  0.1481 -0.5036 -0.2207
 1511SOL    HW2 9381   2.515   1.583   4.420  1.0658 -0.2391 -1.5812
 1512SOL     OW 9382   1.314   5.643   5.121 -0.0709  0.2112 -0.1501
 1512SOL    HW1 9383   1.333   5.736   5.111  2.0515  0.0227  1.4906
 1512SOL    HW2 9384   1.239   5.639   5.181 -1.5034  0.8461 -1.8100
 1513SOL     OW 9385   1.803   2.441   6.578 -0.1362  0.6760 -0.4412
 1513SOL    HW1 9386   1.730   2.456   6.519 -0.4017 -1.2950 -0.6947
 1513SOL    HW2 9387   1.878   2.482   6.535 -0.5201  0.1255 -1.6803
 1514SOL     OW 9388   5.998   4.681   2.507  0.2377  0.5818  0.4373
 1514SOL    HW1 9389   6.079   4.728   2.487  0.4087  0.7355  1.4405
 1514SOL    HW2 9390   6.020   4.588   2.494  0.6220  0.6124  0.8316
 1515SOL     OW 9391   4.256   6.779   0.957 -0.3290 -0.3644  0.4294
 1515SOL    HW1 9392   4.274   6.748   1.046  0.9340 -2.7612 -0.5518
 1515SOL    HW2 9393   4.174   6.735   0.933 -0.7630  0.4199  0.4390
 1516SOL     OW 9394   9.559   9.080   2.840 -0.1139 -0.5031  0.7790
 1516SOL    HW1 9395   9.607   8.997   2.842  0.1764 -0.3512  0.4264
 1516SOL    HW2 9396   9.594   9.126   2.763  0.9276  0.6415  1.8739
 1517SOL     OW 9397   0.491   9.353   6.451  0.2578 -0.3435 -0.4735
 1517SOL    HW1 9398   0.413   9.308   6.482  0.1431  0.8719  1.1457
 1517SOL    HW2 9399   0.555   9.283   6.435  0.6712 -1.1373  3.5514
 1518SOL     OW 9400   7.271   1.923   1.617 -0.2077 -0.2313 -0.3741
 1518SOL    HW1 9401   7.200   1.891   1.674 -0.4222 -2.0024 -1.5708
 1518SOL    HW2 9402   7.307   1.844   1.577  1.0613  0.8307 -1.4019
 1519SOL     OW 9403   8.522   1.396   3.282  0.9615  0.3171  0.1414
 1519SOL    HW1 9404   8.513   1.471   3.223  1.8842  0.1268 -0.2589
 1519SOL    HW2 9405   8.464   1.416   3.355  0.1931  0.8039 -0.5758
 1520SOL     OW 9406   9.501   4.599   5.687 -0.7663 -0.7351  0.2000
 1520SOL    HW1 9407   9.456   4.683   5.697 -1.1748 -1.1887  3.0693
 1520SOL    HW2 9408   9.594   4.621   5.685 -0.9103 -0.1485 -0.0187
 1521SOL     OW 9409   0.462   3.717   4.887  0.1676 -0.8493  0.4605
 1521SOL    HW1 9410   0.397   3.691   4.822  0.9513 -1.1463 -0.2295
 1521SOL    HW2 9411   0.543   3.674   4.858  1.3076  1.5351 -0.2168
 1522SOL     OW 9412   7.203   7.379   1.829  0.2261  0.1420 -0.0365
 1522SOL    HW1 9413   7.238   7.466   1.846 -1.1201  0.2732  2.5063
 1522SOL    HW2 9414   7.112   7.394   1.804  0.6069 -0.4517 -1.9374
 1523SOL     OW 9415   9.280   0.676   6.279 -0.1552  0.2619 -0.0586
 1523SOL    HW1 9416   9.225   0.743   6.319 -1.1995  0.1709 -1.2693
 1523SOL    HW2 9417   9.237   0.657   6.195  1.4736 -0.1361 -0.8499
 1524SOL     OW 9418   2.273   1.065   4.005 -0.2828  1.3293  0.3484
 1524SOL    HW1 9419   2.340   1.054   3.938 -0.5679 -1.8243  0.4335
 1524SOL    HW2 9420   2.194   1.026   3.966 -0.3452 -0.9838  2.5898
 1525SOL     OW 9421   2.383   8.779   0.277  0.3182  0.3831  0.6073
 1525SOL    HW1 9422   2.349   8.727   0.203 -2.2783 -0.8349  2.5018
 1525SOL    HW2 9423   2.388   8.868   0.242 -2.5956  0.1904 -0.6156
 1526SOL     OW 9424   3.006   0.398   7.465 -0.4200 -0.0150  0.4716
 1526SOL    HW1 9425   2.936   0.397   7.399 -1.2594  1.7466  1.2695
 1526SOL    HW2 9426   2.964   0.363   7.544  0.0455 -0.3616  0.5673
 1527SOL     OW 9427   3.776   3.755   5.188  0.2126  0.1027  0.4056
 1527SOL    HW1 9428   3.704   3.732   5.246 -0.7164 -2.0261 -1.4383
 1527SOL    HW2 9429   3.738   3.817   5.125  0.3118 -0.0725  0.1687
 1528SOL     OW 9430   6.061   4.011   7.575 -0.4029  0.6823  0.7411
 1528SOL    HW1 9431   6.109   4.092   7.592 -0.2358  0.7242  0.0964
 1528SOL    HW2 9432   5.978   4.022   7.622 -1.2843  2.1365 -1.0391
 1529SOL     OW 9433   4.764   6.017   8.119  0.0217 -0.4116 -0.0606
 1529SOL    HW1 9434   4.774   6.026   8.214 -2.5776  0.7274  0.1993
 1529SOL    HW2 9435   4.833   6.073   8.083  1.8059 -1.7661  1.0557
 1530SOL     OW 9436   7.722   6.568   6.433 -0.4208  0.0356  0.2323
 1530SOL    HW1 9437   7.695   6.508   6.363  0.0472 -0.4567  0.4636
 1530SOL    HW2 9438   7.641   6.613   6.459 -0.9888 -1.2176  0.7394
 1531SOL     OW 9439   8.053   8.263   1.302  0.2982  0.5449 -0.4578
 1531SOL    HW1 9440   8.037   8.220   1.386  0.1026 -1.8815 -1.6362
 1531SOL    HW2 9441   8.147   8.277   1.299  0.8168 -2.2978 -1.0160
 1532SOL     OW 9442   7.059   2.419   1.395  0.1292  0.1840  0.1380
 1532SOL    HW1 9443   7.145   2.435   1.436  0.4039  1.0302 -0.7271
 1532SOL    HW2 9444   7.042   2.499   1.344 -1.1488 -0.0058  0.2469
 1533SOL     OW 9445   1.397   6.554   0.897  0.3287 -0.5441  0.1556
 1533SOL    HW1 9446   1.314   6.590   0.929  0.8590  0.2424  0.6752
 1533SOL    HW2 9447   1.395   6.462   0.926  0.0547 -0.2838  1.0188
 1534SOL     OW 9448   7.263   6.027   7.309  0.6077  0.4272  0.2703
 1534SOL    HW1 9449   7.323   6.044   7.237  1.3766  0.0231  0.8094
 1534SOL    HW2 9450   7.268   6.106   7.363  0.3762  0.5398  0.1316
 1535SOL     OW 9451   8.953   2.221   5.519 -0.3091 -1.3548 -0.1262
 1535SOL    HW1 9452   8.881   2.163   5.494 -1.1403 -0.0063 -0.9922
 1535SOL    HW2 9453   9.007   2.227   5.440 -0.4316 -0.6868 -0.1656
 1536SOL     OW 9454   1.532   0.214   3.820  0.0139  0.3411 -0.2664
 1536SOL    HW1 9455   1.551   0.123   3.797  1.4339  0.4311  0.4029
 1536SOL    HW2 9456   1.598   0.236   3.886 -0.2709  1.8721 -0.4538
 1537SOL     OW 9457   3.611   8.476   8.481 -0.3177  0.2498 -0.0861
 1537SOL    HW1 9458   3.536   8.454   8.425  2.2310 -2.6077 -2.7483
 1537SOL    HW2 9459   3.650   8.552   8.439  1.2323 -1.5195 -2.1031
 1538SOL     OW 9460   1.992   3.814   8.252 -0.0112 -0.8608  0.1979
 1538SOL    HW1 9461   2.040   3.733   8.268 -1.1083 -1.4457  0.5840
 1538SOL    HW2 9462   2.012   3.836   8.161  2.4729 -0.0627  0.8650
 1539SOL     OW 9463   5.200   7.744   0.766  0.3476 -0.2263 -0.5724
 1539SOL    HW1 9464   5.273   7.736   0.827 -0.9102  0.8675  1.1697
 1539SOL    HW2 9465   5.122   7.734   0.821 -0.8563  0.9294 -1.9868
 1540SOL     OW 9466   1.819   3.483   0.537 -0.4877 -0.1491  0.5912
 1540SOL    HW1 9467   1.876   3.420   0.580 -1.1074 -3.1683 -2.5483
 1540SOL    HW2 9468   1.730   3.454   0.558 -0.8000  0.0587 -0.3481
 1541SOL     OW 9469   2.001   6.231   2.021 -0.2417 -0.0753  0.2682
 1541SOL    HW1 9470   2.067   6.174   2.059  0.2691  0.0538 -0.4089
 1541SOL    HW2 9471   2.009   6.218   1.927 -0.2503  0.9575  0.1140
 1542SOL     OW 9472   4.979   1.696   3.061  0.3629  0.4662  0.0367
 1542SOL    HW1 9473   5.007   1.771   3.008  0.0870 -0.4431 -1.4482
 1542SOL    HW2 9474   5.061   1.653   3.085  0.4622  0.2485 -0.6468
 1543SOL     OW 9475   1.099   1.591   1.674  0.5693 -0.4148 -0.3837
 1543SOL    HW1 9476   1.174   1.588   1.615 -0.6175 -1.5544 -1.9019
 1543SOL    HW2 9477   1.059   1.505   1.667 -0.3288 -0.1621  1.1808
 1544SOL     OW 9478   5.311   1.554   9.353  0.1014  0.1154  0.2996
 1544SOL    HW1 9479   5.407   1.551   9.361  0.1158  0.6359  0.3409
 1544SOL    HW2 9480   5.280   1.497   9.424  0.4109 -1.3146 -0.6762
 1545SOL     OW 9481   8.242   6.783   1.111  0.6321  0.2431 -0.2652
 1545SOL    HW1 9482   8.288   6.838   1.048 -1.1182  1.1097 -0.8210
 1545SOL    HW2 9483   8.166   6.749   1.064 -0.3734  0.3981  1.1630
 1546SOL     OW 9484   9.036   4.029   6.970  0.0622  0.2147 -0.2978
 1546SOL    HW1 9485   8.971   4.091   6.936 -0.2477 -1.0771 -2.2495
 1546SOL    HW2 9486   8.988   3.976   7.034 -0.0789  0.9814  0.2367
 1547SOL     OW 9487   3.601   6.542   3.241  0.7179 -0.4053  0.4963
 1547SOL    HW1 9488   3.602   6.494   3.158 -2.3088  1.2019 -0.6360
 1547SOL    HW2 9489   3.652   6.621   3.224 -1.5953  0.9303 -0.6376
 1548SOL     OW 9490   5.085   5.569   7.470 -0.6163  0.4288 -0.1333
 1548SOL    HW1 9491   5.172   5.576   7.430  0.1458 -0.9620  1.1817
 1548SOL    HW2 9492   5.037   5.644   7.435  1.4165  1.8182 -0.1237
 1549SOL     OW 9493   0.808   7.608   8.863 -0.2090 -0.2039  0.1251
 1549SOL    HW1 9494   0.754   7.589   8.940  0.5742  0.4321  0.8448
 1549SOL    HW2 9495   0.796   7.531   8.807 -0.1707 -1.0538  1.2343
 1550SOL     OW 9496   9.080   2.284   5.261 -0.5113  0.3519 -0.4090
 1550SOL    HW1 9497   9.161   2.237   5.241  0.2832  2.2832 -2.2212
 1550SOL    HW2 9498   9.017   2.252   5.196 -0.5242  0.4448 -0.4426
 1551SOL     OW 9499   7.807   6.037   7.265  0.2077  0.2194  0.5416
 1551SOL    HW1 9500   7.852   5.974   7.322 -0.0353  0.0608  0.5585
 1551SOL    HW2 9501   7.856   6.033   7.183 -0.3554 -0.6662  0.2337
 1552SOL     OW 9502   2.109   3.468   7.672  0.1294 -0.0453 -0.4873
 1552SOL    HW1 9503   2.156   3.528   7.614 -0.0001  2.0109  1.4210
 1552SOL    HW2 9504   2.016   3.484   7.653  0.0996  0.2543 -0.1114
 1553SOL     OW 9505   0.725   8.540   0.046 -0.2687  0.4880  0.1968
 1553SOL    HW1 9506   0.795   8.484   0.080 -0.1429 -0.5183 -1.6022
 1553SOL    HW2 9507   0.720   8.518  -0.047 -1.5835  2.0520 -0.1425
 1554SOL     OW 9508   5.167   8.414   3.166  0.0605 -0.3379 -0.3773
 1554SOL    HW1 9509   5.162   8.320   3.182 -3.1669 -0.6241 -2.1712
 1554SOL    HW2 9510   5.170   8.453   3.253  0.5162 -2.0426  0.4235
 1555SOL     OW 9511   3.920   7.451   4.829 -0.0739 -0.8380  0.1972
 1555SOL    HW1 9512   3.891   7.542   4.827 -0.2931 -0.8860  1.0493
 1555SOL    HW2 9513   3.849   7.401   4.789 -0.7040 -0.8274  1.2781
 1556SOL     OW 9514   6.727   8.193   6.958 -0.5513 -1.0318 -0.0665
 1556SOL    HW1 9515   6.813   8.212   6.920 -0.5476 -2.2319 -0.7159
 1556SOL    HW2 9516   6.715   8.099   6.944 -0.5954 -1.5411  2.8417
 1557SOL     OW 9517   0.590   6.250   0.704  0.1120  0.4631  0.3681
 1557SOL    HW1 9518   0.644   6.258   0.625  0.8849 -1.6888  0.6271
 1557SOL    HW2 9519   0.592   6.157   0.726 -1.8573  0.6815  1.7160
 1558SOL     OW 9520   9.320   2.163   7.011  0.2496 -0.1758 -0.0358
 1558SOL    HW1 9521   9.410   2.142   6.988  1.1744 -2.1271  4.3399
 1558SOL    HW2 9522   9.318   2.259   7.017  2.1350 -0.1168  0.0786
 1559SOL     OW 9523   7.490   4.257   8.756  0.1950 -0.1700 -0.1559
 1559SOL    HW1 9524   7.533   4.205   8.824 -1.5239 -0.7664  0.5172
 1559SOL    HW2 9525   7.554   4.259   8.684  1.5966 -0.4483  1.0447
 1560SOL     OW 9526   9.400   0.332   5.240  0.0399 -0.5414 -0.2798
 1560SOL    HW1 9527   9.459   0.271   5.285  1.1190 -0.2924 -1.3187
 1560SOL    HW2 9528   9.450   0.414   5.236 -1.4030  0.4727  1.1385
 1561SOL     OW 9529   1.186   1.222   2.701  0.2633  0.4806  0.2117
 1561SOL    HW1 9530   1.203   1.166   2.625 -1.1550 -1.0676  0.9520
 1561SOL    HW2 9531   1.116   1.280   2.672 -1.2296 -1.0049  0.6616
 1562SOL     OW 9532   5.933   6.990   6.792 -0.0494 -0.3273 -0.5550
 1562SOL    HW1 9533   5.865   6.928   6.765 -0.4716 -0.1278  0.0282
 1562SOL    HW2 9534   6.008   6.935   6.814 -0.6269 -0.6864  0.5631
 1563SOL     OW 9535   2.327   2.509   6.806 -0.6082  0.1386 -0.4139
 1563SOL    HW1 9536   2.275   2.466   6.739 -0.5654 -1.3416  0.4546
 1563SOL    HW2 9537   2.418   2.490   6.782 -0.5840 -0.1403 -0.1129
 1564SOL     OW 9538   8.758   8.216   7.735  0.6545  0.0065  0.6587
 1564SOL    HW1 9539   8.691   8.192   7.670  0.5279 -0.4861  0.9694
 1564SOL    HW2 9540   8.755   8.312   7.738 -0.3192 -0.0276  0.9625
 1565SOL     OW 9541   1.375   5.163   6.655 -0.0589 -0.3740  0.0024
 1565SOL    HW1 9542   1.386   5.105   6.730  0.9629  0.2902  0.3907
 1565SOL    HW2 9543   1.306   5.122   6.603 -0.8422 -0.8202  1.3277
 1566SOL     OW 9544   6.756   1.577   3.099 -0.5404  0.0724  0.3688
 1566SOL    HW1 9545   6.744   1.635   3.174  1.4160  0.2165  0.6150
 1566SOL    HW2 9546   6.789   1.634   3.030 -1.6991 -0.1825 -0.4277
 1567SOL     OW 9547   2.262   1.714   7.175 -0.4711  0.6564 -0.2896
 1567SOL    HW1 9548   2.338   1.657   7.164 -0.4307  0.6795 -0.1323
 1567SOL    HW2 9549   2.199   1.684   7.109 -0.9704 -0.4158  0.6392
 1568SOL     OW 9550   6.098   4.288   9.705  0.1190  0.0518  0.0489
 1568SOL    HW1 9551   6.180   4.337   9.697 -0.1840  0.3704 -1.2486
 1568SOL    HW2 9552   6.116   4.223   9.774  1.5033  0.0452 -0.2853
 1569SOL     OW 9553   5.044   3.567   0.398 -0.2424 -0.1707 -0.3170
 1569SOL    HW1 9554   4.977   3.526   0.343  1.3956 -0.3623 -2.3220
 1569SOL    HW2 9555   5.075   3.496   0.455  0.1678 -0.8546 -1.3531
 1570SOL     OW 9556   5.605   3.108   3.217 -0.2609 -0.2693 -0.2653
 1570SOL    HW1 9557   5.518   3.093   3.255  0.2864 -1.8444  0.4471
 1570SOL    HW2 9558   5.587   3.131   3.126 -1.4855  1.1030  0.2782
 1571SOL     OW 9559   2.260   7.197   8.343  0.1823  0.5589  0.1841
 1571SOL    HW1 9560   2.198   7.237   8.405  0.2097 -0.3650  0.8324
 1571SOL    HW2 9561   2.265   7.259   8.271  1.7559  2.7255  2.0284
 1572SOL     OW 9562   0.132   1.789   0.562 -0.3055 -0.4246  0.1743
 1572SOL    HW1 9563   0.039   1.788   0.538 -0.1906  1.1863 -0.4905
 1572SOL    HW2 9564   0.175   1.741   0.491 -0.5435 -0.4744  0.0607
 1573SOL     OW 9565   9.583   3.358   8.819 -0.0746 -0.1138  0.1373
 1573SOL    HW1 9566   9.490   3.371   8.797  0.1340  0.3483 -0.5262
 1573SOL    HW2 9567   9.618   3.310   8.744  0.2694 -0.0880  0.2817
 1574SOL     OW 9568   5.247   1.744   1.788 -0.0288 -0.2323 -0.1960
 1574SOL    HW1 9569   5.314   1.800   1.749 -0.9682  1.7838  0.9245
 1574SOL    HW2 9570   5.186   1.726   1.717  0.5581 -0.2805 -0.6967
 1575SOL     OW 9571   4.796   0.850   5.393  0.0218 -0.2009 -0.1324
 1575SOL    HW1 9572   4.816   0.812   5.308 -0.6127  2.2312 -1.4717
 1575SOL    HW2 9573   4.711   0.813   5.417 -1.5091  1.5801 -2.3084
 1576SOL     OW 9574   9.021   7.386   6.776 -0.1740  0.5315 -0.7306
 1576SOL    HW1 9575   8.952   7.445   6.804  1.2363  2.0183 -0.2719
 1576SOL    HW2 9576   9.017   7.387   6.680 -2.0263 -0.9724 -0.7252
 1577SOL     OW 9577   3.480   6.452   1.830 -0.3389  0.4969  0.0585
 1577SOL    HW1 9578   3.522   6.536   1.809 -0.5638  1.3146  2.6102
 1577SOL    HW2 9579   3.540   6.410   1.891 -0.1921 -1.3256 -1.2436
 1578SOL     OW 9580   0.329   4.108   7.046 -0.0823  0.1590  0.0122
 1578SOL    HW1 9581   0.314   4.180   6.985  0.0211 -0.9787 -1.4037
 1578SOL    HW2 9582   0.255   4.049   7.032  0.7977 -0.9056 -0.1762
 1579SOL     OW 9583   1.112   9.409   5.986  0.2440 -0.7450  0.2295
 1579SOL    HW1 9584   1.057   9.404   6.064 -1.6430 -0.0886 -0.9834
 1579SOL    HW2 9585   1.186   9.463   6.012 -1.0970  0.7177  1.2014
 1580SOL     OW 9586   8.686   9.562   1.794  0.0529  0.3707 -0.0382
 1580SOL    HW1 9587   8.695   9.594   1.704  0.8768 -1.2293 -0.5684
 1580SOL    HW2 9588   8.617   9.617   1.832 -1.2376  0.2619 -2.0467
 1581SOL     OW 9589   4.881   4.155   3.854  0.3475 -0.2781  0.7030
 1581SOL    HW1 9590   4.866   4.219   3.923 -0.5784 -1.5321  1.7123
 1581SOL    HW2 9591   4.815   4.087   3.869  0.1963 -0.6443 -1.3643
 1582SOL     OW 9592   7.602   3.127   8.651  0.5307 -0.0697 -0.5731
 1582SOL    HW1 9593   7.666   3.109   8.720  0.3054  0.8378 -0.1201
 1582SOL    HW2 9594   7.543   3.051   8.653 -0.0543  0.3717  0.9092
 1583SOL     OW 9595   9.379   7.727   2.386  0.3170  0.4206 -0.0540
 1583SOL    HW1 9596   9.457   7.707   2.439  0.9818 -0.5268 -1.3396
 1583SOL    HW2 9597   9.306   7.717   2.447  1.0382 -0.8850  0.6404
 1584SOL     OW 9598   6.429   9.613   1.088  0.2046 -0.3400 -0.3226
 1584SOL    HW1 9599   6.355   9.614   1.149 -0.8250  1.6883 -1.4988
 1584SOL    HW2 9600   6.433   9.702   1.054 -0.2907 -1.6817 -4.3770
 1585SOL     OW 9601   9.546   5.100   5.580 -0.1880  0.5825  0.2573
 1585SOL    HW1 9602   9.557   5.023   5.524 -0.2338 -0.2836  1.3968
 1585SOL    HW2 9603   9.453   5.121   5.573 -0.2929  0.1713  0.3872
 1586SOL     OW 9604   9.040   4.565   3.083  0.3700  0.2242 -0.6767
 1586SOL    HW1 9605   9.058   4.622   3.158 -1.3937 -0.0913  0.0236
 1586SOL    HW2 9606   9.049   4.622   3.007  0.9092  0.8569 -0.1540
 1587SOL     OW 9607   4.165   7.977   0.735 -0.1220  0.3942 -0.0672
 1587SOL    HW1 9608   4.242   7.920   0.736  0.7038  1.4481 -1.0102
 1587SOL    HW2 9609   4.096   7.922   0.699  0.3705 -0.3511  0.0906
 1588SOL     OW 9610   8.363   0.471   0.317 -0.3008 -0.4602  0.2312
 1588SOL    HW1 9611   8.456   0.484   0.295  0.0214  0.8766  2.1255
 1588SOL    HW2 9612   8.348   0.379   0.301  1.1037 -0.5084 -1.0453
 1589SOL     OW 9613   8.164   2.780   7.564  0.2074  0.8342 -0.5642
 1589SOL    HW1 9614   8.127   2.863   7.534  0.4384  1.2662  0.3099
 1589SOL    HW2 9615   8.090   2.720   7.567 -0.1649  1.3007 -0.2137
 1590SOL     OW 9616   7.003   0.155   4.998 -0.2317  0.3834 -0.1113
 1590SOL    HW1 9617   7.020   0.062   4.979  0.7277  0.6692 -0.7431
 1590SOL    HW2 9618   6.909   0.159   5.014 -0.7887 -0.2977 -2.6271
 1591SOL     OW 9619   7.115   6.899   1.349  0.1357  0.1438  0.0844
 1591SOL    HW1 9620   7.154   6.883   1.435  1.9416 -0.0104 -0.7254
 1591SOL    HW2 9621   7.141   6.824   1.296 -0.6077  0.4404 -0.7262
 1592SOL     OW 9622   2.313   2.429   4.681 -0.1770 -0.7019  0.2808
 1592SOL    HW1 9623   2.386   2.466   4.631  2.2167 -5.4278 -0.2911
 1592SOL    HW2 9624   2.318   2.472   4.766 -0.4408  3.0926 -1.4265
 1593SOL     OW 9625   7.682   9.178   6.392  0.1841 -0.0406 -0.0528
 1593SOL    HW1 9626   7.653   9.269   6.387  2.5175  0.8555  1.3329
 1593SOL    HW2 9627   7.634   9.142   6.467 -1.8234 -0.4708 -1.4471
 1594SOL     OW 9628   4.055   3.882   6.834 -0.2978 -0.3287  0.2728
 1594SOL    HW1 9629   4.113   3.806   6.824 -1.0846 -0.7761 -1.1444
 1594SOL    HW2 9630   4.002   3.861   6.911 -0.2081 -1.0297  0.1571
 1595SOL     OW 9631   9.583   1.422   3.059 -0.2265  0.0509 -0.2370
 1595SOL    HW1 9632   9.605   1.351   2.998 -0.4952  1.1069 -1.6124
 1595SOL    HW2 9633   9.594   1.383   3.146  3.5334 -0.5761 -0.8195
 1596SOL     OW 9634   1.074   0.519   1.245  0.2254  0.4224 -0.1717
 1596SOL    HW1 9635   1.052   0.429   1.222 -0.9411  0.4333  0.7573
 1596SOL    HW2 9636   1.069   0.521   1.341  1.1210  1.2685 -0.1207
 1597SOL     OW 9637   7.336   9.196   8.456  0.3914  0.1638 -0.6735
 1597SOL    HW1 9638   7.278   9.150   8.517 -1.3127  2.2752 -0.6095
 1597SOL    HW2 9639   7.424   9.171   8.485 -0.3974 -0.6381  1.2638
 1598SOL     OW 9640   5.124   1.150   8.086  0.6899  0.7206  0.6207
 1598SOL    HW1 9641   5.179   1.117   8.015  1.0610 -0.3248  1.3556
 1598SOL    HW2 9642   5.083   1.229   8.051  1.2034  0.4710 -0.5910
 1599SOL     OW 9643   1.547   5.926   3.718 -0.0016 -0.1665  0.0367
 1599SOL    HW1 9644   1.503   6.007   3.692 -0.3802 -0.3141  0.2139
 1599SOL    HW2 9645   1.506   5.858   3.665 -1.0856 -0.5340  1.2865
 1600SOL     OW 9646   6.812   3.065   7.308  0.1484 -0.5747 -0.8923
 1600SOL    HW1 9647   6.755   3.002   7.353  0.5528  0.3584  1.0505
 1600SOL    HW2 9648   6.764   3.148   7.313  1.8175  0.3484  1.2526
 1601SOL     OW 9649   4.317   6.396   4.014 -0.0776 -0.5588  0.4695
 1601SOL    HW1 9650   4.368   6.361   3.942  0.8029 -0.1064  0.8641
 1601SOL    HW2 9651   4.382   6.424   4.079 -0.8255 -0.2065  1.0866
 1602SOL     OW 9652   6.181   3.457   0.628 -0.2202  0.1857  0.1532
 1602SOL    HW1 9653   6.206   3.509   0.705  0.0551  0.0257  0.1691
 1602SOL    HW2 9654   6.090   3.483   0.612  0.1590  1.2789 -0.3249
 1603SOL     OW 9655   4.207   9.417   2.060 -0.1321  0.2340 -0.4937
 1603SOL    HW1 9656   4.296   9.426   2.094  0.3303 -0.1152 -1.5377
 1603SOL    HW2 9657   4.178   9.506   2.044 -0.5847  0.4441  1.2895
 1604SOL     OW 9658   3.825   2.255   1.552 -0.1217  0.3195 -0.5049
 1604SOL    HW1 9659   3.868   2.201   1.486 -1.3061  1.8717 -2.6645
 1604SOL    HW2 9660   3.750   2.203   1.581 -0.8708  0.4790 -2.0690
 1605SOL     OW 9661   2.693   5.317   7.462  0.1969  0.3490 -0.6261
 1605SOL    HW1 9662   2.702   5.311   7.367 -1.1093  0.8682 -0.8064
 1605SOL    HW2 9663   2.613   5.269   7.482  1.8984 -2.2239  0.5930
 1606SOL     OW 9664   6.157   1.711   9.178  0.0767 -0.1670  0.5510
 1606SOL    HW1 9665   6.170   1.724   9.084 -0.1280 -0.4362  0.4825
 1606SOL    HW2 9666   6.188   1.792   9.219  2.1147 -0.8326  0.4200
 1607SOL     OW 9667   5.014   3.624   1.477 -0.5300 -0.0478 -0.4717
 1607SOL    HW1 9668   5.057   3.615   1.392  0.1134  0.5250 -0.2129
 1607SOL    HW2 9669   4.995   3.535   1.504  1.4969 -0.4052 -0.0804
 1608SOL     OW 9670   1.787   8.077   3.706 -0.7523  0.2155  0.3074
 1608SOL    HW1 9671   1.773   8.001   3.763 -0.3001  0.6647  1.0355
 1608SOL    HW2 9672   1.769   8.152   3.762  3.1683  0.8442  1.0218
 1609SOL     OW 9673   6.902   8.922   8.480 -0.4633 -0.4008 -0.4668
 1609SOL    HW1 9674   6.981   8.869   8.484  1.1283  1.8015 -1.2668
 1609SOL    HW2 9675   6.880   8.925   8.387  0.2871  1.4325 -0.6150
 1610SOL     OW 9676   3.072   7.731   4.171 -0.2491  0.1079 -0.2708
 1610SOL    HW1 9677   3.029   7.672   4.110 -0.1869  0.7722 -0.9761
 1610SOL    HW2 9678   3.008   7.744   4.241 -1.7496  1.9936 -1.8728
 1611SOL     OW 9679   0.008   2.758   3.920  0.2258  0.5051  0.7049
 1611SOL    HW1 9680  -0.062   2.764   3.855 -0.6281 -1.0841  1.4466
 1611SOL    HW2 9681   0.088   2.769   3.869 -0.4466 -0.1920 -0.5505
 1612SOL     OW 9682   1.217   7.487   8.623  0.3637  0.5626 -0.0620
 1612SOL    HW1 9683   1.203   7.419   8.690  2.1876  0.7708  0.5968
 1612SOL    HW2 9684   1.133   7.532   8.616 -0.3612 -0.5924  0.8246
 1613SOL     OW 9685   2.550   6.217   4.904  0.2430  0.1676 -0.0435
 1613SOL    HW1 9686   2.474   6.197   4.959  1.1866 -2.1438  0.5467
 1613SOL    HW2 9687   2.519   6.206   4.814 -0.5298  0.9172  0.1207
 1614SOL     OW 9688   8.959   8.564   9.319  0.4023 -0.2974 -0.7621
 1614SOL    HW1 9689   9.016   8.539   9.246 -0.9157  0.4658 -2.1075
 1614SOL    HW2 9690   8.974   8.496   9.385  0.9739 -1.5313 -2.1065
 1615SOL     OW 9691   2.721   9.552   1.853 -0.7737 -0.3624 -0.1363
 1615SOL    HW1 9692   2.664   9.611   1.802  0.3673  1.3912  0.5361
 1615SOL    HW2 9693   2.660   9.496   1.901 -1.9259  0.6529 -0.3644
 1616SOL     OW 9694   0.905   4.380   6.518  0.1248 -0.0495 -0.4593
 1616SOL    HW1 9695   0.849   4.302   6.514 -0.1979  0.2415 -2.7597
 1616SOL    HW2 9696   0.846   4.453   6.498  0.6909  0.6458  0.3320
 1617SOL     OW 9697   1.470   5.442   0.280  0.0281  0.5540  0.3045
 1617SOL    HW1 9698   1.428   5.516   0.235 -1.8847 -1.2356 -1.0399
 1617SOL    HW2 9699   1.498   5.478   0.364 -1.9910  2.5352  0.2424
 1618SOL     OW 9700   9.333   3.832   1.132 -0.0448 -0.0115 -0.1970
 1618SOL    HW1 9701   9.317   3.738   1.128  0.6710 -0.2218  1.3008
 1618SOL    HW2 9702   9.321   3.855   1.224 -1.5481  1.6314 -0.7409
 1619SOL     OW 9703   1.004   5.906   3.704  0.1387  0.0640  0.5256
 1619SOL    HW1 9704   1.096   5.885   3.686  0.4754  3.2673 -2.5313
 1619SOL    HW2 9705   0.961   5.902   3.619 -1.2529  3.7906  0.8522
 1620SOL     OW 9706   0.905   9.311   6.675  0.0154  0.3153 -0.0802
 1620SOL    HW1 9707   0.879   9.325   6.584  2.0443 -1.3411 -0.9962
 1620SOL    HW2 9708   0.929   9.219   6.680  0.7214  0.5533  1.9359
 1621SOL     OW 9709   4.453   4.459   7.737 -0.2397 -0.3504 -0.2052
 1621SOL    HW1 9710   4.436   4.495   7.823 -0.2273 -0.3172 -0.2166
 1621SOL    HW2 9711   4.491   4.532   7.687  1.2931 -0.7893  0.2494
 1622SOL     OW 9712   2.859   9.003   0.385 -0.4047 -0.2384 -0.0165
 1622SOL    HW1 9713   2.839   8.940   0.316  0.3088  0.8364 -1.2504
 1622SOL    HW2 9714   2.788   8.993   0.448 -1.8517 -0.2907 -1.5892
 1623SOL     OW 9715   3.014   4.129   3.985 -0.1309 -0.6565 -0.8387
 1623SOL    HW1 9716   3.001   4.155   3.894 -0.2938  1.5607 -0.2272
 1623SOL    HW2 9717   3.012   4.211   4.034  1.3310 -1.6591  1.0167
 1624SOL     OW 9718   4.120   8.641   7.789 -0.0018 -0.4141  0.0871
 1624SOL    HW1 9719   4.164   8.661   7.871  1.2254  0.4069 -0.7410
 1624SOL    HW2 9720   4.102   8.726   7.749  0.0301 -0.8154 -0.8057
 1625SOL     OW 9721   6.036   6.795   2.291  0.0164  0.0265  0.0296
 1625SOL    HW1 9722   6.061   6.813   2.200  0.9579  1.7835  0.5988
 1625SOL    HW2 9723   5.967   6.859   2.310 -1.4553 -1.4944  0.0456
 1626SOL     OW 9724   4.155   1.839   0.330  0.3041  0.6640  0.4058
 1626SOL    HW1 9725   4.160   1.819   0.424 -2.2879 -0.3769  0.3918
 1626SOL    HW2 9726   4.131   1.931   0.327 -0.0382  0.5898  0.7717
 1627SOL     OW 9727   4.554   3.963   0.168  0.0456 -0.5408 -0.2315
 1627SOL    HW1 9728   4.539   3.868   0.164  0.3665 -0.7300  1.7940
 1627SOL    HW2 9729   4.554   3.991   0.077 -0.9318 -2.3482 -0.8478
 1628SOL     OW 9730   6.250   6.464   4.122  0.0477 -0.2477  0.0621
 1628SOL    HW1 9731   6.198   6.407   4.065  0.8318  0.4344 -1.3852
 1628SOL    HW2 9732   6.277   6.407   4.194  1.1551 -1.8580 -1.5401
 1629SOL     OW 9733   9.207   8.224   4.794 -0.5743 -0.2883 -0.4726
 1629SOL    HW1 9734   9.129   8.220   4.740 -1.6328  1.7505  0.7757
 1629SOL    HW2 9735   9.175   8.212   4.884  0.2189  2.2755  0.2272
 1630SOL     OW 9736   6.644   2.294   4.417  0.0003 -0.0856 -0.2111
 1630SOL    HW1 9737   6.584   2.224   4.389 -1.3585  0.5364  0.9973
 1630SOL    HW2 9738   6.587   2.369   4.431  0.5575 -0.1800  3.6879
 1631SOL     OW 9739   8.446   0.045   8.040  0.8122 -0.3752  0.3477
 1631SOL    HW1 9740   8.511   0.078   8.103  2.5305 -2.8643 -0.0143
 1631SOL    HW2 9741   8.482   0.067   7.955  1.2020 -1.7404  0.1430
 1632SOL     OW 9742   2.307   0.563   3.643  0.6733 -0.0832  0.1784
 1632SOL    HW1 9743   2.360   0.642   3.644 -0.9600  1.0849 -0.1674
 1632SOL    HW2 9744   2.217   0.595   3.643 -0.0793 -1.9779  2.1582
 1633SOL     OW 9745   7.230   1.662   0.278 -0.4082 -0.0876 -0.2721
 1633SOL    HW1 9746   7.197   1.586   0.229  0.0088 -0.6403  0.2751
 1633SOL    HW2 9747   7.152   1.701   0.318 -0.8056  0.6103 -1.6721
 1634SOL     OW 9748   8.744   7.987   7.912 -0.2922 -0.4843 -0.0967
 1634SOL    HW1 9749   8.711   8.022   7.994  1.5866  1.1595  0.0170
 1634SOL    HW2 9750   8.787   8.061   7.869 -1.0493 -1.3404 -2.4870
 1635SOL     OW 9751   2.324   1.160   0.663 -0.4771  0.0761 -0.6529
 1635SOL    HW1 9752   2.321   1.194   0.752  1.5108  0.6787 -0.7575
 1635SOL    HW2 9753   2.284   1.229   0.609  0.7764  0.9689 -0.5010
 1636SOL     OW 9754   9.335   8.694   1.904  0.0614 -0.6668  0.3875
 1636SOL    HW1 9755   9.351   8.669   1.995  0.7391 -1.9514 -0.0652
 1636SOL    HW2 9756   9.264   8.636   1.876 -0.7273  0.3029  0.3333
 1637SOL     OW 9757   1.817   4.148   5.202  0.1264  0.4057 -0.0078
 1637SOL    HW1 9758   1.772   4.101   5.132  1.7012 -0.7098 -0.3150
 1637SOL    HW2 9759   1.765   4.228   5.215 -0.6680  0.2202 -1.8355
 1638SOL     OW 9760   9.490   4.010   2.611  0.0608  0.1890  0.6413
 1638SOL    HW1 9761   9.481   4.095   2.655 -0.2296 -0.2824  1.5226
 1638SOL    HW2 9762   9.584   3.991   2.615 -0.0480 -0.2092  1.7944
 1639SOL     OW 9763   0.322   6.296   3.236 -0.0215 -0.5452 -0.3928
 1639SOL    HW1 9764   0.300   6.328   3.149 -0.7921 -0.0569 -0.0253
 1639SOL    HW2 9765   0.353   6.207   3.222 -0.1945 -0.4900 -1.1548
 1640SOL     OW 9766   8.134   9.317   8.953  0.1573 -0.1404  0.8196
 1640SOL    HW1 9767   8.140   9.349   8.863 -2.0653 -0.0468  0.6441
 1640SOL    HW2 9768   8.200   9.367   9.001  1.0932  0.1065 -0.6497
 1641SOL     OW 9769   4.976   7.533   0.365 -0.0216 -0.3736 -0.1001
 1641SOL    HW1 9770   4.900   7.584   0.337 -1.4273 -1.3264  1.6693
 1641SOL    HW2 9771   5.038   7.598   0.399  0.0612  0.4383 -1.7352
 1642SOL     OW 9772   2.870   5.342   3.467 -0.5597 -0.4937  0.7872
 1642SOL    HW1 9773   2.921   5.416   3.499  0.3337  0.1924 -1.9893
 1642SOL    HW2 9774   2.840   5.369   3.380 -0.0364 -3.4461 -0.4211
 1643SOL     OW 9775   7.171   5.328   2.270 -0.2189  0.5020  0.3580
 1643SOL    HW1 9776   7.090   5.282   2.248  0.4781 -1.6717  1.9750
 1643SOL    HW2 9777   7.148   5.384   2.344 -0.4795  0.6905  0.1356
 1644SOL     OW 9778   5.673   8.621   5.534  0.5495 -0.0957 -0.3632
 1644SOL    HW1 9779   5.621   8.568   5.594 -0.1742  1.1399  0.1312
 1644SOL    HW2 9780   5.751   8.567   5.516 -1.2522 -2.4172 -1.8522
 1645SOL     OW 9781   8.575   3.444   5.114 -0.0284 -0.0364  0.7775
 1645SOL    HW1 9782   8.618   3.467   5.031 -0.1566  1.3243  1.0713
 1645SOL    HW2 9783   8.606   3.355   5.132  0.1122 -0.3091 -0.6530
 1646SOL     OW 9784   5.580   5.440   4.324  0.1600  0.2323  0.1089
 1646SOL    HW1 9785   5.505   5.448   4.383  0.7170  2.4679  0.5999
 1646SOL    HW2 9786   5.552   5.483   4.243  0.5436  0.0935 -0.1025
 1647SOL     OW 9787   6.940   0.455   1.529 -0.3301  0.1593 -0.2653
 1647SOL    HW1 9788   6.959   0.521   1.463  0.2730  1.4211  1.1237
 1647SOL    HW2 9789   6.938   0.503   1.612  1.8334 -1.8023  1.0325
 1648SOL     OW 9790   7.704   1.294   1.256  0.5223  0.1287 -0.0402
 1648SOL    HW1 9791   7.786   1.251   1.280  0.2985 -1.2474 -1.5878
 1648SOL    HW2 9792   7.636   1.232   1.280  0.0882  0.3142 -0.7468
 1649SOL     OW 9793   8.515   4.988   3.665  0.7155  0.1973  0.3765
 1649SOL    HW1 9794   8.427   4.954   3.650  0.3954  1.1610  0.0264
 1649SOL    HW2 9795   8.502   5.072   3.709  1.4672  0.3035  0.4172
 1650SOL     OW 9796   2.641   4.305   6.297  0.3425 -0.2912  0.4236
 1650SOL    HW1 9797   2.638   4.374   6.363 -0.7102 -1.4571  1.6457
 1650SOL    HW2 9798   2.656   4.352   6.215 -1.3810  1.4875  1.0485
 1651SOL     OW 9799   1.008   4.935   1.916  0.3611  0.0293  0.0516
 1651SOL    HW1 9800   1.024   4.967   1.827 -1.9998 -0.3984 -0.5993
 1651SOL    HW2 9801   0.931   4.983   1.945  0.4564 -0.6361  1.4639
 1652SOL     OW 9802   4.859   6.332   8.193  0.1253  0.1530  0.0574
 1652SOL    HW1 9803   4.777   6.332   8.142 -0.0805  0.9422  0.3714
 1652SOL    HW2 9804   4.918   6.275   8.143 -0.2625  0.4473 -0.7654
 1653SOL     OW 9805   8.125   1.210   7.021  0.7662 -0.2544 -0.8433
 1653SOL    HW1 9806   8.041   1.229   6.978  0.2028 -0.9097 -0.0819
 1653SOL    HW2 9807   8.188   1.268   6.979 -0.0473  0.1551 -1.5262
 1654SOL     OW 9808   1.730   3.926   8.379 -0.3050 -0.2827 -0.3964
 1654SOL    HW1 9809   1.703   4.018   8.375 -2.2646 -0.6976  1.2993
 1654SOL    HW2 9810   1.763   3.906   8.291 -1.1440  1.6494 -1.2044
 1655SOL     OW 9811   4.913   0.969   9.110 -0.4908 -0.5206 -0.3765
 1655SOL    HW1 9812   4.960   1.037   9.158 -1.9962 -0.7490  1.5621
 1655SOL    HW2 9813   4.933   0.889   9.158  1.7251 -1.6964 -2.9535
 1656SOL     OW 9814   3.636   3.605   3.278 -0.3898 -0.3314 -0.0290
 1656SOL    HW1 9815   3.724   3.609   3.316 -1.1763 -0.3812  1.9243
 1656SOL    HW2 9816   3.627   3.515   3.248 -0.5739 -1.0387  1.9635
 1657SOL     OW 9817   6.700   7.989   5.766  0.1486  0.0752  0.1171
 1657SOL    HW1 9818   6.671   7.901   5.790  1.1033  0.1773  1.7804
 1657SOL    HW2 9819   6.777   8.005   5.821 -1.8060  3.1655  2.2517
 1658SOL     OW 9820   9.543   2.177   6.477  0.1122  0.3096  0.6536
 1658SOL    HW1 9821   9.622   2.170   6.424  0.3805  1.4435  0.8738
 1658SOL    HW2 9822   9.555   2.113   6.547  0.8671  0.5300  0.7300
 1659SOL     OW 9823   0.244   9.718   4.521  0.6832  0.3287 -1.1384
 1659SOL    HW1 9824   0.327   9.764   4.511  1.3308 -0.4702  0.2785
 1659SOL    HW2 9825   0.177   9.785   4.509  1.5536  1.1957 -1.2300
 1660SOL     OW 9826   6.112   1.843   1.002  0.0743  0.4274  0.2474
 1660SOL    HW1 9827   6.148   1.822   0.916  2.2725 -0.9726  1.3910
 1660SOL    HW2 9828   6.132   1.935   1.015  1.2039  0.2570 -0.1287
 1661SOL     OW 9829   2.434   4.051   4.370  0.0315  0.3123  0.1833
 1661SOL    HW1 9830   2.530   4.055   4.369  0.0011  2.0563 -1.1646
 1661SOL    HW2 9831   2.414   3.959   4.355  1.4822 -0.2540  1.4614
 1662SOL     OW 9832   9.515   2.827   0.038 -0.4089  0.5658  0.3800
 1662SOL    HW1 9833   9.598   2.850  -0.005 -0.0594 -0.5369  0.4150
 1662SOL    HW2 9834   9.542   2.782   0.118 -1.0572  2.4795  1.7230
 1663SOL     OW 9835   2.076   9.181   4.343  0.2381  0.6327 -0.7216
 1663SOL    HW1 9836   2.125   9.142   4.416  1.0365  1.0694 -1.0077
 1663SOL    HW2 9837   2.133   9.169   4.267 -0.0479  1.2639 -1.0435
 1664SOL     OW 9838   8.426   2.604   8.036 -0.1743  0.5100 -0.1715
 1664SOL    HW1 9839   8.495   2.670   8.048  1.1346 -0.9229  0.5231
 1664SOL    HW2 9840   8.454   2.554   7.959  0.3766 -0.9844  0.9430
 1665SOL     OW 9841   6.101   7.763   4.225  1.0255 -0.3074  0.1147
 1665SOL    HW1 9842   6.172   7.817   4.190  0.5505  1.0082  1.1038
 1665SOL    HW2 9843   6.022   7.815   4.211  0.1797 -1.8547 -1.1856
 1666SOL     OW 9844   0.785   2.309   0.904 -0.5563 -0.4654  0.6385
 1666SOL    HW1 9845   0.745   2.224   0.887 -0.7057 -0.4222  0.7738
 1666SOL    HW2 9846   0.877   2.298   0.878 -0.6638 -0.5543  0.3020
 1667SOL     OW 9847   8.439   6.454   0.743 -0.7142 -0.1341 -0.5512
 1667SOL    HW1 9848   8.510   6.508   0.709 -0.1821 -0.8239 -0.5629
 1667SOL    HW2 9849   8.483   6.387   0.796 -1.4989  0.8358  1.4242
 1668SOL     OW 9850   0.831   0.466   7.320 -0.6717  0.5525  0.1620
 1668SOL    HW1 9851   0.776   0.442   7.246  0.7909  1.5389 -1.3077
 1668SOL    HW2 9852   0.848   0.559   7.309  3.0916 -0.0700 -0.8019
 1669SOL     OW 9853   7.068   1.910   5.199 -0.3563 -0.4402 -0.1072
 1669SOL    HW1 9854   7.019   1.992   5.197 -2.1061 -1.4176 -0.1516
 1669SOL    HW2 9855   7.046   1.868   5.115  1.1358 -0.6286 -0.4307
 1670SOL     OW 9856   9.327   2.414   2.570 -0.0724 -0.4312 -0.3267
 1670SOL    HW1 9857   9.368   2.498   2.552  0.3980 -0.5314  0.2657
 1670SOL    HW2 9858   9.382   2.374   2.637 -0.8140 -0.8148  0.0630
 1671SOL     OW 9859   9.136   8.402   5.176 -0.0045  0.2248 -0.0237
 1671SOL    HW1 9860   9.191   8.327   5.156  0.5832  0.5290  0.4023
 1671SOL    HW2 9861   9.064   8.397   5.113 -0.9577 -1.6988  1.1185
 1672SOL     OW 9862   2.773   6.384   3.505  0.0039 -0.3101  0.1152
 1672SOL    HW1 9863   2.699   6.352   3.453 -1.6161  1.6477  1.0771
 1672SOL    HW2 9864   2.754   6.354   3.594  1.1059 -0.9636  0.1353
 1673SOL     OW 9865   7.267   7.048   8.453  0.3384 -0.3831  0.2060
 1673SOL    HW1 9866   7.214   7.001   8.517  0.9543 -0.9490  0.3048
 1673SOL    HW2 9867   7.357   7.030   8.478  0.6024 -1.2370 -1.2629
 1674SOL     OW 9868   9.332   7.176   1.430  0.2222 -0.1572  0.2798
 1674SOL    HW1 9869   9.329   7.270   1.414 -0.6252 -0.4976 -1.9287
 1674SOL    HW2 9870   9.338   7.168   1.525 -1.4087  2.0848  0.6562
 1675SOL     OW 9871   0.118   1.855   6.928  0.3504 -0.5531 -0.4564
 1675SOL    HW1 9872   0.164   1.776   6.900 -0.0126 -0.6279 -0.8596
 1675SOL    HW2 9873   0.147   1.869   7.018  1.6956 -0.1897 -0.9318
 1676SOL     OW 9874   3.988   0.937   3.319 -0.4078 -0.3010  0.2013
 1676SOL    HW1 9875   3.940   0.875   3.374 -1.0259  0.2795  0.3291
 1676SOL    HW2 9876   3.967   0.911   3.230 -0.4230 -0.4662  0.2532
 1677SOL     OW 9877   1.558   7.938   1.420  0.1483 -0.1592  0.0173
 1677SOL    HW1 9878   1.574   7.847   1.444  2.1732 -0.3638 -1.8465
 1677SOL    HW2 9879   1.617   7.989   1.475 -1.7274  0.2084  1.8222
 1678SOL     OW 9880   2.009   7.683   2.874  0.1309 -0.3641  0.0028
 1678SOL    HW1 9881   1.986   7.744   2.803  0.6398  0.5619  0.6042
 1678SOL    HW2 9882   1.984   7.597   2.841  2.4445 -0.2940 -2.3023
 1679SOL     OW 9883   6.055   5.286   7.567 -0.1325  0.1293 -0.8915
 1679SOL    HW1 9884   6.111   5.274   7.644  0.3430  0.3809 -1.1915
 1679SOL    HW2 9885   6.111   5.262   7.493 -0.7950 -0.7702 -1.1173
 1680SOL     OW 9886   8.932   6.381   4.615  0.3746  0.4825  0.3893
 1680SOL    HW1 9887   8.961   6.317   4.679  0.7545 -0.6323 -0.8510
 1680SOL    HW2 9888   8.903   6.456   4.667  0.6532 -0.3848  1.8423
 1681SOL     OW 9889   3.648   8.802   0.804 -0.0150  0.1478  0.0826
 1681SOL    HW1 9890   3.613   8.747   0.874 -1.0239  0.5135 -0.1278
 1681SOL    HW2 9891   3.719   8.749   0.766 -0.2881 -0.5745  0.5579
 1682SOL     OW 9892   1.570   8.913   6.691 -0.3552 -0.2014  0.0458
 1682SOL    HW1 9893   1.646   8.944   6.739 -0.0769 -0.9076  0.0778
 1682SOL    HW2 9894   1.500   8.974   6.714  0.1618  0.3706  0.1244
 1683SOL     OW 9895   5.034   3.434   2.989 -0.7169  0.7770 -0.2017
 1683SOL    HW1 9896   5.072   3.428   3.077 -2.8379  1.2814  0.8101
 1683SOL    HW2 9897   5.035   3.527   2.968 -1.3799  0.7969 -0.1599
 1684SOL     OW 9898   8.849   9.299   7.599 -0.1268 -0.2850  0.2000
 1684SOL    HW1 9899   8.887   9.384   7.579 -1.5093  0.3690  0.2012
 1684SOL    HW2 9900   8.896   9.237   7.544  0.9526  0.4614  0.2572
 1685SOL     OW 9901   2.301   7.296   1.015 -0.3329 -0.1840 -0.8036
 1685SOL    HW1 9902   2.243   7.321   1.088 -0.6058 -1.0597 -0.7091
 1685SOL    HW2 9903   2.326   7.379   0.975  1.7758  0.5433  1.7518
 1686SOL     OW 9904   4.611   3.719   4.820  0.4786 -0.8063 -0.3849
 1686SOL    HW1 9905   4.680   3.776   4.854 -0.2689 -0.3958  0.5214
 1686SOL    HW2 9906   4.643   3.689   4.735  0.2348  2.2623 -1.6887
 1687SOL     OW 9907   4.014   9.418   5.888 -0.2752  0.1308  0.5558
 1687SOL    HW1 9908   3.980   9.428   5.977 -0.6074  0.0306  0.4375
 1687SOL    HW2 9909   4.093   9.473   5.887  0.2439 -0.5836  1.1832
 1688SOL     OW 9910   0.960   7.683   3.035  0.6318  0.8976 -0.1758
 1688SOL    HW1 9911   0.885   7.626   3.053  1.4866 -0.6146 -1.1759
 1688SOL    HW2 9912   0.922   7.760   2.993 -0.5356  1.0130  1.0117
 1689SOL     OW 9913   9.302   8.345   7.215 -0.0558  1.3286  0.2866
 1689SOL    HW1 9914   9.358   8.272   7.187 -1.4084 -0.1828  1.3336
 1689SOL    HW2 9915   9.343   8.377   7.295  0.4231  1.5828 -0.0565
 1690SOL     OW 9916   4.132   9.724   4.199  0.2614 -0.5480  0.7017
 1690SOL    HW1 9917   4.175   9.809   4.188 -1.1065 -0.0558 -1.4263
 1690SOL    HW2 9918   4.039   9.742   4.189  0.0158 -2.4619 -1.4741
 1691SOL     OW 9919   1.629   9.525   6.950  0.1599 -0.2126 -0.1125
 1691SOL    HW1 9920   1.586   9.586   6.890 -0.1813  1.6468  1.9032
 1691SOL    HW2 9921   1.708   9.497   6.904  0.2079  1.5826 -1.2031
 1692SOL     OW 9922   0.544   2.825   4.735  0.2673  0.5271  0.0449
 1692SOL    HW1 9923   0.541   2.914   4.701  0.4092  0.9738  1.1710
 1692SOL    HW2 9924   0.526   2.770   4.659  0.9967  1.4682 -0.8353
 1693SOL     OW 9925   3.741   6.314   0.469 -0.3197 -0.1681  0.7481
 1693SOL    HW1 9926   3.704   6.402   0.471 -0.4010 -0.1411  4.1287
 1693SOL    HW2 9927   3.799   6.314   0.393 -0.6788  2.6369  0.3608
 1694SOL     OW 9928   2.618   9.527   3.762 -0.2313 -0.6062  0.2348
 1694SOL    HW1 9929   2.710   9.531   3.737 -0.4000 -1.2924 -0.5507
 1694SOL    HW2 9930   2.615   9.464   3.833  0.0048  0.0053  0.7958
 1695SOL     OW 9931   5.005   1.090   0.188  0.4847 -0.2794  0.0286
 1695SOL    HW1 9932   5.068   1.153   0.221 -0.7078  1.8581 -1.5413
 1695SOL    HW2 9933   4.933   1.093   0.251 -0.5395  1.6907 -1.1238
 1696SOL     OW 9934   2.017   0.322   1.872 -0.2061  0.2080 -0.2399
 1696SOL    HW1 9935   2.039   0.397   1.928 -2.7722 -0.2953  1.6336
 1696SOL    HW2 9936   1.956   0.271   1.924  0.3619 -2.4821 -2.0364
 1697SOL     OW 9937   1.115   6.796   7.000 -0.6547 -0.5256  0.1708
 1697SOL    HW1 9938   1.075   6.765   7.082  0.2886 -1.5860  0.2660
 1697SOL    HW2 9939   1.087   6.732   6.934 -0.6880 -0.1815 -0.1497
 1698SOL     OW 9940   9.596   2.182   6.914  0.1490  0.1480 -0.4335
 1698SOL    HW1 9941   9.589   2.209   6.822  0.5053  1.1292 -0.1790
 1698SOL    HW2 9942   9.679   2.218   6.944  0.5859 -1.1315 -0.0235
 1699SOL     OW 9943   2.579   0.501   8.932 -0.0419  0.7221  0.5129
 1699SOL    HW1 9944   2.543   0.418   8.962 -0.9606  1.3190  1.0934
 1699SOL    HW2 9945   2.529   0.568   8.978  1.3613  1.6029  0.8364
 1700SOL     OW 9946   1.225   4.837   2.201 -0.0305  0.1669 -0.2303
 1700SOL    HW1 9947   1.224   4.829   2.106 -0.6080 -0.7301 -0.1560
 1700SOL    HW2 9948   1.311   4.874   2.221 -0.5336  2.0092 -1.2123
 1701SOL     OW 9949   5.969   3.198   8.904 -0.3863  0.0074 -0.6971
 1701SOL    HW1 9950   6.048   3.196   8.851  0.4115  2.8750  0.2093
 1701SOL    HW2 9951   5.985   3.133   8.973  1.9675  1.6520  0.4152
 1702SOL     OW 9952   1.208   2.892   4.924 -1.1223  0.6984  0.1167
 1702SOL    HW1 9953   1.247   2.861   5.006  0.7882  2.5573 -0.0058
 1702SOL    HW2 9954   1.238   2.830   4.858 -1.7559 -0.1810  0.6396
 1703SOL     OW 9955   3.529   1.488   0.830 -0.4974 -0.8017  0.0706
 1703SOL    HW1 9956   3.563   1.435   0.902 -0.4289 -1.6579 -0.5772
 1703SOL    HW2 9957   3.529   1.429   0.755  0.5784  0.4085 -0.9307
 1704SOL     OW 9958   9.135   7.943   7.281 -0.8269 -0.5656  0.2334
 1704SOL    HW1 9959   9.121   7.851   7.305  1.0757 -1.1964 -0.8556
 1704SOL    HW2 9960   9.099   7.950   7.193 -1.4479 -0.0956  0.5143
 1705SOL     OW 9961   1.711   0.861   0.321  0.1007  0.0967  0.2932
 1705SOL    HW1 9962   1.730   0.767   0.319  0.2481  0.1329 -1.2151
 1705SOL    HW2 9963   1.615   0.866   0.313 -0.0108  0.0632  1.4803
 1706SOL     OW 9964   5.014   7.253   3.707  0.8502  0.2352 -0.3018
 1706SOL    HW1 9965   5.006   7.308   3.785  1.3932  0.3904 -0.3519
 1706SOL    HW2 9966   5.049   7.312   3.640 -3.4454  1.3305 -1.9640
 1707SOL     OW 9967   7.134   0.720   7.082  0.0776 -0.1078 -0.9118
 1707SOL    HW1 9968   7.157   0.694   7.171  1.8954 -2.7061 -2.0234
 1707SOL    HW2 9969   7.054   0.671   7.062  0.2649 -0.3525 -1.0632
 1708SOL     OW 9970   0.431   5.560   1.330 -0.2256 -0.2285 -0.6228
 1708SOL    HW1 9971   0.355   5.553   1.272 -0.7707  1.1915 -0.1133
 1708SOL    HW2 9972   0.411   5.633   1.388  1.7636  0.5272 -0.8028
 1709SOL     OW 9973   5.376   7.614   1.003  0.7289 -0.1720  0.2607
 1709SOL    HW1 9974   5.338   7.538   1.048  1.5295 -0.7428 -0.0003
 1709SOL    HW2 9975   5.366   7.686   1.065 -1.0302 -0.2281  0.0750
 1710SOL     OW 9976   5.765   5.718   8.623  0.5708 -0.2390 -0.1494
 1710SOL    HW1 9977   5.813   5.751   8.699  0.3366 -1.4409  0.5417
 1710SOL    HW2 9978   5.824   5.655   8.583 -0.3818 -1.7428  0.7199
 1711SOL     OW 9979   0.096   5.554   8.222  0.3169 -0.1033  0.4206
 1711SOL    HW1 9980   0.004   5.546   8.243  0.3858  0.7729  1.0763
 1711SOL    HW2 9981   0.112   5.484   8.158 -0.6115 -0.7473  0.8752
 1712SOL     OW 9982   8.010   3.041   9.248 -0.2838 -0.1912 -0.5616
 1712SOL    HW1 9983   7.927   3.030   9.293  0.7633 -1.2051  1.2257
 1712SOL    HW2 9984   8.036   3.131   9.267 -0.8066  0.0263 -0.8608
 1713SOL     OW 9985   1.195   2.143   3.268  0.1528  0.0931  0.2343
 1713SOL    HW1 9986   1.246   2.099   3.336  1.6923  2.9032  1.0475
 1713SOL    HW2 9987   1.122   2.183   3.315  0.9353  1.6112  0.2052
 1714SOL     OW 9988   8.121   0.727   6.118  0.4246 -0.1775  0.1656
 1714SOL    HW1 9989   8.156   0.645   6.085  2.5684 -0.3184  2.4764
 1714SOL    HW2 9990   8.026   0.712   6.124  0.9159 -3.3985  2.5628
 1715SOL     OW 9991   7.367   8.441   2.692  0.3972  0.3320  0.0773
 1715SOL    HW1 9992   7.282   8.421   2.732 -0.7383  0.0024 -2.3132
 1715SOL    HW2 9993   7.357   8.415   2.600  3.0931  0.3460 -0.2912
 1716SOL     OW 9994   8.905   3.032   3.606  0.7244 -0.4403  0.7696
 1716SOL    HW1 9995   8.995   3.027   3.572  0.8197  1.5158  0.5668
 1716SOL    HW2 9996   8.858   2.961   3.562  1.7909 -0.4515 -0.4075
 1717SOL     OW 9997   9.014   7.078   0.419  0.2732 -0.6129  0.3923
 1717SOL    HW1 9998   8.951   7.025   0.370  0.4846 -0.9521  0.4780
 1717SOL    HW2 9999   8.961   7.146   0.460  0.0020 -0.7237  0.2286
 1718SOL     OW10000   9.616   0.797   2.623  0.1723  0.4706  0.6721
 1718SOL    HW110001   9.646   0.719   2.577  0.0103  1.1943 -0.7246
 1718SOL    HW210002   9.695   0.835   2.661  0.4516  0.3212  0.2469
 1719SOL     OW10003   5.480   3.117   7.402  0.2020 -0.2681 -0.5679
 1719SOL    HW110004   5.452   3.087   7.489 -0.5884 -0.1372 -0.7714
 1719SOL    HW210005   5.574   3.100   7.401 -0.1713 -2.7871 -0.6737
 1720SOL     OW10006   9.693   3.257   7.037 -0.1006 -0.5511  0.4086
 1720SOL    HW110007   9.689   3.242   6.942  0.0905 -0.0154  0.3100
 1720SOL    HW210008   9.676   3.172   7.076 -0.7652 -0.6594 -0.1057
 1721SOL     OW10009   1.439   7.428   5.772  0.1085  0.4094 -0.4497
 1721SOL    HW110010   1.423   7.343   5.730  1.7106 -0.7890  1.2285
 1721SOL    HW210011   1.409   7.417   5.862 -0.3910  1.9152 -0.4012
 1722SOL     OW10012   6.527   1.242   3.564  1.1421  0.3829 -0.0666
 1722SOL    HW110013   6.494   1.305   3.628 -0.4607 -0.1311 -0.3634
 1722SOL    HW210014   6.619   1.268   3.552  1.0437  1.4833  1.2156
 1723SOL     OW10015   4.437   7.300   5.706  0.5235 -0.0222 -0.0278
 1723SOL    HW110016   4.353   7.289   5.750  1.1881 -0.5324  1.1610
 1723SOL    HW210017   4.455   7.215   5.667  1.2272 -0.4110  1.0999
 1724SOL     OW10018   0.895   9.381   7.033 -0.2992 -0.0206 -0.0322
 1724SOL    HW110019   0.921   9.341   6.951  1.1254  1.5220 -0.3796
 1724SOL    HW210020   0.975   9.419   7.069 -1.2945  1.2519  0.9643
 1725SOL     OW10021   7.340   2.229   9.078  0.0045  0.2123  0.1022
 1725SOL    HW110022   7.329   2.170   9.152  0.8647 -0.9650 -0.6701
 1725SOL    HW210023   7.268   2.205   9.019  0.2994 -0.0070 -0.1698
 1726SOL     OW10024   9.670   4.860   6.247 -0.3563 -0.0395 -0.4522
 1726SOL    HW110025   9.641   4.774   6.276  0.2050  0.5449  2.0164
 1726SOL    HW210026   9.758   4.846   6.213 -0.2790 -0.4496 -0.0849
 1727SOL     OW10027   3.210   6.909   3.496  0.0977 -0.4255  0.0382
 1727SOL    HW110028   3.276   6.880   3.433  0.1517 -1.3986  0.5187
 1727SOL    HW210029   3.224   7.003   3.505  1.1803 -0.5658 -0.1346
 1728SOL     OW10030   7.289   5.858   9.492 -0.4151 -0.0977 -0.5861
 1728SOL    HW110031   7.236   5.936   9.476  1.4165  1.5361  0.8914
 1728SOL    HW210032   7.377   5.881   9.462  0.7977 -0.5283  2.2706
 1729SOL     OW10033   3.695   8.877   1.693 -0.7180  0.3670 -0.9252
 1729SOL    HW110034   3.714   8.878   1.787 -1.7695 -0.1237 -0.7013
 1729SOL    HW210035   3.657   8.791   1.677  0.7496 -0.1061 -2.0737
 1730SOL     OW10036   4.908   6.784   1.691  0.1275 -0.3312  0.1748
 1730SOL    HW110037   4.827   6.733   1.680  0.1169 -0.0479 -1.3021
 1730SOL    HW210038   4.883   6.873   1.668  0.8980 -0.2799 -0.5076
 1731SOL     OW10039   0.950   5.815   3.226 -0.2287  0.7913  0.2025
 1731SOL    HW110040   1.045   5.830   3.224 -0.3488  1.7419  0.8848
 1731SOL    HW210041   0.941   5.728   3.265  0.3675  0.6353  0.0115
 1732SOL     OW10042   9.735   1.588   4.760  0.1051  0.0755 -0.4628
 1732SOL    HW110043   9.688   1.515   4.721 -0.2388  0.4645 -0.7764
 1732SOL    HW210044   9.749   1.649   4.689 -2.2273  1.6842  0.3599
 1733SOL     OW10045   2.092   2.446   0.491  0.0867 -0.2230 -0.2158
 1733SOL    HW110046   2.111   2.463   0.399 -1.7630 -1.1646 -0.8421
 1733SOL    HW210047   2.092   2.532   0.532  0.2069  0.2926 -1.2629
 1734SOL     OW10048   5.374   3.151   4.814  0.2140 -0.7526  0.1275
 1734SOL    HW110049   5.437   3.192   4.755  0.2547 -0.1552  0.5740
 1734SOL    HW210050   5.295   3.140   4.762  0.5637 -1.1478 -0.3227
 1735SOL     OW10051   3.601   8.484   4.109 -0.2370  0.3023  0.0373
 1735SOL    HW110052   3.587   8.531   4.191 -0.4289 -1.4930  1.0882
 1735SOL    HW210053   3.692   8.453   4.114 -0.2822  0.0872 -0.3978
 1736SOL     OW10054   1.030   2.656   3.239 -0.4664 -0.3293 -0.3806
 1736SOL    HW110055   1.001   2.618   3.321 -0.0550  0.8905  0.3656
 1736SOL    HW210056   1.092   2.592   3.203 -0.0535 -0.5360  0.6571
 1737SOL     OW10057   6.353   0.986   4.360  0.3246  0.0426  0.1066
 1737SOL    HW110058   6.429   1.044   4.362  1.4492 -1.3538 -0.7479
 1737SOL    HW210059   6.282   1.040   4.324  2.0312  0.1707 -3.4348
 1738SOL     OW10060   5.817   9.409   4.214  0.3875 -0.4417  0.0949
 1738SOL    HW110061   5.789   9.354   4.140 -0.0896 -0.2913  0.1593
 1738SOL    HW210062   5.912   9.401   4.215  0.6749  1.6622 -2.2158
 1739SOL     OW10063   5.944   6.980   3.656 -0.6604 -0.1532 -0.1968
 1739SOL    HW110064   6.016   6.977   3.719 -0.6938 -0.3790 -0.1674
 1739SOL    HW210065   5.977   7.034   3.584  0.0246 -1.3164 -0.7766
 1740SOL     OW10066   9.103   3.731   6.078 -0.4590  0.0724  0.3692
 1740SOL    HW110067   9.019   3.690   6.094 -0.4103  0.2245  1.0207
 1740SOL    HW210068   9.158   3.705   6.152 -0.0963  0.4218  0.2297
 1741SOL     OW10069   1.111   9.018   8.443  0.0960  0.0482  0.2482
 1741SOL    HW110070   1.166   8.945   8.474 -0.5521 -1.3894 -1.7300
 1741SOL    HW210071   1.101   9.075   8.519 -0.3689 -2.5484  2.2823
 1742SOL     OW10072   6.393   9.627   7.016 -0.1353  0.4125 -0.0068
 1742SOL    HW110073   6.311   9.609   7.062 -0.4388  0.4752 -0.5273
 1742SOL    HW210074   6.441   9.544   7.021 -0.1616  0.4178  0.4237
 1743SOL     OW10075   9.045   1.795   3.076 -0.4953  0.5766  0.7797
 1743SOL    HW110076   9.119   1.772   3.019 -2.1650 -2.1172 -0.5110
 1743SOL    HW210077   9.060   1.745   3.156 -0.7237  0.3416  0.6755
 1744SOL     OW10078   7.720   2.498   5.923  0.0056  0.2844  0.1557
 1744SOL    HW110079   7.700   2.430   5.988 -0.7481 -0.5220 -0.8778
 1744SOL    HW210080   7.719   2.451   5.839  0.9238  1.3052 -0.4501
 1745SOL     OW10081   6.813   8.164   8.328 -0.1086 -0.7520  0.1770
 1745SOL    HW110082   6.751   8.157   8.401 -1.4616 -0.3798 -0.8787
 1745SOL    HW210083   6.761   8.203   8.257  1.2908 -0.6557 -0.8305
 1746SOL     OW10084   7.781   3.120   7.253 -0.0284 -0.5738  0.0459
 1746SOL    HW110085   7.803   3.054   7.318 -1.4495 -0.5690  0.5662
 1746SOL    HW210086   7.759   3.198   7.303 -0.7457 -0.4476 -0.4419
 1747SOL     OW10087   0.279   5.467   9.281 -0.0913  0.1156  0.4686
 1747SOL    HW110088   0.225   5.419   9.217  0.2947 -0.9583  0.9237
 1747SOL    HW210089   0.359   5.488   9.234 -0.2358  0.2671  0.2862
 1748SOL     OW10090   4.917   1.947   5.613  0.2214  1.2838 -0.0441
 1748SOL    HW110091   4.973   1.947   5.536  0.5716 -0.4760  0.1644
 1748SOL    HW210092   4.953   2.016   5.669  2.9630 -0.5041  0.5768
 1749SOL     OW10093   1.365   5.488   3.916 -0.6759 -0.2054  0.0899
 1749SOL    HW110094   1.285   5.492   3.864 -0.4304 -0.6816 -0.3381
 1749SOL    HW210095   1.374   5.574   3.955 -0.5099  0.3834 -1.1960
 1750SOL     OW10096   2.303   0.044   8.175 -0.5383  0.0504  0.6873
 1750SOL    HW110097   2.372   0.103   8.205 -1.0041  1.0798 -0.1875
 1750SOL    HW210098   2.309  -0.032   8.232  1.0968  0.2662  0.8395
 1751SOL     OW10099   3.677   2.328   6.465 -0.6778  0.1335 -0.1265
 1751SOL    HW110100   3.673   2.412   6.512 -3.0429  0.0986 -0.1934
 1751SOL    HW210101   3.749   2.281   6.508 -0.9330  1.2090  1.5829
 1752SOL     OW10102   1.459   1.142   3.408  0.6559 -0.6310 -0.3533
 1752SOL    HW110103   1.393   1.186   3.354  1.2987 -0.9895 -1.4810
 1752SOL    HW210104   1.502   1.213   3.455 -2.8398 -0.5986  3.2845
 1753SOL     OW10105   8.824   8.984   5.318 -0.4962 -0.2410  0.1707
 1753SOL    HW110106   8.855   8.952   5.233 -0.6007 -1.2309  0.4852
 1753SOL    HW210107   8.850   9.076   5.321  2.0715 -0.9117  0.2606
 1754SOL     OW10108   6.307   1.482   0.563 -0.5006 -0.2543 -0.6112
 1754SOL    HW110109   6.285   1.565   0.606 -0.9784  0.0773 -1.4575
 1754SOL    HW210110   6.382   1.504   0.507  0.0618 -0.6591 -0.0274
 1755SOL     OW10111   6.309   9.488   3.829  0.3774 -0.3382  0.1811
 1755SOL    HW110112   6.270   9.486   3.742  0.8230  0.1053 -0.0331
 1755SOL    HW210113   6.300   9.399   3.862  0.7588 -0.6563 -0.5612
 1756SOL     OW10114   8.728   0.864   6.730  0.1617 -0.4019  0.4575
 1756SOL    HW110115   8.698   0.951   6.705 -0.3113 -0.7022 -0.0502
 1756SOL    HW210116   8.783   0.878   6.807 -0.1909  0.3049  0.5849
 1757SOL     OW10117   7.826   4.727   5.321  0.0505  0.2308 -0.5555
 1757SOL    HW110118   7.819   4.746   5.415  0.7869  2.0788 -0.8367
 1757SOL    HW210119   7.920   4.710   5.307 -0.2245 -1.2850 -0.7758
 1758SOL     OW10120   8.741   6.511   5.142 -0.0759 -0.2061 -0.8911
 1758SOL    HW110121   8.797   6.444   5.102  1.9311  2.0570 -2.0892
 1758SOL    HW210122   8.695   6.551   5.069  0.5068  1.2418 -0.4888
 1759SOL     OW10123   9.557   1.887   2.463  0.8022  0.2528 -0.1545
 1759SOL    HW110124   9.478   1.834   2.456  0.6279  0.5808 -0.6456
 1759SOL    HW210125   9.608   1.844   2.532  1.2343 -1.2963 -1.3857
 1760SOL     OW10126   3.266   2.044   8.453  0.1753  0.1907  0.1983
 1760SOL    HW110127   3.246   1.953   8.434  0.6968  0.0826  0.1493
 1760SOL    HW210128   3.181   2.088   8.453 -0.2800 -0.6019  1.9307
 1761SOL     OW10129   3.086   4.519   8.245  1.0242 -0.1314 -0.2908
 1761SOL    HW110130   3.171   4.535   8.204  0.9040 -1.4656 -1.1260
 1761SOL    HW210131   3.101   4.535   8.338  2.0296  0.2334 -0.5021
 1762SOL     OW10132   9.217   0.761   2.362 -0.5440 -0.4339 -0.3687
 1762SOL    HW110133   9.131   0.726   2.386 -0.8821  0.9444  0.5671
 1762SOL    HW210134   9.221   0.754   2.267 -3.6165  3.4969 -1.0346
 1763SOL     OW10135   0.578   9.036   2.060  0.4128  0.2490  0.1715
 1763SOL    HW110136   0.601   9.093   1.987 -1.0456  0.4358 -0.1522
 1763SOL    HW210137   0.483   9.033   2.060  0.3563  0.6886  2.4193
 1764SOL     OW10138   7.767   4.209   2.520 -0.3219  0.0496 -0.2029
 1764SOL    HW110139   7.771   4.297   2.485  0.3075 -0.3789 -1.2414
 1764SOL    HW210140   7.852   4.170   2.500 -1.6151 -1.8209 -2.6060
 1765SOL     OW10141   5.446   0.237   8.449 -0.4635 -0.2025 -0.2702
 1765SOL    HW110142   5.496   0.230   8.368 -0.5255  0.2171 -0.3449
 1765SOL    HW210143   5.372   0.178   8.436  1.0241 -2.3996  0.6295
 1766SOL     OW10144   8.126   1.530   9.343 -0.1390 -0.0793  0.0140
 1766SOL    HW110145   8.112   1.443   9.380 -1.4183 -0.0134 -0.2690
 1766SOL    HW210146   8.220   1.535   9.328 -0.2799 -2.4925 -2.4776
 1767SOL     OW10147   6.134   9.171   5.161  0.0427 -0.3734 -0.7226
 1767SOL    HW110148   6.196   9.211   5.101  0.5437 -1.4751 -0.9703
 1767SOL    HW210149   6.168   9.082   5.176 -0.1362 -0.1865  1.0861
 1768SOL     OW10150   9.014   1.434   8.455 -0.4459  0.3761  0.1360
 1768SOL    HW110151   9.072   1.472   8.389 -0.1804  0.6295  0.5121
 1768SOL    HW210152   8.946   1.389   8.405  0.3525 -0.3508 -0.3183
 1769SOL     OW10153   2.600   4.670   4.552  0.2952 -0.8124 -0.7216
 1769SOL    HW110154   2.547   4.635   4.624 -0.8990 -0.0793 -1.2064
 1769SOL    HW210155   2.689   4.672   4.587 -0.1989 -0.8067  0.6154
 1770SOL     OW10156   7.575   9.063   7.560 -0.2870 -0.2203 -0.2865
 1770SOL    HW110157   7.615   9.149   7.572 -0.2059 -0.1045 -1.3321
 1770SOL    HW210158   7.607   9.033   7.475 -1.1959 -0.7905 -0.4445
 1771SOL     OW10159   9.013   8.075   5.045  0.3283  0.3156 -0.0169
 1771SOL    HW110160   9.040   8.062   5.136  3.6432 -0.6433 -0.9743
 1771SOL    HW210161   9.072   8.018   4.994 -1.9076  0.2065 -2.7441
 1772SOL     OW10162   1.807   3.417   4.580 -0.2993 -0.0496 -0.0167
 1772SOL    HW110163   1.849   3.501   4.598  0.4938 -0.9761  2.9112
 1772SOL    HW210164   1.713   3.434   4.587 -0.1888  0.7521 -0.4111
 1773SOL     OW10165   5.024   8.707   5.311  0.0533  0.3654 -0.2999
 1773SOL    HW110166   5.090   8.776   5.301  0.6624  0.2192  2.0813
 1773SOL    HW210167   5.002   8.682   5.221  0.2935  3.1817 -1.2369
 1774SOL     OW10168   2.128   7.324   1.230 -0.2611  0.2623  0.1415
 1774SOL    HW110169   2.144   7.236   1.265  0.5539  0.3191 -0.0597
 1774SOL    HW210170   2.151   7.383   1.302  2.4951  0.4291 -0.7368
 1775SOL     OW10171   6.169   1.431   4.949  0.3391 -0.2771  0.1138
 1775SOL    HW110172   6.216   1.492   5.005 -1.7389 -0.4369  2.2041
 1775SOL    HW210173   6.094   1.403   5.002 -0.8038 -1.8081 -2.1425
 1776SOL     OW10174   4.335   2.658   2.270 -0.0160 -0.2091 -0.4025
 1776SOL    HW110175   4.255   2.673   2.320  0.7280  0.2858  0.6873
 1776SOL    HW210176   4.360   2.745   2.238 -0.7731 -0.5981 -2.1207
 1777SOL     OW10177   6.009   4.117   8.444 -0.2261 -0.1663  0.0458
 1777SOL    HW110178   6.089   4.169   8.437 -0.0659 -0.4559 -0.2953
 1777SOL    HW210179   5.955   4.164   8.508  0.3109 -0.0875  0.4461
 1778SOL     OW10180   2.922   0.059   6.487  0.0238 -0.0208  0.1000
 1778SOL    HW110181   2.977   0.120   6.536  0.6999 -1.4407  1.1919
 1778SOL    HW210182   2.833   0.090   6.502  0.4340  1.8792 -1.0798
 1779SOL     OW10183   1.580   8.066   6.148 -0.0200  0.1054 -0.1640
 1779SOL    HW110184   1.557   8.155   6.176 -1.6557 -0.3732  0.1426
 1779SOL    HW210185   1.503   8.037   6.099 -0.5416 -2.0098  1.7668
 1780SOL     OW10186   3.697   6.651   4.181 -0.2305  0.5124 -0.2199
 1780SOL    HW110187   3.669   6.614   4.098  0.3779  0.3194 -0.3446
 1780SOL    HW210188   3.789   6.625   4.189  0.3314  2.2761 -0.4797
 1781SOL     OW10189   5.744   1.615   4.572  0.0104 -0.3099 -0.3951
 1781SOL    HW110190   5.782   1.527   4.578 -0.2817 -0.4859 -1.0279
 1781SOL    HW210191   5.670   1.605   4.512  0.8091  0.6398 -1.6055
 1782SOL     OW10192   2.786   1.850   3.909  0.3206  0.5467 -0.0498
 1782SOL    HW110193   2.825   1.805   3.985  1.9565  1.4848 -0.2774
 1782SOL    HW210194   2.796   1.787   3.837  1.3088  0.6933 -0.0614
 1783SOL     OW10195   0.539   4.591   9.637  0.0852  0.0892 -0.3619
 1783SOL    HW110196   0.633   4.607   9.634  0.7451 -2.1820  3.0305
 1783SOL    HW210197   0.517   4.593   9.730 -2.7780 -1.7296 -0.8577
 1784SOL     OW10198   4.863   8.050   0.875  0.5978 -0.2452 -0.2280
 1784SOL    HW110199   4.831   8.001   0.951  0.8917  0.6676  0.4949
 1784SOL    HW210200   4.958   8.044   0.880  0.6209 -0.7236 -0.9095
 1785SOL     OW10201   4.535   1.362   9.351 -0.0128  0.0763 -0.1927
 1785SOL    HW110202   4.522   1.375   9.257  0.6750 -0.0978 -0.3190
 1785SOL    HW210203   4.624   1.393   9.367 -0.4676  1.0504  0.5920
 1786SOL     OW10204   3.610   1.322   8.374  0.6949  0.0238 -0.7559
 1786SOL    HW110205   3.543   1.254   8.386  1.9905 -1.5153 -1.7981
 1786SOL    HW210206   3.648   1.333   8.461 -1.4605  1.6274  0.0846
 1787SOL     OW10207   6.837   4.269   1.760  0.1582  0.0262  0.1580
 1787SOL    HW110208   6.918   4.262   1.709 -0.9708  1.1267 -1.9132
 1787SOL    HW210209   6.774   4.309   1.700 -2.3872 -2.1077  1.1854
 1788SOL     OW10210   7.502   3.047   3.286  0.8461 -0.3509  0.0944
 1788SOL    HW110211   7.410   3.072   3.282 -0.3745 -3.8020  1.8712
 1788SOL    HW210212   7.539   3.100   3.357 -0.0222  0.3764  0.0208
 1789SOL     OW10213   3.266   3.874   7.618  0.1667  0.5806 -0.2909
 1789SOL    HW110214   3.232   3.879   7.707 -0.1220 -0.6540 -0.3189
 1789SOL    HW210215   3.227   3.950   7.574 -0.1181  0.8963  0.4737
 1790SOL     OW10216   0.705   8.352   0.338  0.2596  0.9717  0.4736
 1790SOL    HW110217   0.614   8.381   0.349  0.3792  1.4991  0.0692
 1790SOL    HW210218   0.751   8.385   0.415 -0.6576 -2.6272  2.8520
 1791SOL     OW10219   6.835   3.663   6.291 -0.2733 -0.2203 -0.4202
 1791SOL    HW110220   6.894   3.599   6.250 -1.1949 -1.2030 -0.2407
 1791SOL    HW210221   6.888   3.742   6.299  0.4185 -0.4702 -2.0966
 1792SOL     OW10222   7.391   3.060   6.216 -0.2514 -0.1226  0.5125
 1792SOL    HW110223   7.457   3.006   6.258 -0.6337 -1.1763 -0.2009
 1792SOL    HW210224   7.439   3.110   6.150  0.0223  0.0467  0.8386
 1793SOL     OW10225   3.598   9.462   6.113  0.1888 -0.4616  0.0244
 1793SOL    HW110226   3.548   9.383   6.132  0.0790  0.0490  2.1040
 1793SOL    HW210227   3.637   9.487   6.197 -0.2399  1.9932 -0.4196
 1794SOL     OW10228   1.821   5.800   5.060  0.0964  0.1400 -0.2157
 1794SOL    HW110229   1.731   5.812   5.089  0.3462 -0.8315  1.0576
 1794SOL    HW210230   1.864   5.884   5.079  0.0549 -0.1999  1.5787
 1795SOL     OW10231   1.013   6.869   2.992 -1.1488  0.2567 -0.6297
 1795SOL    HW110232   1.010   6.963   3.011 -2.0992 -0.0986  1.1896
 1795SOL    HW210233   1.051   6.829   3.070 -1.6200 -0.9519 -0.9894
 1796SOL     OW10234   9.010   1.898   5.071  0.4070  0.2510 -0.2768
 1796SOL    HW110235   8.951   1.825   5.090 -0.6197  0.8806 -0.9371
 1796SOL    HW210236   8.951   1.971   5.050  1.3987  1.3908  0.7916
 1797SOL     OW10237   5.858   4.116   1.668 -0.1559 -0.1280  0.1037
 1797SOL    HW110238   5.818   4.085   1.586 -0.5927  1.0027 -0.1275
 1797SOL    HW210239   5.790   4.169   1.710  0.6263  0.6805  0.3760
 1798SOL     OW10240   7.482   5.087   4.695  0.0200 -0.0950 -0.5637
 1798SOL    HW110241   7.424   5.142   4.643  0.5608  0.3362 -0.7236
 1798SOL    HW210242   7.470   5.117   4.785 -0.0349 -0.0375 -0.5898
 1799SOL     OW10243   1.538   5.391   8.201 -0.2663  0.8753  0.2006
 1799SOL    HW110244   1.489   5.344   8.134  0.0011  0.8701  0.0073
 1799SOL    HW210245   1.617   5.338   8.214  0.5497  1.8234 -0.7880
 1800SOL     OW10246   1.185   9.359   1.598 -0.1951  0.0738 -0.3232
 1800SOL    HW110247   1.164   9.420   1.668 -0.9936 -1.2180  0.6197
 1800SOL    HW210248   1.107   9.304   1.589  0.0030 -0.0000 -2.0313
 1801SOL     OW10249   4.874   4.236   8.286  0.2946 -0.0237  0.1524
 1801SOL    HW110250   4.898   4.243   8.378  1.0372 -0.9753  0.0518
 1801SOL    HW210251   4.780   4.252   8.284 -0.1533 -2.1463  1.3929
 1802SOL     OW10252   4.219   6.431   2.499 -0.7420 -0.1290 -0.0959
 1802SOL    HW110253   4.294   6.382   2.465 -1.4665 -0.2088 -1.6557
 1802SOL    HW210254   4.253   6.519   2.513 -0.4550 -0.0257 -1.3036
 1803SOL     OW10255   2.034   6.015   8.169  0.0212  0.4416  0.3303
 1803SOL    HW110256   2.073   5.948   8.224  0.0248 -1.7453 -2.1410
 1803SOL    HW210257   2.088   6.017   8.090 -1.8334  1.0514 -1.0039
 1804SOL     OW10258   1.141   2.398   9.048  0.1005 -0.0003 -0.0700
 1804SOL    HW110259   1.137   2.445   8.964 -1.3343  1.2531  0.6579
 1804SOL    HW210260   1.212   2.441   9.096  2.5660 -2.2467 -1.4402
 1805SOL     OW10261   5.408   1.952   0.018 -0.3182  0.6213 -0.5624
 1805SOL    HW110262   5.349   1.887  -0.021  0.6712 -0.2984 -0.5676
 1805SOL    HW210263   5.369   1.972   0.103  0.6179 -1.8429  0.5339
 1806SOL     OW10264   4.169   3.357   9.680 -0.7525  0.2587 -0.0950
 1806SOL    HW110265   4.080   3.391   9.670 -0.6795 -0.1433 -2.9360
 1806SOL    HW210266   4.225   3.433   9.665 -0.6318 -0.1582 -1.9435
 1807SOL     OW10267   6.392   0.089   6.851 -0.1967  0.4167  0.1570
 1807SOL    HW110268   6.400   0.017   6.913  2.9144 -0.6093 -1.2230
 1807SOL    HW210269   6.301   0.084   6.820 -0.7714 -1.2902  1.9093
 1808SOL     OW10270   3.265   7.016   3.212 -0.6236  0.3409 -0.1094
 1808SOL    HW110271   3.345   6.968   3.191 -0.1362  0.0481  2.1912
 1808SOL    HW210272   3.194   6.962   3.176  0.0924 -0.3004 -0.5921
 1809SOL     OW10273   2.226   4.811   8.253 -0.6541 -0.0623  0.0969
 1809SOL    HW110274   2.227   4.746   8.182 -1.5654  2.3712 -2.3640
 1809SOL    HW210275   2.314   4.847   8.253  0.1002 -1.7618  2.0336
 1810SOL     OW10276   6.583   3.447   2.176 -0.3415  0.3126  0.1031
 1810SOL    HW110277   6.519   3.487   2.117  0.8968 -1.2659 -2.4488
 1810SOL    HW210278   6.666   3.489   2.154  0.3023 -0.9413  0.0490
 1811SOL     OW10279   9.664   0.740   8.471  0.0304  0.9032 -0.2296
 1811SOL    HW110280   9.756   0.748   8.448 -0.1961 -0.6905 -1.9312
 1811SOL    HW210281   9.629   0.829   8.465  1.0701  1.2553 -1.4248
 1812SOL     OW10282   6.919   0.845   1.935  0.4476  0.2094  0.8287
 1812SOL    HW110283   6.844   0.823   1.990  0.8219  0.8484  1.6240
 1812SOL    HW210284   6.989   0.864   1.997  1.6060 -1.4281  0.0924
 1813SOL     OW10285   1.861   2.729   2.181  0.1021  0.1302 -0.0227
 1813SOL    HW110286   1.835   2.637   2.175 -0.2324 -0.0879  3.2841
 1813SOL    HW210287   1.779   2.776   2.193  0.3800  0.7571 -0.5119
 1814SOL     OW10288   0.489   4.254   1.476  0.0551 -0.2380 -0.2529
 1814SOL    HW110289   0.409   4.277   1.429  0.7647  1.0422 -0.8815
 1814SOL    HW210290   0.527   4.183   1.425  0.5080  0.7353 -1.3115
 1815SOL     OW10291   3.536   0.719   1.321  0.1362 -0.0895  0.0302
 1815SOL    HW110292   3.605   0.654   1.314  0.2876  0.1357 -0.6394
 1815SOL    HW210293   3.568   0.794   1.271 -0.6589 -0.0438 -0.4374
 1816SOL     OW10294   0.875   3.179   8.607  0.2738  0.6692  0.2813
 1816SOL    HW110295   0.889   3.106   8.547 -1.9158  1.1217 -0.8775
 1816SOL    HW210296   0.902   3.256   8.558  2.5395  0.7613  1.4859
 1817SOL     OW10297   0.837   3.717   7.941  0.3629  0.1361  0.5443
 1817SOL    HW110298   0.749   3.682   7.926 -0.2693  2.1248 -0.8391
 1817SOL    HW210299   0.848   3.717   8.036 -1.7269  1.1759  0.8276
 1818SOL     OW10300   4.449   5.553   5.179 -0.1656 -0.1827 -0.1333
 1818SOL    HW110301   4.523   5.613   5.171 -0.3682 -0.0746 -1.3853
 1818SOL    HW210302   4.392   5.593   5.244  1.1658 -0.6018  1.3667
 1819SOL     OW10303   6.535   2.102   0.646  0.1141 -0.2729  0.3345
 1819SOL    HW110304   6.582   2.109   0.563  1.6165 -2.7251  0.9031
 1819SOL    HW210305   6.446   2.075   0.621  0.8044 -1.9001 -0.4490
 1820SOL     OW10306   2.115   0.865   8.144  0.2692  0.0899 -0.0520
 1820SOL    HW110307   2.025   0.870   8.175 -0.0696 -1.2380 -0.7741
 1820SOL    HW210308   2.108   0.846   8.050  1.3029  0.5944 -0.2548
 1821SOL     OW10309   8.844   9.173   2.044  0.3299 -0.0736 -0.0533
 1821SOL    HW110310   8.920   9.133   2.085  0.7725 -0.1010 -0.8817
 1821SOL    HW210311   8.774   9.163   2.108  1.1971  0.6432  1.0494
 1822SOL     OW10312   4.897   0.019   2.410 -0.0354 -0.7047 -0.7874
 1822SOL    HW110313   4.878   0.050   2.322  1.1701  0.0522 -0.7950
 1822SOL    HW210314   4.938   0.093   2.454 -1.7514 -0.6280  0.8432
 1823SOL     OW10315   7.866   0.260   4.028 -0.4655 -0.5133  0.1682
 1823SOL    HW110316   7.927   0.327   4.060  2.3022 -2.2011 -1.2368
 1823SOL    HW210317   7.863   0.274   3.933  0.4535 -2.5200 -0.2047
 1824SOL     OW10318   7.789   0.997   6.394  0.2464 -0.1311 -0.2848
 1824SOL    HW110319   7.819   0.969   6.307 -1.8124  0.3221 -1.1893
 1824SOL    HW210320   7.838   1.078   6.410  1.9753 -1.1375 -0.1707
 1825SOL     OW10321   7.020   7.530   7.747 -0.2991 -0.2409  0.4316
 1825SOL    HW110322   7.076   7.585   7.693  0.1734 -0.1488  1.0071
 1825SOL    HW210323   6.933   7.539   7.709 -0.2384  0.9208  0.5311
 1826SOL     OW10324   7.420   1.740   6.741  0.5002  0.1144 -0.2541
 1826SOL    HW110325   7.368   1.819   6.758 -0.7974 -0.8041  0.1466
 1826SOL    HW210326   7.490   1.743   6.806 -0.0226  0.5153  0.2978
 1827SOL     OW10327   7.029   8.208   6.948  0.1473  0.0052 -0.3969
 1827SOL    HW110328   7.081   8.237   6.873  1.8360 -0.5602  0.4964
 1827SOL    HW210329   7.094   8.178   7.012 -1.2351  0.5196  1.3221
 1828SOL     OW10330   1.688   0.443   0.450  0.2883 -0.4280  0.3671
 1828SOL    HW110331   1.752   0.427   0.381  0.1903 -0.2809  0.2426
 1828SOL    HW210332   1.738   0.489   0.518 -0.1992  1.8979 -0.7241
 1829SOL     OW10333   2.969   1.206   3.197 -0.0096 -0.5571  0.0317
 1829SOL    HW110334   2.958   1.260   3.275 -0.9783 -2.0389  0.9652
 1829SOL    HW210335   2.987   1.118   3.230  1.4139 -0.8798 -1.4436
 1830SOL     OW10336   2.911   1.356   7.027 -0.0773  0.1689 -0.0324
 1830SOL    HW110337   2.976   1.287   7.015  1.0802  1.4177 -1.1695
 1830SOL    HW210338   2.946   1.410   7.098 -1.0425 -0.4261  0.9424
 1831SOL     OW10339   1.541   3.156   7.933 -0.0094  0.0359 -0.3184
 1831SOL    HW110340   1.626   3.131   7.969  0.1204 -0.8247 -1.1684
 1831SOL    HW210341   1.522   3.089   7.867 -0.5188  1.1810 -1.3927
 1832SOL     OW10342   3.149   2.263   5.308 -0.0687  0.0273 -0.0537
 1832SOL    HW110343   3.109   2.342   5.345 -0.1199  0.4619 -1.0016
 1832SOL    HW210344   3.079   2.197   5.311 -0.1559  0.1324  0.3510
 1833SOL     OW10345   1.457   6.901   4.765 -0.0528 -0.2935 -0.1854
 1833SOL    HW110346   1.455   6.809   4.739  0.3745 -0.1916 -0.5873
 1833SOL    HW210347   1.546   6.915   4.796 -0.2436 -0.1251  0.2955
 1834SOL     OW10348   3.434   4.010   8.979  0.2626  0.5571  0.1190
 1834SOL    HW110349   3.371   4.011   8.907  1.1137  1.0309 -0.6340
 1834SOL    HW210350   3.404   3.938   9.035 -0.7034  0.5054 -0.4399
 1835SOL     OW10351   7.648   1.520   1.087  0.4109  0.1233  0.1295
 1835SOL    HW110352   7.643   1.450   1.153  2.0100  0.1970  0.3724
 1835SOL    HW210353   7.720   1.493   1.030 -0.3406  0.5380 -1.0501
 1836SOL     OW10354   9.055   1.500   0.916 -0.0873 -0.2736 -0.5583
 1836SOL    HW110355   8.998   1.559   0.965  0.8899 -0.6463  1.0896
 1836SOL    HW210356   9.035   1.413   0.950  0.6913 -0.5300 -0.7355
 1837SOL     OW10357   8.295   1.336   2.086  0.2059  0.0699  0.0515
 1837SOL    HW110358   8.258   1.423   2.097 -0.0906 -0.1148  0.5774
 1837SOL    HW210359   8.274   1.312   1.996 -1.1524 -0.1093  0.3905
 1838SOL     OW10360   4.407   3.531   0.703  0.0034  0.3007  0.4908
 1838SOL    HW110361   4.434   3.620   0.724  0.3830  0.4940 -0.7652
 1838SOL    HW210362   4.473   3.476   0.744  0.3577  0.6357  0.3758
 1839SOL     OW10363   4.043   7.139   5.491 -0.7187  0.0504 -0.2230
 1839SOL    HW110364   4.109   7.191   5.537 -0.5970 -0.1958 -0.1226
 1839SOL    HW210365   4.011   7.076   5.555 -3.3220  2.1392  0.7265
 1840SOL     OW10366   0.503   1.027   8.394  0.3423  1.1334  0.4477
 1840SOL    HW110367   0.463   0.978   8.322 -1.2988  0.3898  1.7863
 1840SOL    HW210368   0.460   1.112   8.392  0.3440  1.1355  0.4864
 1841SOL     OW10369   9.228   3.917   8.352  0.5737  0.2386 -0.3338
 1841SOL    HW110370   9.270   3.958   8.428 -0.4953  0.0015  0.4117
 1841SOL    HW210371   9.219   3.988   8.289  1.5322  0.4241 -0.2826
 1842SOL     OW10372   5.806   3.934   0.986 -0.4018 -0.3411  0.4762
 1842SOL    HW110373   5.842   3.919   0.898 -1.0110 -0.8744  0.3023
 1842SOL    HW210374   5.712   3.917   0.975 -0.4360 -0.7194  1.3001
 1843SOL     OW10375   3.620   5.446   4.141 -0.3015 -0.2424 -0.5299
 1843SOL    HW110376   3.609   5.541   4.148  0.7352  0.2924 -4.1059
 1843SOL    HW210377   3.708   5.429   4.173  0.2910  0.3745 -1.7567
 1844SOL     OW10378   4.937   4.303   2.569 -0.2450  0.3926 -0.2804
 1844SOL    HW110379   4.873   4.326   2.501 -0.9501  1.4513  0.7072
 1844SOL    HW210380   4.981   4.385   2.590  0.1375  0.0264  0.3729
 1845SOL     OW10381   3.154   5.803   6.473  0.2405  0.2568  0.2548
 1845SOL    HW110382   3.117   5.718   6.449  1.9308 -0.5382  0.2514
 1845SOL    HW210383   3.141   5.858   6.396  1.1858 -0.7464 -0.6628
 1846SOL     OW10384   4.482   0.599   8.897 -0.0400  1.2013  0.2981
 1846SOL    HW110385   4.406   0.541   8.908 -1.2027  2.9014  1.7621
 1846SOL    HW210386   4.448   0.676   8.853  1.3520  1.1033 -1.0348
 1847SOL     OW10387   4.254   4.807   8.647  0.3414 -0.5226 -0.0689
 1847SOL    HW110388   4.246   4.898   8.617  1.7320 -0.6262 -0.8064
 1847SOL    HW210389   4.189   4.759   8.596 -1.0980  0.1843  1.0220
 1848SOL     OW10390   0.316   8.954   9.283 -0.1564  0.3090  0.3377
 1848SOL    HW110391   0.269   9.030   9.247  0.5998  0.6759  0.0939
 1848SOL    HW210392   0.345   8.983   9.370  0.0552  0.2633  0.2820
 1849SOL     OW10393   5.419   6.687   7.756 -0.0529 -0.6397  0.2640
 1849SOL    HW110394   5.513   6.703   7.751 -0.3228  0.6332 -1.9567
 1849SOL    HW210395   5.391   6.739   7.832  0.7619  0.5589 -0.2250
 1850SOL     OW10396   6.298   1.611   5.104  0.3346  0.5054 -0.2912
 1850SOL    HW110397   6.337   1.629   5.190 -0.5562 -0.5511  0.3638
 1850SOL    HW210398   6.369   1.625   5.042  0.7928  2.1041  0.5218
 1851SOL     OW10399   4.915   6.741   7.723  0.1083 -0.0131  0.5423
 1851SOL    HW110400   4.833   6.737   7.674 -0.9607  1.8484  2.0451
 1851SOL    HW210401   4.983   6.743   7.656 -1.1504 -0.0451 -0.7876
 1852SOL     OW10402   1.798   3.061   8.024  0.0246  0.5021 -0.0050
 1852SOL    HW110403   1.812   2.982   7.972  1.9694  0.8538 -0.0888
 1852SOL    HW210404   1.805   3.032   8.114  0.0324  0.4525 -0.0219
 1853SOL     OW10405   0.396   5.233   2.025  0.2606 -0.5345  0.3452
 1853SOL    HW110406   0.313   5.248   2.071  0.3426  1.3075 -0.0403
 1853SOL    HW210407   0.460   5.283   2.074  0.3896  1.2939 -1.5747
 1854SOL     OW10408   0.145   5.804   1.647 -0.8893  0.0128  0.5013
 1854SOL    HW110409   0.157   5.782   1.739 -1.3751  1.1519  0.8535
 1854SOL    HW210410   0.083   5.738   1.615 -0.2540 -0.7566  0.8169
 1855SOL     OW10411   7.069   4.057   1.399 -0.4032 -0.2195 -0.1024
 1855SOL    HW110412   7.130   4.001   1.350 -1.1498 -1.4684  0.3518
 1855SOL    HW210413   6.987   4.052   1.349 -0.1444  1.5629 -0.7913
 1856SOL     OW10414   3.036   1.830   8.967  0.1613 -0.8160 -0.1800
 1856SOL    HW110415   3.056   1.892   9.038 -1.2482 -0.7241  0.1715
 1856SOL    HW210416   2.949   1.797   8.989  0.5329 -2.2927 -0.8269
 1857SOL     OW10417   1.014   5.885   4.235  0.2572  0.4605 -0.4264
 1857SOL    HW110418   0.940   5.830   4.208 -0.4238  0.9577  0.3563
 1857SOL    HW210419   1.002   5.966   4.185 -0.2202  0.8600  0.3176
 1858SOL     OW10420   9.504   2.659   1.140 -0.6625 -0.1000  0.5633
 1858SOL    HW110421   9.493   2.721   1.069  2.0377  2.3857  2.1045
 1858SOL    HW210422   9.596   2.633   1.136 -0.9373 -1.5051  1.9296
 1859SOL     OW10423   2.191   5.673   0.821 -0.4438 -0.0635  0.3057
 1859SOL    HW110424   2.143   5.614   0.879 -0.6343 -1.2945 -1.0651
 1859SOL    HW210425   2.234   5.615   0.758 -0.1540  1.2357 -0.7251
 1860SOL     OW10426   0.408   5.244   1.310 -0.4791 -0.1362 -0.1727
 1860SOL    HW110427   0.319   5.278   1.296 -1.3519 -2.2236 -0.0279
 1860SOL    HW210428   0.398   5.181   1.382  1.5289  1.0591  1.2477
 1861SOL     OW10429   4.227   2.251   0.877 -0.0827  0.1968 -0.3291
 1861SOL    HW110430   4.246   2.323   0.937  1.1242  0.3114 -0.8165
 1861SOL    HW210431   4.177   2.188   0.929 -0.4072  0.9997  0.3423
 1862SOL     OW10432   2.233   8.215   6.554 -0.2442 -0.4369 -0.3444
 1862SOL    HW110433   2.217   8.285   6.617  0.1412  0.9984 -1.7554
 1862SOL    HW210434   2.309   8.168   6.588  0.2056  0.5592  0.0501
 1863SOL     OW10435   8.580   7.639   0.658  0.6029  0.1355 -0.1356
 1863SOL    HW110436   8.622   7.571   0.710 -2.3297  0.4269  3.0030
 1863SOL    HW210437   8.510   7.594   0.611 -0.9273  0.7337  1.4434
 1864SOL     OW10438   7.223   5.308   1.092 -0.1520  0.0483 -0.0873
 1864SOL    HW110439   7.228   5.263   1.008  0.1351  0.0114 -0.0512
 1864SOL    HW210440   7.159   5.258   1.143 -0.3024  0.0521 -0.2721
 1865SOL     OW10441   2.154   8.563   7.389 -0.0669 -0.5284  0.2441
 1865SOL    HW110442   2.109   8.481   7.409 -1.0959 -0.9081 -3.0831
 1865SOL    HW210443   2.244   8.536   7.369 -0.5772 -1.0667 -1.5834
 1866SOL     OW10444   5.339   7.249   6.746 -0.0000  0.1544 -0.1800
 1866SOL    HW110445   5.305   7.160   6.742  1.8389 -0.5607 -1.9070
 1866SOL    HW210446   5.388   7.253   6.828  0.9803 -0.8938 -0.6876
 1867SOL     OW10447   4.518   4.875   4.404 -0.4264  0.5057  0.2509
 1867SOL    HW110448   4.576   4.950   4.415  0.7266 -0.1385 -0.9655
 1867SOL    HW210449   4.529   4.850   4.312 -0.6837 -1.1996  0.6377
 1868SOL     OW10450   2.995   7.164   1.691 -0.6858  0.5619  0.4955
 1868SOL    HW110451   3.006   7.088   1.748 -0.7118 -0.1670 -0.4379
 1868SOL    HW210452   2.914   7.146   1.643 -0.7705  1.2513  0.3751
 1869SOL     OW10453   9.314   9.115   9.596  0.1331  0.0848  0.2462
 1869SOL    HW110454   9.402   9.080   9.584 -0.3668 -1.4048  0.6462
 1869SOL    HW210455   9.265   9.042   9.635 -0.9742  1.2663  1.1322
 1870SOL     OW10456   5.103   2.641   1.613  0.0596 -0.4453 -0.1480
 1870SOL    HW110457   5.091   2.736   1.610  0.6329 -0.3931 -0.9906
 1870SOL    HW210458   5.190   2.629   1.649  0.0798 -0.6492 -0.2643
 1871SOL     OW10459   9.000   6.250   9.750 -0.1421  0.4637  0.0988
 1871SOL    HW110460   9.050   6.203   9.817  0.1262  1.7872  0.8471
 1871SOL    HW210461   8.924   6.285   9.797 -0.3618  0.7471 -0.4565
 1872SOL     OW10462   2.671   5.039   6.792  1.2417  0.4467 -0.0169
 1872SOL    HW110463   2.603   4.980   6.760  2.0793 -0.3729 -0.3337
 1872SOL    HW210464   2.695   5.004   6.878  1.9680  0.1225 -0.3452
 1873SOL     OW10465   6.970   8.246   1.656  0.0752  0.7342 -0.4170
 1873SOL    HW110466   6.979   8.169   1.712 -1.0016  0.9339  0.0731
 1873SOL    HW210467   7.009   8.220   1.573  0.3069 -0.1128 -0.0591
 1874SOL     OW10468   1.818   4.395   1.240  0.1962 -0.1266  0.3411
 1874SOL    HW110469   1.726   4.367   1.239  0.7903 -2.4093  1.6270
 1874SOL    HW210470   1.835   4.426   1.151 -1.0020 -2.7122 -0.8917
 1875SOL     OW10471   8.564   0.881   2.473  0.5744  0.3792  0.2743
 1875SOL    HW110472   8.470   0.897   2.463  0.5730  0.1738 -0.0677
 1875SOL    HW210473   8.601   0.906   2.388  0.6563 -0.7976 -0.0526
 1876SOL     OW10474   9.314   1.394   3.550 -0.0343  0.2476 -0.4335
 1876SOL    HW110475   9.245   1.361   3.608 -0.5214  1.9099  0.0100
 1876SOL    HW210476   9.395   1.372   3.595 -0.3791  0.6559  0.4271
 1877SOL     OW10477   7.295   4.462   3.350 -0.0742 -0.5978  0.5503
 1877SOL    HW110478   7.371   4.519   3.342 -1.7544  1.8878  1.1777
 1877SOL    HW210479   7.223   4.520   3.374 -1.9819 -2.9796  1.0585
 1878SOL     OW10480   5.524   5.166   9.698 -0.1291 -0.2331  0.2298
 1878SOL    HW110481   5.556   5.191   9.611 -0.5188 -0.5197 -0.0015
 1878SOL    HW210482   5.436   5.130   9.682  0.3753 -1.6687  0.5576
 1879SOL     OW10483   0.480   6.026   3.252  0.5134 -0.6358  0.4639
 1879SOL    HW110484   0.520   6.011   3.338  0.5606  1.8301  0.9527
 1879SOL    HW210485   0.547   6.074   3.203 -0.9295  1.5928  0.5169
 1880SOL     OW10486   3.324   6.572   8.207 -0.4290  0.1370 -0.3883
 1880SOL    HW110487   3.229   6.583   8.206 -0.5034  0.2801  1.8638
 1880SOL    HW210488   3.343   6.513   8.134 -2.4282 -1.1760  0.0751
 1881SOL     OW10489   1.548   3.539   4.556 -0.6330  0.0514  0.1522
 1881SOL    HW110490   1.495   3.600   4.607 -0.9087  0.8344 -1.0392
 1881SOL    HW210491   1.494   3.461   4.547 -0.9609  0.2681  0.2347
 1882SOL     OW10492   7.502   2.277   6.743 -0.3397  0.3678 -0.5295
 1882SOL    HW110493   7.433   2.218   6.771 -0.2103 -0.0282 -1.0280
 1882SOL    HW210494   7.581   2.246   6.787 -0.6114  1.2860  0.6487
 1883SOL     OW10495   6.495   3.958   5.320 -0.0467  0.3038 -0.1799
 1883SOL    HW110496   6.469   3.870   5.345 -2.8490  1.0322 -0.2390
 1883SOL    HW210497   6.586   3.965   5.350  0.9031 -3.1571 -1.7765
 1884SOL     OW10498   6.515   8.076   2.110  0.0689 -0.4752 -0.2526
 1884SOL    HW110499   6.500   8.159   2.155 -0.9420 -0.5167 -0.4989
 1884SOL    HW210500   6.605   8.053   2.133  0.9809  1.4852 -1.4755
 1885SOL     OW10501   6.622   6.868   1.418  0.8359  0.6829 -0.0213
 1885SOL    HW110502   6.555   6.892   1.482  0.1159 -0.3786 -0.3468
 1885SOL    HW210503   6.699   6.920   1.443  0.9422 -0.4971  2.3892
 1886SOL     OW10504   2.152   1.282   6.484  0.5076 -0.1710  0.5249
 1886SOL    HW110505   2.142   1.350   6.416  1.4140 -0.1639  0.3962
 1886SOL    HW210506   2.067   1.283   6.529  0.3286  0.7072  0.2107
 1887SOL     OW10507   1.575   7.077   5.093 -0.3154 -0.4184  0.2967
 1887SOL    HW110508   1.597   7.005   5.034 -1.4331  0.3931 -1.1629
 1887SOL    HW210509   1.481   7.070   5.107 -1.0633  2.4282 -2.3164
 1888SOL     OW10510   5.929   9.146   6.550  0.6384  0.7470 -0.3418
 1888SOL    HW110511   5.988   9.079   6.585 -0.4762 -0.4465 -0.6349
 1888SOL    HW210512   5.872   9.098   6.490  0.3125  2.1253 -1.1724
 1889SOL     OW10513   6.951   8.829   2.779 -0.6913  0.5441  0.1458
 1889SOL    HW110514   6.927   8.922   2.777 -1.1707  0.4283 -1.5968
 1889SOL    HW210515   6.995   8.814   2.695  1.5596 -0.2981  1.3950
 1890SOL     OW10516   5.342   4.929   9.499  0.3973  0.7980  0.0905
 1890SOL    HW110517   5.323   5.007   9.551 -1.7847  1.5868 -1.7074
 1890SOL    HW210518   5.322   4.955   9.409  0.3585 -1.6079 -0.6724
 1891SOL     OW10519   4.220   8.122   3.582 -0.1481 -0.5260  0.5280
 1891SOL    HW110520   4.165   8.197   3.606 -1.2054 -1.1599  0.1545
 1891SOL    HW210521   4.308   8.158   3.572 -0.8098  0.8396 -0.5696
 1892SOL     OW10522   0.698   7.136   1.883  0.1617 -0.0922 -0.3440
 1892SOL    HW110523   0.745   7.109   1.962  0.7068 -0.0494 -0.6459
 1892SOL    HW210524   0.630   7.070   1.872  1.8166 -1.7442 -1.3796
 1893SOL     OW10525   7.967   9.665   4.897 -0.5426  0.1894  0.3330
 1893SOL    HW110526   8.031   9.721   4.853  0.9556 -1.0918  0.7751
 1893SOL    HW210527   7.901   9.646   4.830 -1.0735  2.3684  0.1520
 1894SOL     OW10528   7.687   1.037   9.424  0.1278 -0.1924 -0.0528
 1894SOL    HW110529   7.726   0.997   9.346 -2.5553 -2.5315 -0.3866
 1894SOL    HW210530   7.609   1.083   9.391 -0.6048 -0.5473  1.1240
 1895SOL     OW10531   5.716   1.240   9.204  0.1122  0.7031  0.5677
 1895SOL    HW110532   5.692   1.248   9.296 -0.4918  0.5926  0.4232
 1895SOL    HW210533   5.754   1.325   9.181 -1.9445  1.6004  0.2926
 1896SOL     OW10534   6.952   2.106   7.261 -0.2787 -0.3036  0.0255
 1896SOL    HW110535   6.978   2.144   7.345 -0.4426 -1.9725  0.8668
 1896SOL    HW210536   6.933   2.182   7.205  0.9374  0.8475  1.1236
 1897SOL     OW10537   0.345   0.186   8.527 -0.5273 -0.0511  0.1250
 1897SOL    HW110538   0.317   0.263   8.478 -0.3853 -0.7607 -1.0927
 1897SOL    HW210539   0.287   0.183   8.603  0.1924  1.8971  0.8272
 1898SOL     OW10540   8.691   3.213   4.363 -0.3401 -0.1864  0.2466
 1898SOL    HW110541   8.736   3.289   4.325 -0.2491 -0.0799  0.5580
 1898SOL    HW210542   8.733   3.137   4.324 -0.8944 -0.0751 -0.5988
 1899SOL     OW10543   6.923   3.674   5.629  0.3454 -0.0960  0.0346
 1899SOL    HW110544   6.836   3.679   5.668  0.0756 -1.2671 -0.3465
 1899SOL    HW210545   6.934   3.756   5.582 -0.4743  0.1476  0.2615
 1900SOL     OW10546   3.695   0.751   2.433  0.0790 -0.2788 -0.3253
 1900SOL    HW110547   3.687   0.846   2.443  1.5210 -0.1654 -0.0184
 1900SOL    HW210548   3.730   0.739   2.345 -1.5666 -0.6390 -0.9634
 1901SOL     OW10549   7.950   4.726   2.391  0.3072 -0.4902  0.2732
 1901SOL    HW110550   7.869   4.683   2.363  0.3951  0.2024 -1.1214
 1901SOL    HW210551   7.923   4.815   2.413  0.4232 -0.7286  1.4305
 1902SOL     OW10552   0.492   7.194   4.816  0.5804  0.6782  0.1149
 1902SOL    HW110553   0.448   7.111   4.835 -0.1221  1.4903  2.4145
 1902SOL    HW210554   0.580   7.169   4.789  0.5528 -0.8308  1.2843
 1903SOL     OW10555   4.850   6.121   5.782  0.2117 -0.4935  0.0512
 1903SOL    HW110556   4.801   6.163   5.711 -0.6551 -0.4129  0.6916
 1903SOL    HW210557   4.941   6.122   5.751 -0.2292 -1.1359 -1.4069
 1904SOL     OW10558   1.247   4.082   5.474 -0.3851 -0.0984  0.0753
 1904SOL    HW110559   1.301   4.161   5.479  0.7249 -0.8531  0.3852
 1904SOL    HW210560   1.185   4.090   5.546 -0.4494  0.6016 -0.0525
 1905SOL     OW10561   8.334   4.001   5.402  0.2191 -0.2968 -0.5189
 1905SOL    HW110562   8.411   4.040   5.360 -0.4854 -1.4339 -3.0281
 1905SOL    HW210563   8.334   3.910   5.373  0.4510 -1.6824  3.2352
 1906SOL     OW10564   1.768   1.635   1.870  0.2433  0.0659  0.6443
 1906SOL    HW110565   1.793   1.575   1.801 -0.1699 -1.5753  1.8501
 1906SOL    HW210566   1.779   1.722   1.832  0.7980 -0.7580 -1.1834
 1907SOL     OW10567   5.185   1.378   5.455 -0.6553 -0.0961  0.2826
 1907SOL    HW110568   5.252   1.430   5.411 -0.5805 -0.4218  0.0102
 1907SOL    HW210569   5.103   1.425   5.436 -0.3647  1.0851  1.7852
 1908SOL     OW10570   1.120   9.053   4.214  0.3680 -0.4974 -0.2327
 1908SOL    HW110571   1.060   9.116   4.175 -1.0392 -0.8955  1.1771
 1908SOL    HW210572   1.201   9.103   4.228 -0.6188  0.9522  0.5935
 1909SOL     OW10573   2.149   4.083   8.362  0.0231 -0.3315  1.0480
 1909SOL    HW110574   2.099   4.005   8.386 -1.6488  0.3634  0.0647
 1909SOL    HW210575   2.186   4.114   8.444 -0.1757 -1.5531  1.6263
 1910SOL     OW10576   4.654   6.109   3.488  0.4948 -0.6346  0.8904
 1910SOL    HW110577   4.623   6.049   3.420 -0.9658 -0.4739  1.3863
 1910SOL    HW210578   4.639   6.196   3.451 -1.7897 -0.5022  1.9840
 1911SOL     OW10579   5.782   0.277   7.377  0.3622  0.3245 -0.6043
 1911SOL    HW110580   5.742   0.337   7.441 -0.8234 -0.1647 -0.8600
 1911SOL    HW210581   5.830   0.335   7.317 -1.0738  1.0907 -1.0685
 1912SOL     OW10582   0.724   4.815   8.151  0.0285 -0.1261 -0.0679
 1912SOL    HW110583   0.797   4.762   8.183 -0.9610 -0.7524  1.2771
 1912SOL    HW210584   0.764   4.896   8.120  1.1748  0.0569  1.7810
 1913SOL     OW10585   1.891   9.493   9.617  0.0280 -0.0866 -0.3366
 1913SOL    HW110586   1.834   9.424   9.650  0.7367 -0.9282 -0.8387
 1913SOL    HW210587   1.972   9.485   9.667  0.4140 -0.1543 -0.9603
 1914SOL     OW10588   8.045   9.058   1.607 -0.2073 -0.2679  0.5069
 1914SOL    HW110589   7.975   8.998   1.632 -1.0797  1.2562  1.8892
 1914SOL    HW210590   8.026   9.079   1.515  0.2233 -2.1812 -0.0639
 1915SOL     OW10591   6.060   5.998   8.306 -0.1012  0.4263  0.4200
 1915SOL    HW110592   6.143   5.969   8.268 -0.5580 -1.5275  0.8340
 1915SOL    HW210593   6.008   5.918   8.315 -0.6047  0.9590  3.6947
 1916SOL     OW10594   4.957   9.564   0.580 -0.4251 -0.2051  0.1987
 1916SOL    HW110595   5.015   9.640   0.587  0.2948 -0.7733  0.6009
 1916SOL    HW210596   4.988   9.517   0.503 -1.5426  0.4499 -0.6667
 1917SOL     OW10597   1.227   3.180   6.223  0.2687 -0.5378  0.1312
 1917SOL    HW110598   1.288   3.122   6.268  0.9317  0.3593  0.4219
 1917SOL    HW210599   1.241   3.161   6.130  0.6798 -0.6472  0.2113
 1918SOL     OW10600   6.301   8.900   2.641 -0.1448 -0.3566 -0.0774
 1918SOL    HW110601   6.233   8.836   2.660 -0.2128 -0.3227 -0.2059
 1918SOL    HW210602   6.266   8.983   2.673  0.1123 -0.4529  0.4553
 1919SOL     OW10603   9.060   5.417   0.986 -0.4755 -0.6919  0.0272
 1919SOL    HW110604   8.981   5.420   1.039 -1.2378 -1.2552 -1.0434
 1919SOL    HW210605   9.093   5.328   0.996  0.4792 -0.2512  1.0729
 1920SOL     OW10606   9.472   4.463   8.945  0.2831 -0.2474 -0.2035
 1920SOL    HW110607   9.490   4.377   8.908  0.2224 -1.6934  2.8561
 1920SOL    HW210608   9.484   4.524   8.871  4.0587 -2.4253 -1.6408
 1921SOL     OW10609   9.287   8.430   9.103  0.0223  0.0997  0.3834
 1921SOL    HW110610   9.311   8.368   9.034  0.2270 -0.0970  0.6335
 1921SOL    HW210611   9.222   8.384   9.155 -1.1521  0.7331 -0.4634
 1922SOL     OW10612   7.936   2.859   6.108  0.1745  0.1525 -0.0792
 1922SOL    HW110613   7.903   2.910   6.033 -0.2911 -0.1503 -0.0835
 1922SOL    HW210614   7.858   2.840   6.160  0.3527 -0.4898 -0.0377
 1923SOL     OW10615   6.800   5.277   3.883  0.6050  0.0139  0.2086
 1923SOL    HW110616   6.713   5.317   3.886 -0.1024 -1.4211  0.1410
 1923SOL    HW210617   6.791   5.207   3.818  1.4724 -0.9128  1.0540
 1924SOL     OW10618   0.236   8.881   2.880  0.7741  0.3723  0.1463
 1924SOL    HW110619   0.309   8.939   2.902  0.5516  2.0057 -2.8438
 1924SOL    HW210620   0.227   8.889   2.785 -2.5477 -0.6806  0.2366
 1925SOL     OW10621   0.002   4.760   5.291  0.7838  0.0486 -0.0175
 1925SOL    HW110622   0.029   4.827   5.353 -1.4952  0.4106  0.6902
 1925SOL    HW210623  -0.046   4.807   5.223 -0.2437 -0.7507  0.1180
 1926SOL     OW10624   8.163   4.495   1.862  0.1911  0.5887  0.1813
 1926SOL    HW110625   8.149   4.568   1.802 -0.5170  0.7903  0.5814
 1926SOL    HW210626   8.217   4.433   1.813  1.9465  1.9630  0.2843
 1927SOL     OW10627   3.426   8.921   3.488 -0.2819 -0.0593  0.1322
 1927SOL    HW110628   3.511   8.902   3.447 -0.4877 -1.0252  0.1236
 1927SOL    HW210629   3.430   8.877   3.573 -1.3252 -1.4112 -0.4834
 1928SOL     OW10630   5.478   6.656   4.969 -0.2486  0.6505  0.3160
 1928SOL    HW110631   5.543   6.697   5.026  0.5678 -1.4505  1.0248
 1928SOL    HW210632   5.528   6.627   4.893 -0.2449 -1.1286  0.9425
 1929SOL     OW10633   5.617   8.599   8.930 -0.5628  0.0616 -0.3476
 1929SOL    HW110634   5.597   8.648   9.010 -1.4109  0.4099 -0.7512
 1929SOL    HW210635   5.599   8.508   8.952 -0.2820  0.0892  0.0109
 1930SOL     OW10636   4.050   1.044   0.515 -0.0547  0.2579 -0.0392
 1930SOL    HW110637   4.073   0.969   0.570 -1.8231  0.5950  1.2206
 1930SOL    HW210638   4.117   1.043   0.446  1.1050 -1.3121  1.0160
 1931SOL     OW10639   8.412   8.356   8.836  0.3350  0.0472 -0.5760
 1931SOL    HW110640   8.322   8.386   8.822 -0.4152 -0.9039  1.7769
 1931SOL    HW210641   8.408   8.262   8.824  1.0976  0.0342 -0.7820
 1932SOL     OW10642   2.668   1.972   3.514 -0.2210  0.0660  0.0135
 1932SOL    HW110643   2.586   1.948   3.557  0.1738  1.1308  1.4674
 1932SOL    HW210644   2.642   2.000   3.426 -1.3282 -0.2301  0.2290
 1933SOL     OW10645   3.076   2.967   1.099 -0.5123  0.1691  0.3716
 1933SOL    HW110646   3.081   3.055   1.060 -2.4525  0.0573 -0.2430
 1933SOL    HW210647   3.024   2.979   1.179  0.5107 -0.1893  1.1062
 1934SOL     OW10648   4.292   9.103   9.590 -0.2509 -0.0092  0.2042
 1934SOL    HW110649   4.298   9.053   9.671 -0.2399 -0.1157  0.1386
 1934SOL    HW210650   4.374   9.083   9.544 -0.7236 -0.7942 -0.3125
 1935SOL     OW10651   4.748   1.627   7.872 -0.0433  0.8543 -0.5263
 1935SOL    HW110652   4.787   1.629   7.959 -0.3996  1.7623 -0.3749
 1935SOL    HW210653   4.773   1.542   7.836 -2.1757 -0.7377  1.5042
 1936SOL     OW10654   4.861   5.980   3.101 -0.1199 -0.1973  0.2744
 1936SOL    HW110655   4.901   6.020   3.178  0.2731 -2.2169  1.2027
 1936SOL    HW210656   4.914   6.012   3.027  0.9624 -0.0234  1.0996
 1937SOL     OW10657   8.977   1.986   6.717  0.2573 -0.5188 -0.4577
 1937SOL    HW110658   9.065   2.012   6.744 -0.5633  0.5125  1.4153
 1937SOL    HW210659   8.959   2.039   6.639  0.4718  0.9897  0.4783
 1938SOL     OW10660   1.340   2.477   3.766 -0.5311  0.2634  0.2852
 1938SOL    HW110661   1.274   2.450   3.830  0.9175 -0.1536  1.6530
 1938SOL    HW210662   1.371   2.396   3.727 -1.6733  0.5357 -1.2832
 1939SOL     OW10663   2.569   6.829   4.060 -0.1594  0.0713  0.4506
 1939SOL    HW110664   2.613   6.777   4.127  0.6674  0.3402  0.1262
 1939SOL    HW210665   2.509   6.768   4.017 -2.5362  0.3969  2.9731
 1940SOL     OW10666   5.986   7.163   0.343 -0.0974  0.3151  0.1927
 1940SOL    HW110667   6.059   7.185   0.285  0.0040 -1.0049 -0.2083
 1940SOL    HW210668   5.947   7.248   0.365  2.0730  1.1517  1.1324
 1941SOL     OW10669   8.401   3.935   1.253  0.3568 -0.6060  0.1912
 1941SOL    HW110670   8.457   3.963   1.326  1.5364 -1.7003 -0.2571
 1941SOL    HW210671   8.330   3.886   1.295 -2.2939  3.4987  1.0979
 1942SOL     OW10672   7.508   6.704   2.717  0.1128 -0.0355 -0.0897
 1942SOL    HW110673   7.513   6.799   2.703  0.0441 -0.0640 -0.3192
 1942SOL    HW210674   7.500   6.667   2.628  0.1716 -0.2570 -0.0032
 1943SOL     OW10675   3.311   4.865   3.123 -0.0087 -0.2581  0.4485
 1943SOL    HW110676   3.324   4.928   3.053  1.0737  0.6606  1.4270
 1943SOL    HW210677   3.342   4.782   3.086 -0.8999 -0.1160 -0.6535
 1944SOL     OW10678   8.624   2.598   2.141  0.0435  0.3253  0.2884
 1944SOL    HW110679   8.618   2.615   2.047 -0.1245  2.3389  0.6186
 1944SOL    HW210680   8.534   2.578   2.168  0.3585 -2.1225 -0.2352
 1945SOL     OW10681   5.829   3.330   2.285  0.6521  0.2268  0.6634
 1945SOL    HW110682   5.860   3.247   2.321  0.9695 -0.2070 -0.5538
 1945SOL    HW210683   5.906   3.387   2.286  1.7198 -0.9006 -2.5113
 1946SOL     OW10684   1.097   1.768   6.703  0.5385  0.0646 -0.0943
 1946SOL    HW110685   1.100   1.822   6.623 -1.1340 -0.8566 -0.8276
 1946SOL    HW210686   1.162   1.699   6.687 -0.7313 -0.9069 -1.3126
 1947SOL     OW10687   6.754   3.456   1.723 -0.0681 -0.4668  0.8926
 1947SOL    HW110688   6.759   3.411   1.639 -1.9354 -2.2040  1.6292
 1947SOL    HW210689   6.667   3.495   1.725  1.6341  4.0463  0.0287
 1948SOL     OW10690   8.990   7.581   6.004  0.4346 -0.1198  0.1707
 1948SOL    HW110691   8.964   7.578   6.097 -1.3404 -0.4160 -0.2944
 1948SOL    HW210692   8.909   7.604   5.958  1.2739 -0.0729 -1.3203
 1949SOL     OW10693   2.970   5.879   6.036  0.3914 -0.4759  0.1435
 1949SOL    HW110694   2.948   5.786   6.043  0.9648 -0.5382  1.4441
 1949SOL    HW210695   2.994   5.892   5.945  1.7934 -1.9472  0.2669
 1950SOL     OW10696   9.542   5.606   6.216  0.4433  0.0959 -0.2321
 1950SOL    HW110697   9.609   5.649   6.269  1.5788 -1.4721 -0.3393
 1950SOL    HW210698   9.466   5.664   6.223  0.6339  0.1800  2.8582
 1951SOL     OW10699   2.396   7.449   7.436 -0.4864  0.1408 -0.6124
 1951SOL    HW110700   2.434   7.404   7.361 -0.7602  1.1244 -1.3771
 1951SOL    HW210701   2.307   7.471   7.408 -0.8061 -0.0141  0.2395
 1952SOL     OW10702   7.174   1.912   6.813  0.4340  0.0643  0.6179
 1952SOL    HW110703   7.084   1.880   6.824  1.0286 -2.3707 -0.8438
 1952SOL    HW210704   7.164   1.997   6.770 -1.1710 -0.2697  0.2589
 1953SOL     OW10705   0.593   0.753   7.066  0.3465  0.0760 -0.5370
 1953SOL    HW110706   0.637   0.766   7.150 -0.7888 -1.7882  0.4254
 1953SOL    HW210707   0.530   0.825   7.061 -0.0698 -0.1771  0.5854
 1954SOL     OW10708   2.978   2.039   5.351  0.5289 -0.2838 -0.1425
 1954SOL    HW110709   2.895   2.073   5.384  0.7750  1.1806 -0.9780
 1954SOL    HW210710   2.953   1.970   5.290 -0.0721  0.1003 -0.3379
 1955SOL     OW10711   0.542   4.710   3.594 -0.3424 -0.0730 -0.6608
 1955SOL    HW110712   0.502   4.778   3.647  1.1111 -0.7848  1.4810
 1955SOL    HW210713   0.620   4.751   3.557  2.4227 -1.2059  3.2726
 1956SOL     OW10714   8.707   4.425   4.953 -0.1384 -0.0066  0.2894
 1956SOL    HW110715   8.639   4.485   4.981  0.2242  0.1791  0.7907
 1956SOL    HW210716   8.738   4.384   5.034  0.5072  0.0911  0.1013
 1957SOL     OW10717   5.532   0.049   5.445  0.5020  0.2219 -0.4179
 1957SOL    HW110718   5.450   0.050   5.495  1.1200  0.3888  0.6375
 1957SOL    HW210719   5.586   0.116   5.487  1.0063  0.4552 -1.4089
 1958SOL     OW10720   9.034   1.759   0.589  0.1886  0.0659  0.3045
 1958SOL    HW110721   8.945   1.756   0.622 -0.3734  0.7339 -1.0802
 1958SOL    HW210722   9.029   1.721   0.501  1.3434 -0.2341  0.3452
 1959SOL     OW10723   3.082   3.121   4.429  0.1159  0.3030  0.4017
 1959SOL    HW110724   3.096   3.028   4.408  2.0555  0.3632  1.2268
 1959SOL    HW210725   3.093   3.125   4.524 -1.3891  1.1835  0.5766
 1960SOL     OW10726   9.553   5.281   6.441  0.1599  0.2685 -0.3352
 1960SOL    HW110727   9.589   5.361   6.480  0.2026  0.3198 -0.4777
 1960SOL    HW210728   9.471   5.309   6.401 -0.2755  0.0581  0.3872
 1961SOL     OW10729   5.102   9.449   1.456  0.4487  1.2191 -0.4310
 1961SOL    HW110730   5.175   9.451   1.518  0.4399 -1.2941 -0.2472
 1961SOL    HW210731   5.088   9.356   1.438 -0.0685  1.8224 -3.6590
 1962SOL     OW10732   8.401   7.838   3.604  0.0858 -0.5972 -0.3985
 1962SOL    HW110733   8.336   7.788   3.654  0.5897 -0.4505  0.4207
 1962SOL    HW210734   8.365   7.927   3.601  1.1403 -0.0165  1.8040
 1963SOL     OW10735   3.221   1.750   3.050  0.3142  0.2176 -0.1703
 1963SOL    HW110736   3.293   1.691   3.071 -0.5614 -1.3732 -1.3994
 1963SOL    HW210737   3.230   1.767   2.956  0.6311  2.2125  0.1768
 1964SOL     OW10738   8.670   5.753   4.688  0.4177 -0.2656 -0.3461
 1964SOL    HW110739   8.615   5.683   4.653 -0.4825 -1.0660  2.3472
 1964SOL    HW210740   8.745   5.707   4.728  0.2469  0.3254  0.7003
 1965SOL     OW10741   8.784   2.692   5.804 -0.3572 -0.3664 -0.4416
 1965SOL    HW110742   8.751   2.609   5.770  0.5661 -0.9810  0.0993
 1965SOL    HW210743   8.878   2.676   5.818  0.2842  1.3749 -2.2009
 1966SOL     OW10744   5.813   2.122   3.396  0.4472  0.1279  0.4346
 1966SOL    HW110745   5.908   2.116   3.397  0.4701 -1.4307 -1.9007
 1966SOL    HW210746   5.787   2.118   3.488  2.5599 -1.5837  1.0257
 1967SOL     OW10747   5.075   5.120   3.329 -0.0887  0.1916  0.4859
 1967SOL    HW110748   5.143   5.125   3.396 -0.0518  0.1138  0.4547
 1967SOL    HW210749   5.108   5.174   3.258  0.9398 -1.5046 -0.4029
 1968SOL     OW10750   4.257   4.545   8.835 -0.1391 -0.1933 -0.3684
 1968SOL    HW110751   4.228   4.609   8.770 -0.3732 -0.2544 -0.3228
 1968SOL    HW210752   4.190   4.476   8.833  2.5795 -3.1660 -4.2517
 1969SOL     OW10753   5.039   1.887   4.650 -0.1507  0.5858  0.2688
 1969SOL    HW110754   5.070   1.942   4.578 -1.6292  0.7820 -0.2590
 1969SOL    HW210755   5.050   1.798   4.618  0.2290  0.6349  0.2532
 1970SOL     OW10756   2.895   8.776   4.309 -0.1917  0.1185 -0.6641
 1970SOL    HW110757   2.869   8.852   4.361 -1.0745 -0.0122 -0.8918
 1970SOL    HW210758   2.965   8.734   4.360 -1.5831 -0.4774  0.8459
 1971SOL     OW10759   2.322   6.369   7.297  0.4826 -0.0453  0.6452
 1971SOL    HW110760   2.316   6.347   7.390 -0.3828 -0.1375  0.5751
 1971SOL    HW210761   2.266   6.446   7.287 -1.8030 -1.7134 -0.3053
 1972SOL     OW10762   4.043   2.864   7.374  0.1345 -0.2875 -0.3624
 1972SOL    HW110763   4.135   2.889   7.377 -0.1381  0.7441 -0.1351
 1972SOL    HW210764   3.995   2.946   7.389 -0.8553 -0.5260 -2.0131
 1973SOL     OW10765   4.367   1.700   3.751 -0.4755  0.0967 -0.2093
 1973SOL    HW110766   4.419   1.666   3.823 -0.4170  1.9313  0.6783
 1973SOL    HW210767   4.428   1.756   3.702 -0.5675 -0.9712 -1.5978
 1974SOL     OW10768   7.990   8.500   2.327  0.3759 -0.0640 -0.0999
 1974SOL    HW110769   7.946   8.457   2.401 -0.8400 -1.4964 -1.5616
 1974SOL    HW210770   7.986   8.593   2.347  0.3613 -0.4232  1.7658
 1975SOL     OW10771   1.933   5.140   7.918  0.1003  0.4757 -0.5192
 1975SOL    HW110772   1.958   5.131   7.826  1.0877  1.2843 -0.3479
 1975SOL    HW210773   2.014   5.161   7.963 -0.7560  2.5745  0.1698
 1976SOL     OW10774   1.103   4.563   3.439  0.2554  0.0506  0.1782
 1976SOL    HW110775   1.198   4.567   3.451  0.9368  1.2247 -3.9768
 1976SOL    HW210776   1.089   4.486   3.384 -1.5352 -1.1095  2.0975
 1977SOL     OW10777   9.452   3.349   9.708 -0.5099  0.7270 -0.3017
 1977SOL    HW110778   9.504   3.280   9.749 -0.6517  1.4330  1.1018
 1977SOL    HW210779   9.400   3.303   9.642  2.3706  0.0864 -2.3245
 1978SOL     OW10780   4.843   2.914   3.008  0.0177 -0.8536 -0.5730
 1978SOL    HW110781   4.809   2.860   2.936 -1.5435  0.2918 -0.7661
 1978SOL    HW210782   4.764   2.950   3.050  0.9632  0.5600  0.0844
 1979SOL     OW10783   8.477   6.752   1.871 -0.5382  0.1715  0.1361
 1979SOL    HW110784   8.573   6.755   1.875 -0.5538  0.7531  0.2982
 1979SOL    HW210785   8.453   6.678   1.926 -0.2668  1.6393  2.3952
 1980SOL     OW10786   5.369   0.164   9.714  0.2702 -0.1993  0.1300
 1980SOL    HW110787   5.432   0.165   9.786  0.8289 -0.3421 -0.3495
 1980SOL    HW210788   5.346   0.072   9.703 -0.7404 -0.0703  0.8978
 1981SOL     OW10789   4.234   0.814   3.457  0.5440 -0.4753  0.1540
 1981SOL    HW110790   4.162   0.848   3.510  1.2534 -0.6093  1.2522
 1981SOL    HW210791   4.302   0.881   3.465  0.9474 -0.8712  0.0661
 1982SOL     OW10792   2.996   2.274   0.788 -0.0977  0.6757 -0.1520
 1982SOL    HW110793   2.917   2.241   0.746 -0.4852  0.8472  0.4250
 1982SOL    HW210794   3.020   2.351   0.737  0.0437  0.2811 -0.6891
 1983SOL     OW10795   4.503   9.368   1.210 -0.1200  0.8986 -0.1910
 1983SOL    HW110796   4.463   9.319   1.138  1.5639  1.2420 -1.4269
 1983SOL    HW210797   4.507   9.305   1.283 -1.1602  0.3119 -0.6266
 1984SOL     OW10798   6.964   5.991   7.781 -0.3492  0.2671 -0.0003
 1984SOL    HW110799   6.880   6.020   7.818 -0.8864  1.2163 -1.8152
 1984SOL    HW210800   6.976   5.903   7.814 -2.1578  0.0579  0.2011
 1985SOL     OW10801   0.921   3.254   0.623  0.0440 -0.2689 -0.8214
 1985SOL    HW110802   1.012   3.278   0.606  0.3020 -0.1443  0.6693
 1985SOL    HW210803   0.899   3.296   0.706 -1.0837 -1.0532 -0.6946
 1986SOL     OW10804   3.390   1.550   4.740 -0.5717 -0.1027  0.1008
 1986SOL    HW110805   3.367   1.458   4.756 -0.9999 -0.5358 -2.5726
 1986SOL    HW210806   3.464   1.546   4.680 -1.0025  1.2897 -0.5649
 1987SOL     OW10807   8.824   5.250   3.941 -0.5035  0.3294  0.7925
 1987SOL    HW110808   8.754   5.315   3.937  0.9817  1.9669 -0.4792
 1987SOL    HW210809   8.874   5.273   4.019 -0.3073  0.3574  0.6591
 1988SOL     OW10810   5.654   5.194   8.904 -0.1699 -0.5275 -0.4851
 1988SOL    HW110811   5.730   5.214   8.850 -1.8984 -0.0798 -2.9311
 1988SOL    HW210812   5.683   5.123   8.962  2.4739  0.6299 -0.2942
 1989SOL     OW10813   4.633   3.814   9.597  0.0793 -0.5199 -0.3185
 1989SOL    HW110814   4.621   3.740   9.537 -0.0550  0.1164 -1.1016
 1989SOL    HW210815   4.685   3.877   9.546 -2.1227  1.0939 -0.7166
 1990SOL     OW10816   2.206   2.064   9.593  0.1549  0.0137  0.5214
 1990SOL    HW110817   2.127   2.026   9.631 -1.0756  2.3757  0.5247
 1990SOL    HW210818   2.272   2.057   9.662 -0.3924 -0.9175  0.9602
 1991SOL     OW10819   6.969   4.770   8.401  0.0540  0.1536 -0.6535
 1991SOL    HW110820   7.021   4.703   8.358  0.9405 -1.2132  2.3123
 1991SOL    HW210821   7.030   4.814   8.460 -1.5409  0.2906  0.9723
 1992SOL     OW10822   2.388   9.448   9.541 -0.1592  0.0181  0.0976
 1992SOL    HW110823   2.324   9.519   9.536 -0.1625 -0.0251 -0.7214
 1992SOL    HW210824   2.346   9.381   9.595 -0.0408  0.7419  1.1188
 1993SOL     OW10825   7.008   5.030   3.585 -0.0379  0.1209 -0.0616
 1993SOL    HW110826   6.924   5.053   3.625 -0.7411  0.9295 -1.8770
 1993SOL    HW210827   6.999   5.058   3.494  0.8265 -3.1087 -1.2773
 1994SOL     OW10828   9.083   8.930   7.047  0.5126 -0.3186  0.1326
 1994SOL    HW110829   9.015   8.898   6.988  0.9733  1.6492 -1.5579
 1994SOL    HW210830   9.164   8.924   6.997  1.1740 -0.0434  1.1299
 1995SOL     OW10831   7.918   4.221   5.132 -0.3879 -0.4737 -0.5617
 1995SOL    HW110832   7.845   4.187   5.079  0.6072 -1.9456 -1.0709
 1995SOL    HW210833   7.901   4.315   5.139 -2.3438 -0.7817 -0.6293
 1996SOL     OW10834   5.356   6.896   7.416 -0.4240  0.3806 -0.2225
 1996SOL    HW110835   5.284   6.890   7.353 -3.1704  0.1662  2.6598
 1996SOL    HW210836   5.336   6.974   7.468  1.0052 -0.1152  1.1486
 1997SOL     OW10837   1.545   8.911   1.239  0.0283 -0.0401 -0.0572
 1997SOL    HW110838   1.477   8.977   1.251  1.0316  1.1003 -0.4060
 1997SOL    HW210839   1.625   8.962   1.222  0.7232 -1.3498 -0.9125
 1998SOL     OW10840   7.833   8.428   4.233 -0.2087 -0.4894 -0.1588
 1998SOL    HW110841   7.743   8.406   4.208 -0.6201 -0.1088  0.9332
 1998SOL    HW210842   7.880   8.344   4.227 -0.8880 -0.9147  0.3149
 1999SOL     OW10843   2.944   1.112   8.139 -0.0550 -0.2927  0.2011
 1999SOL    HW110844   2.952   1.058   8.217  1.5648 -3.0771 -1.7456
 1999SOL    HW210845   3.006   1.075   8.077 -0.6621  2.3151 -2.1774
 2000SOL     OW10846   1.586   5.710   8.403  0.2100  0.1866 -0.2638
 2000SOL    HW110847   1.538   5.734   8.324 -2.4307 -1.5587  0.6595
 2000SOL    HW210848   1.540   5.756   8.474 -1.1509 -2.5759  0.8047
 2001SOL     OW10849   8.254   6.099   2.693 -0.3693 -0.1658 -0.4957
 2001SOL    HW110850   8.321   6.093   2.761  0.2654 -0.1029 -1.1068
 2001SOL    HW210851   8.172   6.081   2.739  0.0410 -0.0718  0.2954
 2002SOL     OW10852   8.463   0.141   0.897 -0.1985  0.0540 -0.1808
 2002SOL    HW110853   8.397   0.159   0.965 -1.1767  1.9882 -1.5394
 2002SOL    HW210854   8.415   0.095   0.829  0.8687 -2.2300  0.5204
 2003SOL     OW10855   1.539   5.113   2.508  0.0510  0.0133 -0.4781
 2003SOL    HW110856   1.495   5.090   2.590  0.5238 -0.5851 -0.3866
 2003SOL    HW210857   1.598   5.185   2.532  1.0385 -0.9161 -0.0258
 2004SOL     OW10858   7.548   4.009   4.177 -0.4625 -0.3688  0.1834
 2004SOL    HW110859   7.630   4.022   4.224  0.5169  0.2673 -1.5991
 2004SOL    HW210860   7.504   3.937   4.224  0.6359 -0.0570  1.7511
 2005SOL     OW10861   6.604   1.887   9.726 -0.1515 -0.2013 -0.0886
 2005SOL    HW110862   6.684   1.839   9.706  0.2809 -1.1944  3.3733
 2005SOL    HW210863   6.627   1.979   9.710  0.6895 -0.6801 -1.8564
 2006SOL     OW10864   9.718   4.996   1.679 -0.1756 -0.1744  0.0264
 2006SOL    HW110865   9.766   4.998   1.596 -0.9710  1.3734 -0.4310
 2006SOL    HW210866   9.787   4.991   1.746  0.4560 -2.9164 -0.6867
 2007SOL     OW10867   6.443   5.300   0.835  0.5946 -0.2076  0.1200
 2007SOL    HW110868   6.429   5.300   0.741  2.7477  0.0411 -0.2639
 2007SOL    HW210869   6.482   5.385   0.854 -1.0410  0.2836  1.4806
 2008SOL     OW10870   0.276   0.705   4.017 -0.5337 -0.1018 -0.1521
 2008SOL    HW110871   0.207   0.771   4.020 -1.0704 -0.5532 -1.8011
 2008SOL    HW210872   0.288   0.687   3.924  0.0191 -1.9043  0.2395
 2009SOL     OW10873   9.406   3.094   8.817 -0.1427  0.0373  0.2212
 2009SOL    HW110874   9.367   3.140   8.743 -0.4663 -0.6542 -0.0461
 2009SOL    HW210875   9.476   3.042   8.778  0.7614  0.9074  0.6322
 2010SOL     OW10876   7.252   8.582   1.226 -0.0247 -0.2822  0.1625
 2010SOL    HW110877   7.257   8.663   1.278 -0.2879  0.0198 -0.2779
 2010SOL    HW210878   7.258   8.512   1.291  1.5837  0.0693  0.4450
 2011SOL     OW10879   6.914   7.389   4.479  0.4976  0.2744 -0.4831
 2011SOL    HW110880   6.933   7.446   4.553  0.8522 -0.9444  0.3877
 2011SOL    HW210881   6.821   7.403   4.461 -0.1961 -1.1340  1.7257
 2012SOL     OW10882   1.298   1.044   4.431 -0.1385 -0.4592 -0.1621
 2012SOL    HW110883   1.277   1.129   4.472 -1.2800 -0.3051 -0.9964
 2012SOL    HW210884   1.388   1.053   4.401  0.1238  0.0578  0.7375
 2013SOL     OW10885   0.806   8.196   9.580 -0.1767  0.3762  0.4387
 2013SOL    HW110886   0.796   8.110   9.539 -0.0786 -0.2464  1.6489
 2013SOL    HW210887   0.772   8.183   9.669 -1.3043  1.9203  0.2752
 2014SOL     OW10888   8.602   8.402   0.024 -0.6032  0.0807 -0.6505
 2014SOL    HW110889   8.550   8.463  -0.028 -1.9083  0.0628  0.5580
 2014SOL    HW210890   8.577   8.420   0.114  0.5138 -0.8641 -0.1217
 2015SOL     OW10891   1.693   2.940   0.499 -0.4162  0.4455  0.0451
 2015SOL    HW110892   1.631   2.890   0.447  0.1850 -0.4122  0.1447
 2015SOL    HW210893   1.718   2.881   0.570  1.0093  0.5365 -0.3573
 2016SOL     OW10894   3.631   2.760   2.377 -0.2251  0.0487 -0.2940
 2016SOL    HW110895   3.708   2.703   2.380  0.1752  0.5747 -0.4597
 2016SOL    HW210896   3.641   2.817   2.453 -1.1258 -0.7171  0.4442
 2017SOL     OW10897   3.009   6.027   7.134 -0.5250  0.2673  0.5179
 2017SOL    HW110898   3.069   6.005   7.206  1.1303  1.2528 -0.5028
 2017SOL    HW210899   3.013   5.951   7.076  0.0079  0.4603  0.2951
 2018SOL     OW10900   2.941   2.528   4.577  0.1170 -0.1134  0.0331
 2018SOL    HW110901   2.937   2.532   4.673  0.6074  2.3582  0.0034
 2018SOL    HW210902   2.849   2.526   4.549 -0.0384  0.0600  0.5241
 2019SOL     OW10903   1.398   8.180   4.978 -0.3378 -0.1207 -0.2231
 2019SOL    HW110904   1.371   8.088   4.978 -2.0321  0.3195  1.5038
 2019SOL    HW210905   1.369   8.214   5.063 -1.2555  2.4276 -1.4593
 2020SOL     OW10906   7.928   0.807   7.205 -0.1595  0.1879 -0.5380
 2020SOL    HW110907   7.933   0.894   7.244 -0.2286 -0.2379  0.4415
 2020SOL    HW210908   7.998   0.806   7.140  2.0615 -0.1162  1.7051
 2021SOL     OW10909   3.499   7.739   7.489  0.1858 -0.2924  0.5715
 2021SOL    HW110910   3.526   7.680   7.419  0.7223  0.8980 -0.2538
 2021SOL    HW210911   3.468   7.681   7.559 -0.1583 -1.5086 -0.5546
 2022SOL     OW10912   8.776   7.152   0.795  0.1466 -0.2780 -0.5094
 2022SOL    HW110913   8.765   7.181   0.885  0.9800 -2.2816  0.2933
 2022SOL    HW210914   8.691   7.114   0.771  0.8488 -2.6976  0.6222
 2023SOL     OW10915   8.056   2.244   3.658  0.9788 -0.3172 -0.0012
 2023SOL    HW110916   8.038   2.338   3.651  1.7978 -0.2602 -1.8230
 2023SOL    HW210917   7.982   2.210   3.709  0.2104  1.1849 -0.0447
 2024SOL     OW10918   5.752   4.690   1.751  0.4097  0.7243 -0.4430
 2024SOL    HW110919   5.702   4.632   1.808  2.4149  1.2228  1.9726
 2024SOL    HW210920   5.768   4.637   1.672  1.5280 -1.8175  1.3533
 2025SOL     OW10921   5.047   4.310   1.711  0.4854 -0.0811 -0.2926
 2025SOL    HW110922   5.046   4.394   1.757  0.8831  0.1837 -0.7617
 2025SOL    HW210923   5.138   4.297   1.685  0.5487 -0.9601  0.3059
 2026SOL     OW10924   6.773   5.166   2.889 -0.2938  0.4964  0.1354
 2026SOL    HW110925   6.775   5.151   2.984 -1.8716 -0.5976  0.0491
 2026SOL    HW210926   6.796   5.258   2.878  3.2658 -0.1122  1.2924
 2027SOL     OW10927   2.768   6.029   3.133  0.3618  0.7766  0.2077
 2027SOL    HW110928   2.741   5.940   3.108 -3.7273  1.4636  1.4498
 2027SOL    HW210929   2.792   6.021   3.225  1.5924  0.7358 -0.0990
 2028SOL     OW10930   0.526   2.031   5.838  0.3312  0.3946 -0.3119
 2028SOL    HW110931   0.574   1.960   5.795 -1.4088 -0.0722 -1.6192
 2028SOL    HW210932   0.483   1.989   5.913  1.8662  0.8136  0.8608
 2029SOL     OW10933   0.090   3.921   2.924  0.4969  0.1765 -0.6989
 2029SOL    HW110934   0.121   3.830   2.918  0.7577  0.2542 -0.5478
 2029SOL    HW210935   0.156   3.965   2.978 -0.3066  0.1542  0.3284
 2030SOL     OW10936   0.418   1.619   8.586 -0.1677  0.4631  0.2193
 2030SOL    HW110937   0.497   1.596   8.635  0.1534  1.6640  0.2876
 2030SOL    HW210938   0.352   1.635   8.653 -0.1454  0.5948  0.2110
 2031SOL     OW10939   7.988   1.085   0.743  0.1385 -0.3868 -0.1103
 2031SOL    HW110940   7.915   1.031   0.713 -0.0519  0.3389 -1.0031
 2031SOL    HW210941   8.023   1.125   0.663  0.6705  0.3081  0.4530
 2032SOL     OW10942   9.567   2.546   0.843  0.6841 -0.5120  0.4133
 2032SOL    HW110943   9.611   2.534   0.759 -1.5372 -0.4210 -0.8306
 2032SOL    HW210944   9.479   2.575   0.821  0.2026  0.1169  2.8147
 2033SOL     OW10945   7.895   3.608   6.496  0.4116 -0.0603  0.1752
 2033SOL    HW110946   7.945   3.533   6.529  0.3348  0.2403  1.0070
 2033SOL    HW210947   7.957   3.656   6.441  0.4916 -0.6714 -0.2802
 2034SOL     OW10948   4.331   5.733   8.031  0.0295 -0.0931 -0.4974
 2034SOL    HW110949   4.315   5.827   8.025 -1.4659 -0.1703  1.2154
 2034SOL    HW210950   4.314   5.712   8.123  0.6178 -1.9870 -0.7804
 2035SOL     OW10951   7.933   4.444   3.138 -0.0644 -1.0004 -0.0824
 2035SOL    HW110952   7.924   4.536   3.161 -1.6212 -1.4574  1.3156
 2035SOL    HW210953   7.872   4.430   3.066  0.1663 -0.9521 -0.2899
 2036SOL     OW10954   5.924   6.816   7.996 -0.2717  0.0726  0.0795
 2036SOL    HW110955   6.009   6.858   7.999  0.0926 -0.6871  0.6337
 2036SOL    HW210956   5.903   6.795   8.087  0.4812 -2.7043 -0.3065
 2037SOL     OW10957   5.812   0.266   9.578 -0.2846  0.2420 -0.3983
 2037SOL    HW110958   5.776   0.181   9.552 -1.9416  0.9456 -0.5743
 2037SOL    HW210959   5.899   0.246   9.613 -0.1848 -1.3759 -1.4666
 2038SOL     OW10960   5.239   3.192   6.305  0.6470  0.8492  0.5387
 2038SOL    HW110961   5.306   3.254   6.279  0.3882  0.6999 -0.5488
 2038SOL    HW210962   5.287   3.114   6.332  0.9416  1.1786  0.9718
 2039SOL     OW10963   3.823   1.499   7.216  0.6728  0.7029 -0.5274
 2039SOL    HW110964   3.770   1.571   7.251  1.4388  1.1563 -0.2573
 2039SOL    HW210965   3.908   1.540   7.197  1.2224 -0.1995 -0.0755
 2040SOL     OW10966   3.777   1.092   0.510 -0.4001  1.0840 -0.5352
 2040SOL    HW110967   3.771   1.043   0.592 -2.2079  2.2396  0.0734
 2040SOL    HW210968   3.871   1.111   0.500 -0.2040  1.5298  1.6506
 2041SOL     OW10969   2.452   6.180   1.019  0.0109  0.4466  0.0387
 2041SOL    HW110970   2.376   6.139   0.977  0.2972  0.7552 -0.7882
 2041SOL    HW210971   2.440   6.273   1.005  0.4257  0.5127  0.1133
 2042SOL     OW10972   0.752   3.900   8.625  0.6795  0.0666 -0.0769
 2042SOL    HW110973   0.681   3.954   8.591  0.0951  0.8367  2.1566
 2042SOL    HW210974   0.802   3.959   8.682  2.4896 -0.7508 -0.7364
 2043SOL     OW10975   3.101   7.022   1.376  0.2949 -0.7146 -0.8312
 2043SOL    HW110976   3.102   7.095   1.314  0.3610 -0.7053 -0.8187
 2043SOL    HW210977   3.192   6.995   1.384  0.2527 -0.8923 -0.9439
 2044SOL     OW10978   9.256   0.257   3.038 -0.0375 -0.0806 -0.4364
 2044SOL    HW110979   9.257   0.324   3.106 -0.1525 -0.0559 -0.4576
 2044SOL    HW210980   9.235   0.176   3.083 -0.9773  0.0771 -0.5566
 2045SOL     OW10981   3.891   0.331   9.161 -0.0023  0.0153 -0.6544
 2045SOL    HW110982   3.870   0.387   9.086  0.3492  0.1802 -0.6315
 2045SOL    HW210983   3.890   0.391   9.236 -4.0547 -0.7064  0.1329
 2046SOL     OW10984   1.715   0.415   7.761 -0.1059 -0.0647 -0.0862
 2046SOL    HW110985   1.760   0.491   7.798 -1.9973  1.0333  0.1310
 2046SOL    HW210986   1.739   0.416   7.668  0.9269  0.0028  0.1769
 2047SOL     OW10987   0.032   4.469   0.379  0.7415  0.2853  0.4218
 2047SOL    HW110988   0.124   4.495   0.368  0.7725 -0.3407 -0.8744
 2047SOL    HW210989   0.024   4.387   0.332 -0.7996  0.9922 -0.6240
 2048SOL     OW10990   0.868   3.607   5.109  0.5114 -0.2922  0.2435
 2048SOL    HW110991   0.840   3.696   5.085  0.1697 -0.7495 -1.1464
 2048SOL    HW210992   0.962   3.616   5.125  0.5643  0.2468 -0.3182
 2049SOL     OW10993   4.443   1.833   4.981  0.2788  0.6590 -0.2573
 2049SOL    HW110994   4.488   1.789   4.910 -1.3737 -0.4116 -0.6939
 2049SOL    HW210995   4.513   1.869   5.036  1.6502 -1.2358 -0.6837
 2050SOL     OW10996   3.140   1.830   6.209  0.4002 -0.5761  0.1886
 2050SOL    HW110997   3.070   1.812   6.146 -1.9394 -1.4002  2.8320
 2050SOL    HW210998   3.129   1.764   6.276  3.3713 -0.2905  1.0607
 2051SOL     OW10999   3.146   6.889   2.395  0.2545 -0.7255 -0.2384
 2051SOL    HW111000   3.145   6.876   2.490  2.7226  2.1410  0.3149
 2051SOL    HW211001   3.133   6.801   2.359  0.8507 -2.1751  2.7580
 2052SOL     OW11002   4.889   8.316   9.566 -0.1970  0.2771 -0.0299
 2052SOL    HW111003   4.933   8.376   9.506 -1.8246  0.9643 -0.6024
 2052SOL    HW211004   4.960   8.270   9.611  1.0924 -0.2064 -2.4065
 2053SOL     OW11005   1.381   1.671   6.185 -0.4995  0.3954  0.2963
 2053SOL    HW111006   1.468   1.709   6.173  0.5289 -1.6634  0.9621
 2053SOL    HW211007   1.351   1.705   6.269  2.1357 -3.2061  2.9505
 2054SOL     OW11008   5.478   4.484   2.181  0.1702 -0.2964 -0.4153
 2054SOL    HW111009   5.456   4.558   2.238 -0.2306  1.1311 -2.3337
 2054SOL    HW211010   5.457   4.407   2.234 -0.2831  0.9414  1.3195
 2055SOL     OW11011   5.574   8.022   4.013 -0.1192  0.4243 -0.1151
 2055SOL    HW111012   5.513   8.090   3.985 -0.8458 -0.5923 -1.1155
 2055SOL    HW211013   5.519   7.958   4.059  0.3576  0.0264 -0.0884
 2056SOL     OW11014   0.256   6.110   8.906 -0.5342 -1.0708 -0.7288
 2056SOL    HW111015   0.166   6.141   8.922 -0.2373 -0.8096  0.5104
 2056SOL    HW211016   0.257   6.021   8.941  0.7113  0.2354  3.0033
 2057SOL     OW11017   5.684   8.804   7.429  0.1898 -0.0438  0.3303
 2057SOL    HW111018   5.639   8.745   7.489  1.7143  0.3534  1.9344
 2057SOL    HW211019   5.767   8.762   7.410  0.4927  0.6996 -0.0436
 2058SOL     OW11020   8.253   2.762   2.571  0.0047 -0.3187  0.7036
 2058SOL    HW111021   8.223   2.694   2.630 -0.9172  0.0423  0.6634
 2058SOL    HW211022   8.193   2.757   2.496  0.7291 -0.3151  0.1138
 2059SOL     OW11023   5.674   3.189   0.793  0.1807 -0.8408  0.2221
 2059SOL    HW111024   5.635   3.260   0.742  1.6771 -1.9383 -2.6345
 2059SOL    HW211025   5.615   3.180   0.869 -0.7642  2.5284  0.0714
 2060SOL     OW11026   4.244   6.967   4.723  0.1282 -0.1771  0.5200
 2060SOL    HW111027   4.190   7.013   4.788 -1.0100 -2.3400  1.2230
 2060SOL    HW211028   4.192   6.971   4.642  0.6613  0.8880  0.2181
 2061SOL     OW11029   9.580   7.402   3.566 -0.6824  0.0540 -0.1961
 2061SOL    HW111030   9.575   7.452   3.484 -0.3318 -0.2123 -0.3828
 2061SOL    HW211031   9.508   7.437   3.619 -0.4170  0.7855 -0.3056
 2062SOL     OW11032   3.436   3.131   7.747 -0.4181 -0.0196 -0.2780
 2062SOL    HW111033   3.416   3.150   7.656 -2.3474 -1.4573 -0.2027
 2062SOL    HW211034   3.439   3.216   7.790 -1.0518  0.5737 -1.3915
 2063SOL     OW11035   4.401   6.827   7.211 -0.2597 -0.3757 -0.6543
 2063SOL    HW111036   4.359   6.752   7.170  1.6763 -1.3499 -0.9357
 2063SOL    HW211037   4.429   6.882   7.138  0.3036 -0.4923 -0.5271
 2064SOL     OW11038   9.358   9.064   3.689  0.1168 -0.0578 -0.0932
 2064SOL    HW111039   9.324   9.059   3.779  0.8954 -0.3904  0.1862
 2064SOL    HW211040   9.281   9.084   3.636 -0.3069  0.4348  0.6834
 2065SOL     OW11041   8.410   0.642   2.367  0.5487 -0.1727 -0.4721
 2065SOL    HW111042   8.386   0.550   2.355  1.8440 -0.5110 -0.6133
 2065SOL    HW211043   8.386   0.661   2.458  0.6898 -0.7869 -0.3003
 2066SOL     OW11044   4.575   3.076   0.915  0.5114 -0.3176 -0.1627
 2066SOL    HW111045   4.489   3.034   0.905 -0.3245  1.0084  1.0447
 2066SOL    HW211046   4.600   3.059   1.006 -0.0941  2.1150  0.5335
 2067SOL     OW11047   8.243   8.984   1.967 -0.0204 -0.2009 -0.1811
 2067SOL    HW111048   8.240   8.889   1.981 -1.7928  0.0245  1.4161
 2067SOL    HW211049   8.335   9.007   1.973  0.1924 -1.4172  2.7499
 2068SOL     OW11050   3.667   6.575   0.458 -0.1540  0.5773 -0.3920
 2068SOL    HW111051   3.658   6.618   0.543 -2.1766  2.2125 -1.3355
 2068SOL    HW211052   3.584   6.593   0.413  0.0412 -1.9302 -1.9857
 2069SOL     OW11053   7.606   7.966   9.119  0.0916 -0.6073 -0.3284
 2069SOL    HW111054   7.534   7.995   9.064 -0.1637 -0.0266  0.3001
 2069SOL    HW211055   7.570   7.964   9.208  0.6200 -1.0992 -0.1149
 2070SOL     OW11056   0.524   0.013   8.728  0.0021 -0.2444  0.5578
 2070SOL    HW111057   0.505   0.069   8.652 -0.8907 -0.5364  0.5667
 2070SOL    HW211058   0.619   0.019   8.737 -0.2278  3.8709  2.5180
 2071SOL     OW11059   7.848   7.788   7.715 -0.4297  0.7156 -0.0043
 2071SOL    HW111060   7.776   7.752   7.767  0.4899  0.0771  0.8653
 2071SOL    HW211061   7.927   7.748   7.752  0.4145  1.6847 -0.6888
 2072SOL     OW11062   4.710   8.516   5.129 -0.3308  0.1636  0.8231
 2072SOL    HW111063   4.703   8.551   5.218 -1.8631 -1.7389  1.5194
 2072SOL    HW211064   4.623   8.480   5.110  0.8483 -2.4981 -0.0737
 2073SOL     OW11065   3.536   1.164   1.243 -0.5139 -0.1082  0.4002
 2073SOL    HW111066   3.552   1.071   1.229  1.5094  0.4859 -1.9695
 2073SOL    HW211067   3.444   1.169   1.269 -0.8641 -2.6944 -0.0792
 2074SOL     OW11068   5.220   4.250   3.893 -0.3206 -0.4906 -0.1498
 2074SOL    HW111069   5.275   4.291   3.960 -1.1920 -1.9643  1.5481
 2074SOL    HW211070   5.139   4.301   3.893 -0.6220 -0.9555  0.5095
 2075SOL     OW11071   1.707   3.255   5.493  0.1948  0.0942  0.0109
 2075SOL    HW111072   1.694   3.196   5.567  1.0435 -0.2046 -0.0648
 2075SOL    HW211073   1.701   3.198   5.416  2.2932 -0.1803 -0.0203
 2076SOL     OW11074   7.583   2.058   5.625  0.1662  0.0405 -0.0558
 2076SOL    HW111075   7.518   1.988   5.634  0.0219  0.3553  1.7142
 2076SOL    HW211076   7.667   2.015   5.636  0.0928  0.0828  0.7108
 2077SOL     OW11077   4.663   6.267   9.261  0.0351 -0.4039  0.0090
 2077SOL    HW111078   4.686   6.286   9.170 -0.5593  0.3916  0.0056
 2077SOL    HW211079   4.667   6.353   9.304  1.7373 -0.9748  1.0813
 2078SOL     OW11080   8.220   4.816   8.954 -0.1544 -0.2332  0.8473
 2078SOL    HW111081   8.156   4.819   8.884 -0.6370  0.9301  1.3228
 2078SOL    HW211082   8.292   4.871   8.923  0.0631 -0.5117  0.8540
 2079SOL     OW11083   4.796   2.931   8.622  0.1696  0.4177 -0.3457
 2079SOL    HW111084   4.714   2.883   8.635 -0.7745  1.8714 -0.6649
 2079SOL    HW211085   4.863   2.863   8.613 -0.9772 -0.8049  0.0255
 2080SOL     OW11086   3.954   8.572   1.170  0.0766  0.4139  0.1489
 2080SOL    HW111087   3.924   8.654   1.131  0.0290  0.7036  0.7884
 2080SOL    HW211088   3.937   8.582   1.263 -0.3032 -0.4864  0.1827
 2081SOL     OW11089   1.126   2.774   2.938 -0.5324 -0.0396 -0.4676
 2081SOL    HW111090   1.192   2.723   2.985 -0.4990  0.5921  0.1907
 2081SOL    HW211091   1.099   2.717   2.866  0.2726 -0.5549 -0.3789
 2082SOL     OW11092   1.982   6.419   4.647 -0.3443  0.1774  0.3997
 2082SOL    HW111093   1.930   6.357   4.596 -0.2305 -0.1073  0.6207
 2082SOL    HW211094   2.061   6.370   4.670  0.7022  1.0565 -1.1339
 2083SOL     OW11095   0.477   6.221   5.897  0.7837  0.0334  0.3953
 2083SOL    HW111096   0.545   6.267   5.947 -0.4294 -0.1455  2.2976
 2083SOL    HW211097   0.426   6.291   5.856  1.8583  0.1824 -0.7218
 2084SOL     OW11098   5.571   7.359   8.414  0.4841 -0.4176  0.4234
 2084SOL    HW111099   5.550   7.375   8.321  0.3312  0.1315  0.5451
 2084SOL    HW211100   5.607   7.271   8.416  2.8755  0.4758 -0.5412
 2085SOL     OW11101   7.756   5.405   2.226 -0.3018  0.0005 -0.3934
 2085SOL    HW111102   7.674   5.371   2.261  0.4772 -0.5300  0.9866
 2085SOL    HW211103   7.781   5.475   2.286  0.1330  0.3336 -0.9483
 2086SOL     OW11104   6.009   3.197   3.993 -0.8581 -0.1079 -0.0899
 2086SOL    HW111105   6.050   3.187   4.079 -0.6032 -0.4846 -0.2491
 2086SOL    HW211106   5.941   3.130   3.991 -0.1796 -0.8087 -0.5667
 2087SOL     OW11107   6.390   9.231   2.677  0.2167 -0.1416  0.0178
 2087SOL    HW111108   6.312   9.277   2.710 -0.3298  0.9349 -2.5677
 2087SOL    HW211109   6.458   9.297   2.676  0.6725 -0.5938  0.4524
 2088SOL     OW11110   5.089   6.832   3.356  0.1915  0.5410 -0.2255
 2088SOL    HW111111   5.069   6.905   3.298  0.0853 -1.0476 -2.2729
 2088SOL    HW211112   5.056   6.755   3.311 -0.5922 -0.7332  2.3111
 2089SOL     OW11113   8.032   6.806   1.864  0.4744 -0.0806  0.0713
 2089SOL    HW111114   8.043   6.771   1.776 -0.8321  1.5358 -0.7836
 2089SOL    HW211115   8.099   6.873   1.872 -0.0621  0.4777 -0.0829
 2090SOL     OW11116   5.496   9.232   5.104 -0.4779  0.1770  0.5639
 2090SOL    HW111117   5.464   9.322   5.106 -0.8445  0.0549  2.8117
 2090SOL    HW211118   5.445   9.190   5.033 -1.1178  1.4380  0.2490
 2091SOL     OW11119   0.125   5.858   8.927  0.0890 -0.5721  0.2666
 2091SOL    HW111120   0.107   5.834   9.018  0.4260 -0.9627  0.2333
 2091SOL    HW211121   0.110   5.777   8.878  0.7382 -0.5866  0.0845
 2092SOL     OW11122   4.901   5.750   6.390  0.1568 -0.1098 -0.0665
 2092SOL    HW111123   4.927   5.840   6.369 -1.0932  0.1021 -0.8085
 2092SOL    HW211124   4.973   5.716   6.443  2.4017  0.1504 -2.6652
 2093SOL     OW11125   8.647   6.635   7.729  0.0095 -1.0357  0.2978
 2093SOL    HW111126   8.641   6.730   7.735  0.4909 -1.0472  1.0032
 2093SOL    HW211127   8.613   6.615   7.642 -1.4138 -0.3332  0.6445
 2094SOL     OW11128   6.338   6.173   4.031  0.1397 -0.0117  0.0107
 2094SOL    HW111129   6.333   6.095   3.976  1.0241 -0.1333  0.0833
 2094SOL    HW211130   6.248   6.206   4.034 -0.4050 -1.4845  0.6485
 2095SOL     OW11131   5.307   2.002   3.754  0.0623  0.4726 -0.2402
 2095SOL    HW111132   5.300   1.921   3.805  0.9430 -0.2600 -1.2330
 2095SOL    HW211133   5.316   2.071   3.819 -2.5037  0.0167  0.7079
 2096SOL     OW11134   1.014   3.918   7.378 -0.8909 -0.2102 -0.7293
 2096SOL    HW111135   1.082   3.984   7.390 -0.5033 -0.7374  0.0937
 2096SOL    HW211136   0.967   3.945   7.299  0.4864 -0.0154 -1.5073
 2097SOL     OW11137   1.464   5.717   3.552 -0.0174 -0.1809 -0.0142
 2097SOL    HW111138   1.488   5.628   3.525  0.1950 -0.1879  0.2004
 2097SOL    HW211139   1.455   5.765   3.469 -2.9509 -1.0916 -0.3466
 2098SOL     OW11140   1.673   1.580   0.566  0.0185 -0.1606  0.2212
 2098SOL    HW111141   1.636   1.542   0.486 -1.4513 -2.7811  1.9818
 2098SOL    HW211142   1.601   1.631   0.603 -0.2785 -1.2270  1.1858
 2099SOL     OW11143   8.291   8.377   8.101 -0.4333  0.0106  0.2985
 2099SOL    HW111144   8.297   8.471   8.087  0.3144 -0.2753 -1.6739
 2099SOL    HW211145   8.219   8.348   8.045  0.6358 -0.8071 -0.7290
 2100SOL     OW11146   4.449   8.515   3.092  0.0999  0.0151  0.5780
 2100SOL    HW111147   4.503   8.514   3.171  0.6996  1.7180  0.2401
 2100SOL    HW211148   4.511   8.521   3.020 -0.4819 -0.0686  0.0594
 2101SOL     OW11149   6.744   8.139   1.407 -0.5429  0.2245 -0.9190
 2101SOL    HW111150   6.792   8.076   1.353  1.1894  1.0536 -0.4192
 2101SOL    HW211151   6.804   8.213   1.416 -0.8688  0.2699  1.8097
 2102SOL     OW11152   6.573   9.546   7.846 -0.5013 -1.1374  0.5562
 2102SOL    HW111153   6.566   9.641   7.834 -0.8133 -1.2120  0.1304
 2102SOL    HW211154   6.483   9.514   7.838 -0.0708 -1.8994 -3.1347
 2103SOL     OW11155   6.013   2.960   2.746  0.4296  0.3290 -0.4190
 2103SOL    HW111156   6.007   2.906   2.824  0.1561 -1.2924 -1.4999
 2103SOL    HW211157   5.926   2.957   2.707  1.0984 -0.8872 -1.9824
 2104SOL     OW11158   6.104   2.132   1.746  0.2884  0.4169 -0.2075
 2104SOL    HW111159   6.039   2.175   1.801  0.3653  0.4272 -0.1246
 2104SOL    HW211160   6.055   2.061   1.703  0.4217 -0.1553  0.5550
 2105SOL     OW11161   6.995   1.416   5.431  0.5027  0.2994 -0.1793
 2105SOL    HW111162   6.976   1.482   5.364  1.7283  0.0382 -0.8293
 2105SOL    HW211163   7.072   1.449   5.476 -0.0988  0.2937  0.8820
 2106SOL     OW11164   7.348   6.573   8.296  0.2909  0.3655  0.0393
 2106SOL    HW111165   7.345   6.565   8.392 -1.0173  0.4100  0.0090
 2106SOL    HW211166   7.372   6.664   8.281  1.1981  0.1851  0.3169
 2107SOL     OW11167   6.526   4.091   2.903 -0.1599 -0.0349  0.1280
 2107SOL    HW111168   6.482   4.132   2.828 -0.7980 -2.3009 -0.8183
 2107SOL    HW211169   6.475   4.119   2.979  0.4599  2.2592 -0.2169
 2108SOL     OW11170   3.295   2.094   7.270 -0.0920 -0.1977  0.2742
 2108SOL    HW111171   3.268   2.055   7.187 -0.1072 -0.1970  0.2786
 2108SOL    HW211172   3.364   2.037   7.303  0.1727  0.0107  0.0795
 2109SOL     OW11173   2.226   2.497   3.413 -0.5410 -0.0691  0.0653
 2109SOL    HW111174   2.274   2.561   3.465 -0.0744  0.1295 -0.6063
 2109SOL    HW211175   2.242   2.414   3.457 -0.8082  0.2074  0.7002
 2110SOL     OW11176   6.982   8.349   1.992  0.4065 -0.0898  0.2870
 2110SOL    HW111177   6.980   8.397   2.075  0.0795 -2.1510  1.5600
 2110SOL    HW211178   7.071   8.315   1.986 -0.1262 -1.7117  0.9352
 2111SOL     OW11179   4.420   7.774   5.377 -0.0357 -0.0637  0.5320
 2111SOL    HW111180   4.350   7.779   5.312  0.4920 -0.5956 -0.0923
 2111SOL    HW211181   4.376   7.786   5.461 -0.7871  0.2020  0.1064
 2112SOL     OW11182   3.317   8.173   1.077 -0.0625  0.6014 -0.1596
 2112SOL    HW111183   3.268   8.189   0.997 -0.8378 -0.0268  0.1715
 2112SOL    HW211184   3.359   8.088   1.064 -0.1123  0.5419  0.0589
 2113SOL     OW11185   6.481   3.086   1.549 -0.0689 -0.0645 -0.1208
 2113SOL    HW111186   6.548   3.085   1.617 -0.3609 -0.2280  0.1667
 2113SOL    HW211187   6.473   3.179   1.525  0.7882 -0.1313 -0.6900
 2114SOL     OW11188   6.046   5.301   8.266  0.5729  0.0322  0.0835
 2114SOL    HW111189   6.091   5.335   8.344 -0.3128  0.0469  0.5976
 2114SOL    HW211190   6.116   5.290   8.201  1.0801  1.6504  0.3132
 2115SOL     OW11191   6.644   2.421   2.226 -0.4699  0.2589 -0.4990
 2115SOL    HW111192   6.556   2.449   2.202 -0.4436 -0.7965 -1.9446
 2115SOL    HW211193   6.658   2.341   2.175  0.2299 -1.2270  1.8686
 2116SOL     OW11194   9.228   0.212   4.044  0.1559 -0.4763 -0.1890
 2116SOL    HW111195   9.216   0.243   3.955 -0.8753  0.3388  0.2147
 2116SOL    HW211196   9.277   0.282   4.087 -0.3095 -0.3613  0.1652
 2117SOL     OW11197   2.102   0.211   8.567 -0.5464 -0.1675  0.8975
 2117SOL    HW111198   2.052   0.178   8.492 -0.2777  0.1802  0.5637
 2117SOL    HW211199   2.086   0.305   8.566  1.5706  0.2452 -0.3268
 2118SOL     OW11200   5.817   8.166   3.993 -0.1601  0.6856 -0.3280
 2118SOL    HW111201   5.728   8.133   4.006 -0.9432  2.4340 -1.0263
 2118SOL    HW211202   5.868   8.088   3.974 -1.7238 -0.2728 -0.8368
 2119SOL     OW11203   3.680   3.708   8.148 -0.3028  0.2008  0.5974
 2119SOL    HW111204   3.618   3.669   8.209  0.4276 -2.2286 -0.0914
 2119SOL    HW211205   3.630   3.775   8.101 -0.8163  2.4286  3.9605
 2120SOL     OW11206   1.903   2.590   1.165 -0.7431  0.2545  0.6733
 2120SOL    HW111207   1.831   2.536   1.131  0.0026 -1.6310  1.9054
 2120SOL    HW211208   1.943   2.536   1.233  0.3021  2.2751  1.7503
 2121SOL     OW11209   1.917   6.099   4.542  0.2034  0.4426  0.1721
 2121SOL    HW111210   1.900   6.085   4.635  0.1444  0.4978  0.1696
 2121SOL    HW211211   1.990   6.040   4.522 -1.5093 -1.5758 -0.3806
 2122SOL     OW11212   2.184   6.373   1.172  0.0987  0.6484  0.1228
 2122SOL    HW111213   2.174   6.420   1.255 -0.0301  1.7237 -0.4755
 2122SOL    HW211214   2.151   6.285   1.190 -2.5858  1.6182  0.5108
 2123SOL     OW11215   8.496   1.162   5.537 -0.0936  0.2879 -0.3212
 2123SOL    HW111216   8.570   1.159   5.598 -1.0668  0.0248  0.9155
 2123SOL    HW211217   8.528   1.211   5.462  1.4936 -0.2805 -0.0599
 2124SOL     OW11218   2.863   2.771   0.961 -0.1029 -0.1920  0.4192
 2124SOL    HW111219   2.798   2.702   0.971 -0.3541  0.1395  1.1190
 2124SOL    HW211220   2.893   2.789   1.050  1.5410 -0.8998  0.0408
 2125SOL     OW11221   2.324   0.211   6.506 -0.0051  0.0659 -0.3822
 2125SOL    HW111222   2.407   0.236   6.464  1.3074 -1.1963  1.3338
 2125SOL    HW211223   2.338   0.228   6.599 -1.8912  0.3187 -0.1195
 2126SOL     OW11224   7.102   3.271   4.097 -0.1677 -0.0308 -0.2541
 2126SOL    HW111225   7.161   3.332   4.053  1.5378 -0.3146  1.4810
 2126SOL    HW211226   7.137   3.184   4.075 -1.5933 -0.3524 -1.3729
 2127SOL     OW11227   2.398   4.574   3.398 -0.2042  0.7281  0.4567
 2127SOL    HW111228   2.439   4.511   3.458 -1.0822  0.6758  1.0178
 2127SOL    HW211229   2.472   4.617   3.355  0.4541 -1.8048 -1.1829
 2128SOL     OW11230   7.490   6.073   4.876 -0.3804  0.1773 -0.0926
 2128SOL    HW111231   7.515   5.986   4.906  2.7594  0.8897 -0.2745
 2128SOL    HW211232   7.405   6.061   4.835 -1.2082 -2.3073  2.0249
 2129SOL     OW11233   2.432   4.611   8.439  0.6597 -0.1839  0.2663
 2129SOL    HW111234   2.393   4.638   8.355  0.9389  1.2746  0.5764
 2129SOL    HW211235   2.473   4.691   8.472  0.6185 -0.7631  1.7612
 2130SOL     OW11236   8.836   8.524   8.546 -0.1181  0.1184 -0.2923
 2130SOL    HW111237   8.872   8.520   8.458 -0.9558  1.2359 -0.7142
 2130SOL    HW211238   8.867   8.607   8.581 -1.4997  0.6908 -0.3504
 2131SOL     OW11239   3.577   2.238   6.890 -0.2359 -0.4447 -0.6927
 2131SOL    HW111240   3.580   2.303   6.960 -1.0483 -0.6963 -0.4162
 2131SOL    HW211241   3.499   2.260   6.840 -0.4267 -1.0947 -0.6948
 2132SOL     OW11242   8.882   8.239   3.135 -0.0468 -0.3409 -0.4242
 2132SOL    HW111243   8.924   8.154   3.143  0.6563  0.1099  0.8804
 2132SOL    HW211244   8.808   8.224   3.075 -0.7522 -2.1645  0.8360
 2133SOL     OW11245   8.773   5.708   1.033 -0.3079 -0.2976 -0.1205
 2133SOL    HW111246   8.691   5.753   1.049 -0.5527 -0.6630 -0.3385
 2133SOL    HW211247   8.768   5.683   0.941 -0.6226 -1.6788  0.2580
 2134SOL     OW11248   4.662   6.771   4.796 -0.4429 -0.4216  0.3217
 2134SOL    HW111249   4.708   6.748   4.715 -0.7840  1.5702 -0.4741
 2134SOL    HW211250   4.678   6.696   4.853  3.7147  0.0186  0.0809
 2135SOL     OW11251   7.878   8.654   4.402  0.0866 -0.2428  0.6011
 2135SOL    HW111252   7.858   8.579   4.347  0.8801 -0.1553  0.1716
 2135SOL    HW211253   7.864   8.623   4.492 -1.8403 -0.1951  0.3546
 2136SOL     OW11254   9.464   1.253   0.002 -0.0976  0.2535 -0.1343
 2136SOL    HW111255   9.513   1.182   0.045 -1.4894 -1.2777 -0.9706
 2136SOL    HW211256   9.530   1.319  -0.017  1.1738 -0.5793  1.1188
 2137SOL     OW11257   2.029   2.667   0.647  0.0160  0.6742  0.0269
 2137SOL    HW111258   2.004   2.604   0.715  0.5550 -0.1468 -0.5133
 2137SOL    HW211259   1.968   2.739   0.658 -0.0165  0.4897  1.2813
 2138SOL     OW11260   9.135   5.512   2.837 -1.1234 -0.3940  0.3862
 2138SOL    HW111261   9.156   5.505   2.930 -0.7782  2.0144  0.5750
 2138SOL    HW211262   9.218   5.534   2.795 -1.2763 -1.4644 -0.4982
 2139SOL     OW11263   2.553   4.827   8.584 -0.0309 -0.4846 -0.2209
 2139SOL    HW111264   2.582   4.823   8.675  1.0627  1.8646 -0.3897
 2139SOL    HW211265   2.634   4.826   8.532 -0.6299 -1.7315 -1.1965
 2140SOL     OW11266   6.256   6.284   2.208  0.4071 -0.0927 -0.2315
 2140SOL    HW111267   6.261   6.376   2.233 -1.7375 -0.3222  1.3215
 2140SOL    HW211268   6.189   6.280   2.141 -0.4613 -0.6595  0.6469
 2141SOL     OW11269   2.160   7.178   2.433 -0.3524  0.5761  0.4671
 2141SOL    HW111270   2.232   7.117   2.448  0.8145  1.5393 -0.9312
 2141SOL    HW211271   2.085   7.122   2.412  0.1781 -0.4189  1.1693
 2142SOL     OW11272   1.359   2.854   1.204  0.0236  0.0794 -0.4922
 2142SOL    HW111273   1.315   2.854   1.289  1.9726 -1.2142  0.5992
 2142SOL    HW211274   1.301   2.804   1.147 -0.1711 -1.2609  0.7957
 2143SOL     OW11275   8.334   6.047   8.137 -0.0176 -0.1054 -0.8485
 2143SOL    HW111276   8.275   5.973   8.151 -0.6420  0.7356  1.3000
 2143SOL    HW211277   8.418   6.017   8.174  0.4086 -0.5702 -2.1267
 2144SOL     OW11278   6.723   9.447   4.161 -0.1142  0.0205 -0.0818
 2144SOL    HW111279   6.716   9.434   4.256  0.6422  1.1190  0.1448
 2144SOL    HW211280   6.802   9.398   4.137  1.8361  2.6336  0.5160
 2145SOL     OW11281   6.146   2.469   3.712  0.3880  0.2395 -0.2230
 2145SOL    HW111282   6.108   2.551   3.741  0.2217 -0.6150  2.1387
 2145SOL    HW211283   6.083   2.435   3.647 -1.3349  0.3658  1.2997
 2146SOL     OW11284   6.491   1.336   5.441  0.1563 -0.3345  0.0590
 2146SOL    HW111285   6.540   1.254   5.437  0.8556  0.0725  0.2179
 2146SOL    HW211286   6.401   1.308   5.460  0.2639 -1.1018 -0.4918
 2147SOL     OW11287   7.842   4.569   8.432 -0.2907  0.1963 -0.3782
 2147SOL    HW111288   7.763   4.619   8.413 -1.0733 -0.7546  0.2775
 2147SOL    HW211289   7.835   4.546   8.525  0.4465 -0.4325 -0.4639
 2148SOL     OW11290   7.677   9.398   1.718 -0.2214  0.2028 -0.1197
 2148SOL    HW111291   7.682   9.493   1.714  0.2140  0.1896 -0.0309
 2148SOL    HW211292   7.745   9.373   1.781  0.0841 -0.1993 -0.5951
 2149SOL     OW11293   1.187   3.687   2.622  0.4242  0.2767  0.3337
 2149SOL    HW111294   1.200   3.746   2.547 -2.6984  3.5057  2.0275
 2149SOL    HW211295   1.271   3.686   2.667  1.3557  1.0873 -1.2793
 2150SOL     OW11296   8.308   8.697   0.031  0.1341 -0.2017  0.2071
 2150SOL    HW111297   8.336   8.788   0.032 -1.7813  0.4403 -0.5017
 2150SOL    HW211298   8.368   8.654  -0.031  0.3379  0.8338 -0.3352
 2151SOL     OW11299   5.456   5.399   6.252  0.0589  0.8580  0.2261
 2151SOL    HW111300   5.428   5.359   6.335 -0.7875  0.8096 -0.0718
 2151SOL    HW211301   5.407   5.351   6.185  1.0615  0.6041 -0.3431
 2152SOL     OW11302   9.454   6.477   8.241  0.2224 -0.3288  0.3260
 2152SOL    HW111303   9.535   6.490   8.192  1.0270  0.2805  1.7510
 2152SOL    HW211304   9.422   6.392   8.213 -0.0638  0.5397 -2.2040
 2153SOL     OW11305   6.488   4.439   2.426 -0.1739 -0.2148  0.0560
 2153SOL    HW111306   6.426   4.412   2.359  0.0304 -0.9496  0.1558
 2153SOL    HW211307   6.572   4.444   2.380  0.2641 -2.2082  0.5461
 2154SOL     OW11308   6.178   1.037   8.703  0.3680 -0.1337 -0.0707
 2154SOL    HW111309   6.098   0.986   8.688  0.0964  0.4516 -0.6253
 2154SOL    HW211310   6.242   0.971   8.731 -0.5133 -0.4960  1.1815
 2155SOL     OW11311   0.164   4.686   4.500 -0.5770 -0.2225 -0.0887
 2155SOL    HW111312   0.187   4.596   4.476  1.3451  0.2672 -0.2528
 2155SOL    HW211313   0.106   4.676   4.576 -3.1785 -1.6433 -2.0845
 2156SOL     OW11314   1.241   6.154   1.369  0.2216 -0.1748 -0.5342
 2156SOL    HW111315   1.159   6.108   1.384 -0.4017  0.6689 -1.2516
 2156SOL    HW211316   1.236   6.182   1.278  1.2775 -0.0449 -0.5615
 2157SOL     OW11317   2.737   3.478   4.847  0.5024  0.1997  0.2289
 2157SOL    HW111318   2.811   3.432   4.888  1.2605  0.9606 -0.2512
 2157SOL    HW211319   2.771   3.507   4.763 -0.5077  0.1459 -0.2062
 2158SOL     OW11320   5.768   2.888   2.640 -0.6611 -0.0926 -0.3951
 2158SOL    HW111321   5.724   2.810   2.605 -0.5959  0.0264 -0.7483
 2158SOL    HW211322   5.719   2.962   2.603  1.0094  0.0894 -2.4144
 2159SOL     OW11323   7.362   8.150   6.241  0.4131  0.5695 -0.5740
 2159SOL    HW111324   7.437   8.151   6.300 -0.7161 -0.6553  0.9557
 2159SOL    HW211325   7.327   8.239   6.247 -0.4064  0.1655  1.6540
 2160SOL     OW11326   9.057   7.027   3.893 -0.4272 -0.0722 -0.1903
 2160SOL    HW111327   9.136   7.030   3.947 -0.1179  0.4520 -0.6607
 2160SOL    HW211328   9.088   7.045   3.804 -1.2325  1.3963 -0.2099
 2161SOL     OW11329   9.271   0.315   6.700  0.1687  0.1784 -0.0104
 2161SOL    HW111330   9.356   0.350   6.726 -0.2573  0.8881  0.4605
 2161SOL    HW211331   9.246   0.367   6.624  0.3307 -0.2999 -0.3966
 2162SOL     OW11332   2.515   1.074   6.542  0.1399 -0.0060  0.3775
 2162SOL    HW111333   2.510   1.164   6.575  0.3789  1.1855 -2.5647
 2162SOL    HW211334   2.424   1.050   6.527  0.1254  0.0641  0.3515
 2163SOL     OW11335   8.279   1.966   9.671 -0.0099 -0.4273 -0.1662
 2163SOL    HW111336   8.230   1.884   9.673  0.5504 -0.8273 -1.6385
 2163SOL    HW211337   8.328   1.963   9.589  0.9718  0.8382  0.3340
 2164SOL     OW11338   6.442   7.746   1.802 -0.4720 -0.5935  0.2156
 2164SOL    HW111339   6.446   7.783   1.890 -1.2923  1.9581 -0.7418
 2164SOL    HW211340   6.534   7.732   1.778 -0.2511 -2.2825  1.7742
 2165SOL     OW11341   9.301   4.473   8.352  0.5653  0.1952  0.1735
 2165SOL    HW111342   9.260   4.387   8.357  0.3667  0.3168  0.7476
 2165SOL    HW211343   9.232   4.534   8.379  1.0609  0.4205  0.9697
 2166SOL     OW11344   0.278   4.662   0.544  0.0153 -0.0153  0.2349
 2166SOL    HW111345   0.358   4.644   0.594 -0.1346  1.3832  1.0556
 2166SOL    HW211346   0.283   4.604   0.468  2.1617  0.5394 -0.1163
 2167SOL     OW11347   5.358   5.485   7.116  0.3277 -0.0078 -0.3329
 2167SOL    HW111348   5.269   5.518   7.107  0.1540 -0.4835 -0.4299
 2167SOL    HW211349   5.397   5.495   7.029  0.5519  0.6969 -0.1582
 2168SOL     OW11350   0.807   4.387   3.958 -0.0959  0.1082  0.1598
 2168SOL    HW111351   0.721   4.428   3.944 -0.2315 -0.0592  0.4919
 2168SOL    HW211352   0.788   4.306   4.005  0.2219 -0.0661 -0.0060
 2169SOL     OW11353   3.641   2.967   6.869  0.2478  0.0896  0.7431
 2169SOL    HW111354   3.712   2.912   6.902  0.2304 -0.1913  0.3225
 2169SOL    HW211355   3.621   2.931   6.783 -0.9099 -0.3194  1.1510
 2170SOL     OW11356   9.333   7.056   5.884  0.1098 -0.0472  0.4098
 2170SOL    HW111357   9.339   7.096   5.971  1.4952 -0.2160  0.4056
 2170SOL    HW211358   9.239   7.040   5.872 -0.2027  0.8683  1.4615
 2171SOL     OW11359   0.145   1.877   7.200 -0.3604 -0.2894  0.1551
 2171SOL    HW111360   0.091   1.892   7.277 -2.4957 -0.8194 -1.1347
 2171SOL    HW211361   0.202   1.804   7.224  0.4822  0.8641  1.8629
 2172SOL     OW11362   8.968   4.837   7.764  0.1047  0.0787  0.1428
 2172SOL    HW111363   8.979   4.814   7.856 -0.3426  0.9910  0.4451
 2172SOL    HW211364   9.044   4.890   7.743  0.2246 -0.1591 -0.0232
 2173SOL     OW11365   9.088   9.017   9.426 -0.1678  0.2344  0.4689
 2173SOL    HW111366   9.103   8.991   9.517 -0.7095 -1.1712  0.1866
 2173SOL    HW211367   9.063   8.935   9.381  0.1448  0.8829 -0.9533
 2174SOL     OW11368   1.370   2.143   8.439  0.1304  0.4812  0.2789
 2174SOL    HW111369   1.287   2.145   8.391  0.5188  2.3802 -0.4079
 2174SOL    HW211370   1.366   2.221   8.495  1.8662  1.2100 -0.5399
 2175SOL     OW11371   9.406   5.608   7.336  0.1112  0.5522  0.0487
 2175SOL    HW111372   9.473   5.671   7.308  2.1341 -1.5208 -0.0211
 2175SOL    HW211373   9.329   5.630   7.283  1.1107  2.2201 -0.7960
 2176SOL     OW11374   0.236   6.853   6.529  0.3497  0.0787  0.4095
 2176SOL    HW111375   0.256   6.900   6.610 -0.2630  2.5467 -0.7887
 2176SOL    HW211376   0.190   6.775   6.559 -0.7885  1.4188  2.4292
 2177SOL     OW11377   0.333   1.546   1.085  0.0424 -0.4107  0.2387
 2177SOL    HW111378   0.279   1.478   1.125  0.4107  0.4369  2.2659
 2177SOL    HW211379   0.288   1.627   1.106  1.7314  0.2705  1.4553
 2178SOL     OW11380   8.123   8.344   7.704 -0.6135 -0.1264 -0.4140
 2178SOL    HW111381   8.205   8.382   7.675 -1.0268  0.1253 -1.2830
 2178SOL    HW211382   8.055   8.401   7.669 -1.1697 -0.4223  0.1480
 2179SOL     OW11383   7.060   2.127   5.463 -0.2212  0.3007 -0.2365
 2179SOL    HW111384   6.972   2.107   5.431  0.9148 -2.3378 -2.1027
 2179SOL    HW211385   7.047   2.193   5.531 -3.6519 -0.2908 -0.1646
 2180SOL     OW11386   0.602   1.489   4.259  0.0790 -0.8578  0.0930
 2180SOL    HW111387   0.612   1.420   4.326 -0.5808 -0.3216  0.7616
 2180SOL    HW211388   0.688   1.530   4.254  0.1293 -0.8850  0.6415
 2181SOL     OW11389   8.912   1.922   1.246 -0.0321  0.5222 -0.0019
 2181SOL    HW111390   8.889   1.962   1.162 -2.8161  0.5945  0.6963
 2181SOL    HW211391   8.842   1.948   1.305  1.8162  0.4236  2.3935
 2182SOL     OW11392   3.806   4.628   9.481  0.8762 -0.2274 -0.1978
 2182SOL    HW111393   3.895   4.614   9.448  0.8933 -1.5255  0.3458
 2182SOL    HW211394   3.750   4.584   9.418  0.4579  1.8269 -1.3432
 2183SOL     OW11395   4.275   8.467   9.106  0.6647 -0.0589 -0.2326
 2183SOL    HW111396   4.297   8.399   9.170  0.0725  0.8101  0.9321
 2183SOL    HW211397   4.205   8.429   9.053  0.8142 -0.6041 -0.0445
 2184SOL     OW11398   6.481   4.586   5.142 -0.2544  0.0271  0.1248
 2184SOL    HW111399   6.521   4.558   5.059  1.3402  2.6680 -0.0985
 2184SOL    HW211400   6.552   4.626   5.191 -1.5012 -0.1211  2.1566
 2185SOL     OW11401   8.922   7.105   6.914  0.6523  0.7481 -0.4445
 2185SOL    HW111402   8.907   7.183   6.859 -1.2305  0.7037 -0.0467
 2185SOL    HW211403   8.958   7.140   6.995 -2.4388  1.5963  0.7107
 2186SOL     OW11404   4.606   1.786   0.538  0.7275  1.0428  0.2716
 2186SOL    HW111405   4.685   1.742   0.568 -0.2250 -0.1808  1.0869
 2186SOL    HW211406   4.556   1.804   0.618 -0.5028  0.4170 -0.3176
 2187SOL     OW11407   7.448   6.195   1.469  0.3942 -0.2225 -0.1085
 2187SOL    HW111408   7.405   6.152   1.395 -0.9694  1.0859 -0.1285
 2187SOL    HW211409   7.514   6.132   1.498 -0.3485 -1.5737 -1.2009
 2188SOL     OW11410   4.118   7.856   3.850 -0.1045 -0.0757 -0.3130
 2188SOL    HW111411   4.113   7.877   3.757  1.9809 -0.2074 -0.5120
 2188SOL    HW211412   4.203   7.891   3.878  0.6820 -2.6518  0.8056
 2189SOL     OW11413   6.478   0.371   7.753  0.2316  0.1724  0.4808
 2189SOL    HW111414   6.477   0.374   7.848 -0.3532 -2.6894  0.6520
 2189SOL    HW211415   6.570   0.381   7.729  0.6287 -0.8015  1.5011
 2190SOL     OW11416   0.937   0.480   4.774  0.0560 -0.0026  0.6900
 2190SOL    HW111417   0.919   0.388   4.757 -0.1424  0.3822 -1.6341
 2190SOL    HW211418   0.872   0.507   4.838 -1.1948 -1.0286 -0.0967
 2191SOL     OW11419   0.949   7.837   8.118 -0.0566  0.2046  0.2250
 2191SOL    HW111420   0.951   7.919   8.069 -1.0906  1.0305  1.5278
 2191SOL    HW211421   1.021   7.845   8.181  0.7639 -0.5301 -0.5739
 2192SOL     OW11422   9.430   1.900   8.648  0.0016  0.3160  0.2333
 2192SOL    HW111423   9.480   1.833   8.601 -3.0384 -1.2463 -0.9969
 2192SOL    HW211424   9.408   1.860   8.732 -0.8086  0.2421 -0.0132
 2193SOL     OW11425   0.512   6.775   9.727  0.0716 -0.0116 -0.7340
 2193SOL    HW111426   0.542   6.729   9.806  0.2116  1.2187 -0.0553
 2193SOL    HW211427   0.566   6.738   9.657 -1.3556 -2.4984 -0.6250
 2194SOL     OW11428   2.350   0.296   4.646 -0.2495 -0.4853 -0.0795
 2194SOL    HW111429   2.335   0.267   4.736 -0.5814  0.4108  0.1598
 2194SOL    HW211430   2.435   0.340   4.648 -0.7113  0.4176  0.0167
 2195SOL     OW11431   3.609   1.336   9.446 -0.7368  0.3089  0.1258
 2195SOL    HW111432   3.675   1.402   9.468 -0.0185 -0.5841  0.7187
 2195SOL    HW211433   3.533   1.360   9.499 -0.3536  0.4554  0.6173
 2196SOL     OW11434   0.987   3.197   7.493  0.3005  0.5578 -0.1267
 2196SOL    HW111435   0.929   3.223   7.564  0.6796 -1.6400  1.0769
 2196SOL    HW211436   0.933   3.142   7.436  0.8132 -0.3866  0.2697
 2197SOL     OW11437   5.009   7.292   1.896  0.7461 -0.1384 -0.4750
 2197SOL    HW111438   4.924   7.328   1.869  0.5435 -0.2700 -0.0372
 2197SOL    HW211439   4.999   7.278   1.990  0.4261 -2.3965 -0.7906
 2198SOL     OW11440   1.042   5.763   6.247 -0.0579 -0.1171 -0.4906
 2198SOL    HW111441   1.131   5.736   6.267 -0.2594 -1.8209 -1.6941
 2198SOL    HW211442   0.987   5.712   6.307 -0.2569  1.0687  0.3841
 2199SOL     OW11443   8.562   3.520   3.334 -0.4603  0.0131 -0.6928
 2199SOL    HW111444   8.638   3.577   3.342  0.6978 -1.6256  0.7242
 2199SOL    HW211445   8.582   3.464   3.259  0.0910 -0.8847  0.1059
 2200SOL     OW11446   1.886   0.972   6.554  0.0911 -0.4140  0.1785
 2200SOL    HW111447   1.944   1.005   6.622  0.1745  0.7110 -0.4242
 2200SOL    HW211448   1.834   0.905   6.598 -0.1174  0.5490  1.4422
 2201SOL     OW11449   2.348   5.110   2.506  0.0788 -0.5946  0.2479
 2201SOL    HW111450   2.293   5.075   2.576 -0.4430 -0.6409 -0.1832
 2201SOL    HW211451   2.430   5.061   2.514 -0.6180 -1.8874 -0.3105
 2202SOL     OW11452   4.280   1.885   9.246 -0.0125 -0.5740 -0.1074
 2202SOL    HW111453   4.275   1.876   9.341  1.5440 -0.0100  0.0636
 2202SOL    HW211454   4.269   1.796   9.213  0.2265 -0.8935  0.6492
 2203SOL     OW11455   0.627   6.389   6.306  0.0144 -0.5326 -0.4168
 2203SOL    HW111456   0.603   6.297   6.314  0.6755 -1.0287 -3.0201
 2203SOL    HW211457   0.648   6.400   6.213  1.3717  1.9119  0.0873
 2204SOL     OW11458   2.891   1.821   1.791 -0.2285 -0.5066  0.7036
 2204SOL    HW111459   2.922   1.816   1.882  0.4502 -0.4781  0.4815
 2204SOL    HW211460   2.866   1.732   1.769  1.0180 -0.8159  0.4464
 2205SOL     OW11461   8.567   6.002   7.093 -0.6279  0.0371 -0.2053
 2205SOL    HW111462   8.639   6.062   7.113 -0.4024  0.0537 -1.0310
 2205SOL    HW211463   8.488   6.049   7.120 -0.5726  1.2999 -2.0539
 2206SOL     OW11464   0.341   6.402   5.780  0.5491 -0.0805 -0.4757
 2206SOL    HW111465   0.347   6.396   5.684 -2.0009 -0.9446 -0.6633
 2206SOL    HW211466   0.290   6.481   5.795  0.4442 -0.2631  0.1324
 2207SOL     OW11467   7.452   3.530   8.256  0.8389  0.0453  0.0495
 2207SOL    HW111468   7.428   3.604   8.200  0.8022  0.7293  0.9410
 2207SOL    HW211469   7.537   3.501   8.222  0.1399 -0.5343 -1.3014
 2208SOL     OW11470   0.326   3.259   4.511  0.6601 -0.1020  0.1479
 2208SOL    HW111471   0.386   3.211   4.455  0.2800 -0.4244  0.0146
 2208SOL    HW211472   0.381   3.324   4.555  0.8702  0.5522 -1.0426
 2209SOL     OW11473   4.425   9.623   8.265  0.0401  1.1051 -0.0379
 2209SOL    HW111474   4.349   9.626   8.208 -0.2411  1.1743  0.3383
 2209SOL    HW211475   4.483   9.691   8.231 -1.0530  2.6369  1.0452
 2210SOL     OW11476   8.943   6.007   2.116  0.2719 -0.5360 -0.0125
 2210SOL    HW111477   8.881   6.078   2.100  0.0851 -0.7661 -0.3216
 2210SOL    HW211478   8.888   5.934   2.147  0.4523 -0.5739  0.2231
 2211SOL     OW11479   2.230   4.247   2.880  0.0920  0.1299  0.5557
 2211SOL    HW111480   2.276   4.282   2.957 -1.2321  1.4720  0.7801
 2211SOL    HW211481   2.141   4.232   2.909 -0.6348  1.3501 -0.8632
 2212SOL     OW11482   9.246   8.758   2.505 -0.6594 -0.0064 -0.4866
 2212SOL    HW111483   9.267   8.672   2.467 -0.6012  0.1558 -0.8307
 2212SOL    HW211484   9.331   8.800   2.518 -0.7324  1.0863 -2.8959
 2213SOL     OW11485   9.461   7.047   2.980  0.6420 -0.2264  0.1408
 2213SOL    HW111486   9.512   7.122   3.011 -0.7089  0.8562 -0.1417
 2213SOL    HW211487   9.469   7.049   2.885  1.9293 -1.4562  0.1898
 2214SOL     OW11488   1.330   7.739   6.195  0.0901 -0.0511  0.4442
 2214SOL    HW111489   1.309   7.654   6.234 -1.3938 -0.3732 -0.9523
 2214SOL    HW211490   1.393   7.719   6.126  0.6933  0.1666  0.9229
 2215SOL     OW11491   8.364   6.883   0.783 -0.0545 -0.2861 -0.1658
 2215SOL    HW111492   8.330   6.836   0.707 -1.6332  0.4806  0.0432
 2215SOL    HW211493   8.332   6.972   0.772  1.1373  0.2437  0.5378
 2216SOL     OW11494   6.652   9.227   2.461 -0.0427 -0.4430  0.1445
 2216SOL    HW111495   6.659   9.179   2.378 -1.1305  0.7234 -0.6424
 2216SOL    HW211496   6.712   9.180   2.519  1.4531 -0.7598 -1.5300
 2217SOL     OW11497   4.628   9.467   5.018 -0.8769 -0.0971  0.0754
 2217SOL    HW111498   4.584   9.428   5.093 -0.1074  1.1743  1.2074
 2217SOL    HW211499   4.592   9.555   5.011  1.1254  0.8450  0.7980
 2218SOL     OW11500   2.578   5.280   6.902 -0.0737  0.0931  0.4344
 2218SOL    HW111501   2.545   5.328   6.826 -0.5407  1.6997  1.6180
 2218SOL    HW211502   2.617   5.200   6.864 -1.3751  0.2484 -1.3750
 2219SOL     OW11503   7.877   6.533   8.485  1.0568  0.4503 -0.3254
 2219SOL    HW111504   7.856   6.611   8.434  1.5068  0.2177 -0.8690
 2219SOL    HW211505   7.853   6.459   8.429  0.7640  0.1937  0.1297
 2220SOL     OW11506   1.631   1.567   4.606 -0.0581  0.5806 -0.2516
 2220SOL    HW111507   1.682   1.488   4.624  0.6611  0.8087 -1.2099
 2220SOL    HW211508   1.659   1.594   4.519 -0.8682  1.4614 -0.2527
 2221SOL     OW11509   6.782   9.604   3.397 -0.1884 -0.4748 -0.4213
 2221SOL    HW111510   6.764   9.678   3.455  0.1835  0.7516 -1.7834
 2221SOL    HW211511   6.874   9.617   3.371  0.4795 -2.5015  0.7679
 2222SOL     OW11512   5.316   3.655   7.009 -1.4431  0.2962  0.1399
 2222SOL    HW111513   5.356   3.726   7.059 -0.1442  0.0594 -0.5155
 2222SOL    HW211514   5.323   3.682   6.917  4.0300 -2.7653 -0.7626
 2223SOL     OW11515   3.188   4.870   1.512 -0.2199 -0.1515 -0.6479
 2223SOL    HW111516   3.146   4.947   1.473 -1.2183  0.4015  1.3447
 2223SOL    HW211517   3.144   4.860   1.597  1.3901 -1.6191  0.0734
 2224SOL     OW11518   9.188   5.264   8.224 -0.2031 -0.0479  0.0684
 2224SOL    HW111519   9.278   5.237   8.209  0.2285  0.4751  1.5796
 2224SOL    HW211520   9.178   5.344   8.171  0.4917  0.3646  0.5491
 2225SOL     OW11521   6.991   9.205   5.025 -0.1620 -0.3991 -0.0773
 2225SOL    HW111522   6.950   9.265   5.087  0.1449 -2.5082  2.3625
 2225SOL    HW211523   7.082   9.234   5.018 -0.5142  0.6220 -0.6198
 2226SOL     OW11524   9.507   6.291   2.326  0.1213  0.0541  0.2236
 2226SOL    HW111525   9.487   6.337   2.408 -1.0498 -0.0984  0.0432
 2226SOL    HW211526   9.517   6.199   2.352  0.1230  0.0596  0.2410
 2227SOL     OW11527   6.273   7.097   2.407 -0.1477  0.6836 -0.3623
 2227SOL    HW111528   6.233   7.052   2.482  0.6694  1.2137  0.4162
 2227SOL    HW211529   6.366   7.076   2.414 -0.0790  0.6687 -1.2941
 2228SOL     OW11530   3.940   9.365   9.747  0.4519 -0.4912  0.2720
 2228SOL    HW111531   3.964   9.275   9.727 -2.7530 -1.1577 -1.2636
 2228SOL    HW211532   3.881   9.359   9.822  0.3459  0.3528  0.2765
 2229SOL     OW11533   1.000   9.094   0.375 -0.6855  0.5811 -0.0926
 2229SOL    HW111534   0.911   9.062   0.388 -0.6011  0.8581  1.4427
 2229SOL    HW211535   1.001   9.129   0.286 -1.2372 -2.1142 -1.2351
 2230SOL     OW11536   1.544   7.196   0.861 -0.7539  0.1321  0.0614
 2230SOL    HW111537   1.465   7.226   0.816 -1.5989 -2.0890 -0.0852
 2230SOL    HW211538   1.543   7.101   0.848 -0.7024 -0.5805  4.2024
 2231SOL     OW11539   7.808   1.075   7.641  0.1757 -0.1046 -0.2410
 2231SOL    HW111540   7.868   1.083   7.716  0.4644  4.0916 -0.6836
 2231SOL    HW211541   7.863   1.044   7.570  0.9108 -0.0519  0.2918
 2232SOL     OW11542   2.513   2.609   3.102 -0.4182 -0.5318  0.3476
 2232SOL    HW111543   2.534   2.627   3.194 -0.5848 -0.2708  0.3375
 2232SOL    HW211544   2.593   2.571   3.066 -0.4021 -0.7794  0.6403
 2233SOL     OW11545   2.189   3.250   2.050  0.7497  0.0606  0.0432
 2233SOL    HW111546   2.268   3.285   2.008  0.3817  1.5915  0.5759
 2233SOL    HW211547   2.203   3.155   2.050  1.7736  0.1600 -1.4883
 2234SOL     OW11548   6.257   4.223   8.449 -0.0874  0.3965  0.0346
 2234SOL    HW111549   6.306   4.216   8.367 -0.6215  0.2746 -0.2818
 2234SOL    HW211550   6.271   4.140   8.494 -0.0166  0.3552 -0.0637
 2235SOL     OW11551   6.001   6.265   0.823  0.2563  0.1779  0.7619
 2235SOL    HW111552   5.944   6.341   0.814  0.9426  0.6085 -0.1411
 2235SOL    HW211553   5.959   6.211   0.891 -0.7339  0.9002  0.7478
 2236SOL     OW11554   9.064   1.313   1.842 -0.2733 -0.3372 -0.2393
 2236SOL    HW111555   9.050   1.267   1.925  1.0520  0.2471  0.3336
 2236SOL    HW211556   8.977   1.345   1.818 -0.4479  1.0113  1.8735
 2237SOL     OW11557   2.418   8.740   7.505 -0.6054 -0.2978 -0.2600
 2237SOL    HW111558   2.423   8.674   7.435 -3.3502 -0.7869 -0.1331
 2237SOL    HW211559   2.341   8.714   7.556 -0.3080  1.6445  1.2822
 2238SOL     OW11560   4.083   1.395   3.152 -0.1530  0.6804 -0.0349
 2238SOL    HW111561   4.151   1.332   3.177 -1.5966 -0.2058  1.8992
 2238SOL    HW211562   4.097   1.470   3.210 -0.2971  0.8825 -0.2569
 2239SOL     OW11563   1.072   4.001   5.730 -0.0067  0.1198 -0.2465
 2239SOL    HW111564   1.072   3.940   5.657 -1.9188 -1.1191  0.7159
 2239SOL    HW211565   1.072   3.944   5.808 -1.2582  1.3289  0.6764
 2240SOL     OW11566   4.531   7.095   4.789 -0.3831 -0.1714 -0.1529
 2240SOL    HW111567   4.596   7.066   4.853  0.0611  0.5342 -0.2726
 2240SOL    HW211568   4.460   7.131   4.841 -0.3028 -0.1762 -0.0400
 2241SOL     OW11569   8.748   8.999   6.852 -0.8210  0.1912  0.2821
 2241SOL    HW111570   8.804   8.928   6.882 -2.2375  0.0283  2.8682
 2241SOL    HW211571   8.714   8.969   6.768  1.2367 -0.6123 -0.3247
 2242SOL     OW11572   2.091   4.672   6.528  0.6270 -0.0522 -0.6430
 2242SOL    HW111573   2.169   4.629   6.494 -0.2652  0.1558 -3.1703
 2242SOL    HW211574   2.019   4.616   6.500 -0.2682  0.9702 -0.4419
 2243SOL     OW11575   1.809   3.450   4.259 -0.1473 -0.1336  0.0825
 2243SOL    HW111576   1.787   3.433   4.167 -2.3917 -1.8757  0.8450
 2243SOL    HW211577   1.771   3.537   4.276  0.6905  0.4110 -0.7194
 2244SOL     OW11578   7.970   6.322   4.818  0.1992  0.0460  0.1775
 2244SOL    HW111579   7.997   6.265   4.746  1.1637  2.0458 -1.1297
 2244SOL    HW211580   7.875   6.332   4.806  0.3571  0.4292 -0.9235
 2245SOL     OW11581   2.952   8.515   4.842 -0.5605 -0.1873 -0.0974
 2245SOL    HW111582   2.992   8.434   4.810  0.6590  0.5478 -0.5078
 2245SOL    HW211583   2.977   8.520   4.934 -0.9132 -0.4394  0.0120
 2246SOL     OW11584   0.832   0.115   9.692  0.3182 -0.0554  0.0159
 2246SOL    HW111585   0.873   0.155   9.616  0.8902 -1.7792 -0.6162
 2246SOL    HW211586   0.738   0.128   9.678  0.3942 -0.7196 -1.2025
 2247SOL     OW11587   1.022   5.327   6.959  0.8922 -0.3363  0.4634
 2247SOL    HW111588   0.945   5.271   6.954 -1.4510  2.6603 -0.2410
 2247SOL    HW211589   1.034   5.343   7.052 -1.5460  1.7089  0.5575
 2248SOL     OW11590   2.934   2.504   9.730 -0.0185 -0.2921 -0.4216
 2248SOL    HW111591   2.893   2.586   9.703 -0.3694 -0.3224  0.0226
 2248SOL    HW211592   2.918   2.444   9.657 -0.1249 -0.0923 -0.5634
 2249SOL     OW11593   6.033   0.694   2.902  0.6618 -0.0854  0.3098
 2249SOL    HW111594   6.036   0.723   2.810  2.4634  0.8583  0.6221
 2249SOL    HW211595   6.059   0.602   2.899  2.8883  0.4943  0.0220
 2250SOL     OW11596   9.329   3.256   1.189 -0.0641  0.2317 -0.2944
 2250SOL    HW111597   9.365   3.344   1.177  0.2571  0.3359  1.1747
 2250SOL    HW211598   9.405   3.202   1.212 -0.3843 -0.2415 -0.3307
 2251SOL     OW11599   3.235   0.305   2.606  0.5704  0.3708 -0.2593
 2251SOL    HW111600   3.278   0.219   2.609 -0.5690 -0.2247 -0.5206
 2251SOL    HW211601   3.274   0.354   2.679  0.7650 -0.5896  0.2974
 2252SOL     OW11602   7.229   2.706   1.408  0.1993 -0.4043 -0.4659
 2252SOL    HW111603   7.189   2.773   1.352  0.2155 -0.3707 -0.4375
 2252SOL    HW211604   7.301   2.671   1.355  0.0048 -0.6094 -0.5959
 2253SOL     OW11605   3.199   5.686   5.799  0.1366 -0.5724 -0.5264
 2253SOL    HW111606   3.291   5.683   5.825  0.1312 -0.3311 -0.4792
 2253SOL    HW211607   3.170   5.595   5.803  1.0674 -1.0555 -3.0165
 2254SOL     OW11608   4.323   7.931   8.538 -0.1256  0.2691  0.5194
 2254SOL    HW111609   4.278   7.892   8.462 -1.4714  0.1337  1.3484
 2254SOL    HW211610   4.319   8.025   8.522  0.3827  0.2084  0.0069
 2255SOL     OW11611   5.299   1.255   3.025 -0.5285  0.1490 -0.0795
 2255SOL    HW111612   5.232   1.207   2.976 -0.0237 -1.6214  0.8576
 2255SOL    HW211613   5.382   1.226   2.987 -0.2081  0.2022  0.5621
 2256SOL     OW11614   3.360   9.035   6.679  0.6064 -0.9644 -0.0009
 2256SOL    HW111615   3.348   9.126   6.652  0.8200 -1.3042 -1.3354
 2256SOL    HW211616   3.310   9.027   6.760  2.2442  0.8589  1.2885
 2257SOL     OW11617   9.070   0.879   1.977  0.1337 -0.1735  0.2422
 2257SOL    HW111618   9.125   0.910   1.905 -1.0483  1.3747 -0.0654
 2257SOL    HW211619   9.119   0.807   2.016  1.1644 -0.5554 -1.6320
 2258SOL     OW11620   7.890   3.952   5.339 -0.4017 -0.1572 -0.2388
 2258SOL    HW111621   7.816   3.892   5.334 -3.2855  3.2166 -2.5178
 2258SOL    HW211622   7.877   3.999   5.421  0.1840 -0.6449  0.1397
 2259SOL     OW11623   9.317   7.018   9.353  0.3560 -0.5177 -0.3503
 2259SOL    HW111624   9.253   6.961   9.397 -0.1483 -0.0942 -0.5178
 2259SOL    HW211625   9.373   6.958   9.305  0.6336 -0.9555  0.4995
 2260SOL     OW11626   4.121   7.602   8.539  0.1656 -0.0259 -0.0662
 2260SOL    HW111627   4.087   7.564   8.620 -0.9160 -1.6933 -1.2535
 2260SOL    HW211628   4.149   7.690   8.564 -0.4337 -0.3838  2.0386
 2261SOL     OW11629   0.454   3.174   1.130 -0.6098  0.0218 -0.2046
 2261SOL    HW111630   0.428   3.258   1.167  0.0264 -0.1325  0.6350
 2261SOL    HW211631   0.457   3.189   1.035 -0.1636  1.0467 -0.0431
 2262SOL     OW11632   7.824   1.680   5.579  0.2207  0.3573  0.1527
 2262SOL    HW111633   7.887   1.738   5.623  1.5605 -0.8891 -0.0502
 2262SOL    HW211634   7.862   1.593   5.587 -1.6080 -0.4767  0.1816
 2263SOL     OW11635   3.759   2.198   6.094  0.2532 -0.1215  0.0420
 2263SOL    HW111636   3.744   2.275   6.039  0.0557 -0.1139  0.1041
 2263SOL    HW211637   3.689   2.137   6.070  0.2315 -0.1616  0.2057
 2264SOL     OW11638   0.318   9.693   2.187 -0.3252  0.1869 -0.1212
 2264SOL    HW111639   0.244   9.753   2.179 -0.4184  0.3161  1.4324
 2264SOL    HW211640   0.383   9.728   2.126 -1.3485  0.3290 -1.1698
 2265SOL     OW11641   2.953   1.943   5.729 -0.0867  0.7184  0.2301
 2265SOL    HW111642   2.963   1.916   5.820 -2.2110  1.2091  0.6624
 2265SOL    HW211643   2.866   1.912   5.704  0.0345  1.5146 -1.3036
 2266SOL     OW11644   4.379   3.681   8.407 -0.0472 -0.3290  0.0225
 2266SOL    HW111645   4.440   3.643   8.344 -0.2599 -1.7254  0.6139
 2266SOL    HW211646   4.408   3.772   8.417  0.9947 -0.5438 -0.8348
 2267SOL     OW11647   2.589   2.573   3.369  0.1775  0.2829 -0.7061
 2267SOL    HW111648   2.520   2.588   3.434  0.1367 -0.1202 -0.6532
 2267SOL    HW211649   2.632   2.493   3.398  0.3323  0.2501 -1.0279
 2268SOL     OW11650   6.349   3.071   2.375 -0.1150 -0.1511  0.3343
 2268SOL    HW111651   6.368   3.097   2.285  1.4280 -1.1866  0.3280
 2268SOL    HW211652   6.347   3.153   2.424  1.0659  0.2746 -0.2870
 2269SOL     OW11653   3.911   4.028   6.388  0.2077  0.5963 -0.3654
 2269SOL    HW111654   3.915   4.086   6.464 -0.3169  2.3927 -1.6528
 2269SOL    HW211655   3.821   3.997   6.387  0.1925  0.6383 -0.3208
 2270SOL     OW11656   0.120   2.013   9.320  1.0261  0.0330 -0.3291
 2270SOL    HW111657   0.071   2.078   9.269  2.1930 -0.4410 -2.1180
 2270SOL    HW211658   0.055   1.979   9.382 -0.2903  1.0686 -1.0649
 2271SOL     OW11659   5.934   3.075   8.515  0.0912 -0.6896 -0.4807
 2271SOL    HW111660   5.873   3.110   8.449 -0.0560  0.5986  0.2983
 2271SOL    HW211661   6.020   3.082   8.474  0.0959  0.9023 -0.2577
 2272SOL     OW11662   6.512   6.411   5.280  0.3077  0.0883 -0.0859
 2272SOL    HW111663   6.606   6.401   5.262  0.5770 -0.1032  1.3004
 2272SOL    HW211664   6.480   6.466   5.209  1.3364 -0.3885 -0.9520
 2273SOL     OW11665   9.333   6.276   1.927 -0.3502 -0.0887  0.8546
 2273SOL    HW111666   9.295   6.215   1.864 -0.5027 -1.1930  1.9806
 2273SOL    HW211667   9.325   6.362   1.885 -1.3130 -0.6726 -0.2128
 2274SOL     OW11668   4.053   4.867   9.155  0.5107 -0.5329  0.1261
 2274SOL    HW111669   3.970   4.838   9.118 -0.1504  2.5034 -1.1232
 2274SOL    HW211670   4.032   4.892   9.245 -0.0799  0.5960 -0.3040
 2275SOL     OW11671   4.246   8.003   8.102 -0.1063  0.1864 -0.4109
 2275SOL    HW111672   4.279   8.045   8.181 -1.0534  0.3652 -0.0931
 2275SOL    HW211673   4.177   7.944   8.134  0.4577 -0.7934 -0.9636
 2276SOL     OW11674   8.200   5.357   4.289  0.4354 -0.0051 -0.6734
 2276SOL    HW111675   8.141   5.356   4.214  2.0157  1.5052 -2.0207
 2276SOL    HW211676   8.287   5.344   4.252  1.3280  1.3850  0.7966
 2277SOL     OW11677   4.989   0.668   0.093  0.3401  0.2121 -0.0645
 2277SOL    HW111678   4.979   0.749   0.043  0.9395 -0.2871 -1.0091
 2277SOL    HW211679   5.033   0.695   0.174 -2.4489  1.3643  1.1840
 2278SOL     OW11680   2.370   6.974   9.360  0.6573  0.0694 -0.0835
 2278SOL    HW111681   2.316   7.026   9.301  1.3971  0.2619 -0.6129
 2278SOL    HW211682   2.351   6.883   9.336 -1.7838 -0.0246  1.8613
 2279SOL     OW11683   5.216   6.173   9.727 -0.1518  0.1354  0.3023
 2279SOL    HW111684   5.254   6.105   9.673 -0.9195 -1.0949  1.2502
 2279SOL    HW211685   5.201   6.247   9.667  1.8785 -0.0338 -0.4686
 2280SOL     OW11686   7.852   7.646   4.014 -0.3653 -0.0452  0.2904
 2280SOL    HW111687   7.918   7.653   3.945  0.0476  2.7221  0.8859
 2280SOL    HW211688   7.793   7.720   3.999 -0.6564  0.2370  2.4948
 2281SOL     OW11689   4.216   8.149   8.920 -0.2892 -0.4290  0.1620
 2281SOL    HW111690   4.147   8.088   8.947  0.7042 -2.2540 -1.1774
 2281SOL    HW211691   4.176   8.198   8.848 -1.5518  1.5658  2.1046
 2282SOL     OW11692   0.434   9.408   1.983 -0.2663 -0.0827  0.4557
 2282SOL    HW111693   0.352   9.390   2.029 -2.3330 -0.7776 -3.1791
 2282SOL    HW211694   0.414   9.483   1.927  1.2443 -0.9020 -1.2607
 2283SOL     OW11695   9.626   7.769   6.012  0.6745  0.0554 -0.5149
 2283SOL    HW111696   9.714   7.777   6.051  1.3740  0.9562 -2.1595
 2283SOL    HW211697   9.572   7.732   6.082  2.3226 -0.3657  0.6025
 2284SOL     OW11698   0.232   6.374   3.526  0.0763  0.2651 -0.1060
 2284SOL    HW111699   0.264   6.333   3.445  1.8807  0.0943  0.6486
 2284SOL    HW211700   0.154   6.423   3.498  0.6193  0.1786 -1.9365
 2285SOL     OW11701   1.546   6.216   2.307 -0.1927 -0.5216 -0.6093
 2285SOL    HW111702   1.573   6.213   2.215 -0.6081  1.5497 -0.8628
 2285SOL    HW211703   1.494   6.296   2.314  1.0668  0.2080  1.7506
 2286SOL     OW11704   0.927   1.297   6.007  0.5497 -0.2657 -0.0624
 2286SOL    HW111705   0.959   1.341   5.928  2.9681 -0.1570  0.8862
 2286SOL    HW211706   0.896   1.367   6.063  2.6879  0.1288  0.7031
 2287SOL     OW11707   4.171   1.290   2.741 -0.1429 -0.4678 -0.0270
 2287SOL    HW111708   4.228   1.213   2.739  0.4656 -0.0442 -2.6590
 2287SOL    HW211709   4.097   1.264   2.795  0.3564 -2.6664 -0.3090
 2288SOL     OW11710   8.954   4.354   6.186 -0.3807 -0.0077 -0.5201
 2288SOL    HW111711   8.922   4.264   6.196  2.6530 -1.2222 -0.8419
 2288SOL    HW211712   9.039   4.355   6.229 -0.2866  2.7315 -0.5855
 2289SOL     OW11713   6.020   5.077   8.539  0.4934 -0.0470 -0.2466
 2289SOL    HW111714   6.010   5.029   8.457  1.4217 -0.7299  0.0202
 2289SOL    HW211715   5.993   5.167   8.518 -0.6751 -0.5260 -0.9084
 2290SOL     OW11716   5.211   9.529   2.790  0.6847 -0.1546  0.3927
 2290SOL    HW111717   5.140   9.550   2.729  0.2144 -0.1722  0.9291
 2290SOL    HW211718   5.179   9.557   2.875  1.4098  0.0249  0.6164
 2291SOL     OW11719   0.831   7.906   7.335 -0.0835 -0.2946  0.1786
 2291SOL    HW111720   0.866   7.987   7.298 -1.7818 -0.6703 -2.5084
 2291SOL    HW211721   0.901   7.842   7.322  0.4506  0.2506  0.3338
 2292SOL     OW11722   4.648   4.605   5.817 -0.0206  1.2497 -0.6362
 2292SOL    HW111723   4.611   4.675   5.872 -0.2477 -0.0836  1.0007
 2292SOL    HW211724   4.637   4.636   5.728 -1.8388  2.4706 -0.0375
 2293SOL     OW11725   5.956   4.786   1.973  0.3579  0.1574 -0.2311
 2293SOL    HW111726   5.880   4.789   1.915  0.1160  0.8161  0.1088
 2293SOL    HW211727   6.006   4.865   1.951 -0.5624  1.3066  1.5371
 2294SOL     OW11728   8.158   5.301   6.202 -0.0836  0.3394  0.0737
 2294SOL    HW111729   8.089   5.299   6.137 -0.4256  1.3057  0.3985
 2294SOL    HW211730   8.199   5.387   6.191 -0.3270  0.6259  1.3065
 2295SOL     OW11731   5.183   9.286   1.842  0.0804  0.0636  0.1297
 2295SOL    HW111732   5.124   9.254   1.774  0.3982  0.1581 -0.1948
 2295SOL    HW211733   5.193   9.211   1.901  1.2718 -0.6625 -0.9318
 2296SOL     OW11734   2.980   0.797   2.602 -0.0963 -0.1036  0.4235
 2296SOL    HW111735   3.058   0.745   2.621  0.3770  0.4470  0.0279
 2296SOL    HW211736   2.910   0.733   2.591  0.2568 -0.5916  0.9890
 2297SOL     OW11737   8.117   5.840   1.072  0.5931 -0.5555 -0.0665
 2297SOL    HW111738   8.171   5.911   1.037 -0.9039  0.1489 -1.1069
 2297SOL    HW211739   8.089   5.791   0.994 -0.8271 -0.4459  0.3386
 2298SOL     OW11740   4.601   4.239   6.941 -0.1915 -0.1999  0.1445
 2298SOL    HW111741   4.643   4.325   6.938  0.3151 -0.4369  0.2967
 2298SOL    HW211742   4.647   4.187   6.875  0.7628 -0.8966  1.3089
 2299SOL     OW11743   9.713   3.645   5.684  0.1212 -0.9748 -0.0408
 2299SOL    HW111744   9.787   3.619   5.739  0.7660  1.2597  0.2603
 2299SOL    HW211745   9.702   3.738   5.702 -1.0164 -0.6510 -2.1435
 2300SOL     OW11746   0.335   6.379   8.777 -0.2446 -0.3184 -0.2485
 2300SOL    HW111747   0.386   6.299   8.771  1.2903  0.6057  0.0813
 2300SOL    HW211748   0.261   6.364   8.717  2.0048 -0.5426 -3.1977
 2301SOL     OW11749   4.842   9.022   6.215  0.8822  0.2927  0.0445
 2301SOL    HW111750   4.892   8.962   6.270  0.6395  1.5577  1.7185
 2301SOL    HW211751   4.807   9.087   6.276  0.6961  1.8448 -1.6348
 2302SOL     OW11752   4.274   9.601   2.577  0.1733  0.6505  0.1816
 2302SOL    HW111753   4.295   9.616   2.669  0.3752  2.6532 -0.1615
 2302SOL    HW211754   4.199   9.657   2.559  0.6508  0.9369 -1.0702
 2303SOL     OW11755   8.549   3.573   7.396  0.2785 -0.9140  0.3061
 2303SOL    HW111756   8.633   3.535   7.420  0.9518  0.5177  0.3357
 2303SOL    HW211757   8.557   3.591   7.302 -0.1711 -1.1956  0.2116
 2304SOL     OW11758   3.905   8.795   2.274 -0.2341 -0.8764 -0.0163
 2304SOL    HW111759   3.935   8.808   2.184 -1.0551 -1.7688 -0.4264
 2304SOL    HW211760   3.811   8.784   2.267 -0.3558 -0.5832  1.0076
 2305SOL     OW11761   9.702   3.404   3.030 -0.8222  0.3559 -0.1441
 2305SOL    HW111762   9.640   3.335   3.053 -0.1203 -0.7834 -1.5163
 2305SOL    HW211763   9.656   3.458   2.966 -1.0745  0.6777  0.3031
 2306SOL     OW11764   1.440   0.962   0.376  0.0669 -0.2780 -0.1298
 2306SOL    HW111765   1.401   1.004   0.453 -0.2072 -2.0279  0.7387
 2306SOL    HW211766   1.370   0.907   0.340  0.2983  0.2556 -1.4528
 2307SOL     OW11767   4.615   0.849   6.850 -0.2635 -0.1844  0.2974
 2307SOL    HW111768   4.664   0.923   6.885  0.4695 -1.1605  1.4410
 2307SOL    HW211769   4.650   0.837   6.761  1.4087 -0.6560  0.9722
 2308SOL     OW11770   8.998   1.148   5.756  0.2098  0.2606 -0.4786
 2308SOL    HW111771   9.006   1.141   5.851  0.7336 -0.7502 -0.5892
 2308SOL    HW211772   9.087   1.134   5.723  0.0094  0.4861 -1.1334
 2309SOL     OW11773   6.405   0.600   9.434  0.1310 -0.2599 -0.1757
 2309SOL    HW111774   6.470   0.596   9.504  1.0591 -0.3212 -1.0198
 2309SOL    HW211775   6.404   0.692   9.407  0.2180 -0.3434 -0.4741
 2310SOL     OW11776   6.310   4.201   5.649 -0.6100  0.1338  0.1060
 2310SOL    HW111777   6.394   4.157   5.638 -1.5413 -1.7113 -0.1919
 2310SOL    HW211778   6.266   4.151   5.718 -1.9451  0.2455 -0.6349
 2311SOL     OW11779   5.180   4.199   4.950  0.2029 -0.5256 -0.5509
 2311SOL    HW111780   5.268   4.197   4.986  0.5325 -2.9499 -1.2781
 2311SOL    HW211781   5.122   4.197   5.027  0.8266 -0.9957 -0.0807
 2312SOL     OW11782   1.197   6.301   9.716  0.0041  0.4374  0.1404
 2312SOL    HW111783   1.180   6.209   9.694 -0.9079  0.3729  1.0627
 2312SOL    HW211784   1.280   6.300   9.764 -0.6805 -0.0952  1.3515
 2313SOL     OW11785   8.792   7.664   9.350  0.0297 -0.5277 -0.2098
 2313SOL    HW111786   8.798   7.647   9.256  2.5124 -2.0743  0.1321
 2313SOL    HW211787   8.826   7.753   9.361  0.2681 -0.5526 -0.7209
 2314SOL     OW11788   8.067   2.255   1.449  0.1961  0.1919  0.1626
 2314SOL    HW111789   8.015   2.226   1.525  1.3958 -1.8872  0.2886
 2314SOL    HW211790   8.074   2.177   1.395  0.2575  1.3806 -1.6039
 2315SOL     OW11791   3.717   4.317   5.564  0.1864  0.1812 -0.5171
 2315SOL    HW111792   3.777   4.279   5.499 -1.0795 -2.5440 -0.2630
 2315SOL    HW211793   3.630   4.302   5.526 -0.5627 -1.0895  1.5520
 2316SOL     OW11794   9.520   7.926   3.254  0.4274 -0.2168  0.2977
 2316SOL    HW111795   9.524   8.018   3.227  0.2017 -0.5682 -0.9910
 2316SOL    HW211796   9.427   7.905   3.255  0.5085 -0.6067 -0.0473
 2317SOL     OW11797   6.656   1.088   5.155 -0.2420 -0.0372  0.1072
 2317SOL    HW111798   6.600   1.144   5.102  0.0430  0.9688  0.8556
 2317SOL    HW211799   6.720   1.053   5.092 -0.7085  0.0952 -0.4498
 2318SOL     OW11800   4.289   3.239   6.335 -0.1050 -0.0195  0.1441
 2318SOL    HW111801   4.306   3.200   6.421 -0.2214 -1.2483 -0.3644
 2318SOL    HW211802   4.375   3.251   6.296 -0.0235  0.9718  0.5972
 2319SOL     OW11803   3.537   8.261   4.801  0.1230 -1.1022  0.0557
 2319SOL    HW111804   3.543   8.177   4.847  0.0542  0.3378  2.9162
 2319SOL    HW211805   3.572   8.325   4.863 -1.8741  1.2908 -1.1168
 2320SOL     OW11806   2.746   1.324   6.750 -0.4270 -0.5118 -0.2286
 2320SOL    HW111807   2.805   1.321   6.674 -2.3997 -0.4500 -1.8336
 2320SOL    HW211808   2.805   1.335   6.825  1.6105 -0.6849 -1.7092
 2321SOL     OW11809   9.755   6.087   2.296  0.2526 -0.0435 -0.0400
 2321SOL    HW111810   9.739   6.092   2.201  1.6150 -2.2622 -0.4607
 2321SOL    HW211811   9.672   6.057   2.333 -0.1304  0.3135 -0.5907
 2322SOL     OW11812   5.834   4.086   5.404 -0.5514  0.1455  0.6139
 2322SOL    HW111813   5.769   4.016   5.413  0.0459 -0.1302  4.0819
 2322SOL    HW211814   5.793   4.162   5.444 -0.1202  1.0227 -0.5812
 2323SOL     OW11815   7.919   5.320   8.037  0.5933  0.4106 -0.7466
 2323SOL    HW111816   7.832   5.313   8.075  0.0560  1.5791 -1.6969
 2323SOL    HW211817   7.944   5.230   8.017  0.3139 -0.0893  1.0155
 2324SOL     OW11818   2.595   4.175   3.697  0.1215 -0.1260  0.0468
 2324SOL    HW111819   2.681   4.209   3.670  1.3145 -1.2164  2.2461
 2324SOL    HW211820   2.584   4.204   3.787 -1.4326 -0.7549  0.0979
 2325SOL     OW11821   6.865   7.961   1.247  0.2042 -0.3812  0.1744
 2325SOL    HW111822   6.800   7.921   1.190  0.1143  0.3370 -0.2377
 2325SOL    HW211823   6.909   8.026   1.193  0.6307 -0.2044  0.7133
 2326SOL     OW11824   8.579   7.590   6.117 -0.2944 -0.0034 -0.6466
 2326SOL    HW111825   8.672   7.607   6.106 -0.2374 -0.2970 -0.6318
 2326SOL    HW211826   8.565   7.507   6.072 -0.7619  0.5845 -1.6358
 2327SOL     OW11827   4.175   4.875   8.348 -0.0415 -0.0253 -0.1934
 2327SOL    HW111828   4.257   4.848   8.306  0.2376 -1.6088  1.2210
 2327SOL    HW211829   4.126   4.920   8.279  1.2140 -0.7352 -1.6190
 2328SOL     OW11830   4.999   2.120   0.188 -0.2744  0.5636 -0.1563
 2328SOL    HW111831   4.930   2.178   0.219 -1.0833 -0.6861  0.4602
 2328SOL    HW211832   4.962   2.079   0.109 -0.0848  0.1745 -0.0454
 2329SOL     OW11833   6.877   6.929   4.368 -0.4778 -0.7146 -0.3130
 2329SOL    HW111834   6.868   6.961   4.458  0.6367 -0.4908 -0.2674
 2329SOL    HW211835   6.955   6.874   4.370 -2.0079 -3.0308 -0.5224
 2330SOL     OW11836   8.076   1.826   4.215  0.3814  0.1377  0.0639
 2330SOL    HW111837   8.090   1.732   4.205  1.1187  0.3578 -1.2189
 2330SOL    HW211838   8.055   1.856   4.126 -0.3800  1.0960  0.5596
 2331SOL     OW11839   5.113   8.090   5.431  0.2860 -0.7014  0.0588
 2331SOL    HW111840   5.131   8.181   5.457 -0.0019  0.0317 -2.1339
 2331SOL    HW211841   5.192   8.063   5.384  0.8520 -2.0327  1.7016
 2332SOL     OW11842   1.721   6.102   1.535 -0.0279  0.0300  0.1830
 2332SOL    HW111843   1.739   6.191   1.564 -1.0176  0.9597 -1.8572
 2332SOL    HW211844   1.793   6.081   1.475  0.3922 -0.7161  0.9187
 2333SOL     OW11845   7.182   7.357   9.333 -0.2598  0.2826  0.0325
 2333SOL    HW111846   7.198   7.407   9.252 -1.0454  1.5901  0.6433
 2333SOL    HW211847   7.263   7.309   9.348  0.0566  0.3617 -1.3009
 2334SOL     OW11848   4.726   1.364   6.081  0.0200  0.0968 -0.6072
 2334SOL    HW111849   4.700   1.443   6.129 -1.2914 -1.1682  0.8940
 2334SOL    HW211850   4.720   1.389   5.989  1.0092  2.1416 -0.1836
 2335SOL     OW11851   5.094   4.377   8.462  0.3739  0.5435  0.0993
 2335SOL    HW111852   5.109   4.293   8.417 -3.5706 -0.6868  0.6673
 2335SOL    HW211853   5.087   4.353   8.555 -2.0370  1.1741  0.1457
 2336SOL     OW11854   7.310   8.024   8.423  0.1011 -0.3371 -0.0777
 2336SOL    HW111855   7.274   8.075   8.351  0.1480  0.8638  0.7113
 2336SOL    HW211856   7.405   8.032   8.413  0.1141  0.7707  0.7183
 2337SOL     OW11857   3.086   8.404   0.066  0.1221 -1.0227 -0.0149
 2337SOL    HW111858   3.181   8.408   0.058  0.2407 -0.0973  1.4554
 2337SOL    HW211859   3.056   8.489   0.033 -0.3096 -1.6762 -1.4004
 2338SOL     OW11860   4.260   1.297   1.766 -0.3100 -0.0765 -0.0431
 2338SOL    HW111861   4.202   1.331   1.698 -2.1592 -0.4663  1.2665
 2338SOL    HW211862   4.315   1.372   1.790 -1.2625  0.7342 -0.3086
 2339SOL     OW11863   7.432   3.145   4.762  0.1039 -0.2969  0.0143
 2339SOL    HW111864   7.503   3.084   4.781  1.3037  1.1610  0.4453
 2339SOL    HW211865   7.381   3.148   4.843  1.1738  0.6961  0.6785
 2340SOL     OW11866   3.220   1.331   5.988  0.1903  0.6539  0.1727
 2340SOL    HW111867   3.183   1.360   5.905  3.0272  1.9470 -0.7533
 2340SOL    HW211868   3.226   1.410   6.041  1.6216  0.5208  0.2531
 2341SOL     OW11869   3.193   4.165   2.381 -0.1291  0.0718 -0.7814
 2341SOL    HW111870   3.099   4.178   2.370 -0.3502 -0.6633  0.1267
 2341SOL    HW211871   3.229   4.172   2.293 -0.9588  0.9111 -1.0648
 2342SOL     OW11872   2.210   6.029   4.753  0.0902  0.3630  0.9431
 2342SOL    HW111873   2.305   6.031   4.753  0.0958  0.0939  1.3596
 2342SOL    HW211874   2.186   5.976   4.829 -0.3765 -0.3029  0.3539
 2343SOL     OW11875   4.574   3.009   6.212  0.2611  0.5216  0.0032
 2343SOL    HW111876   4.574   2.936   6.150 -0.9636 -0.0556  0.6535
 2343SOL    HW211877   4.665   3.016   6.241  0.3171 -1.0257  0.2573
 2344SOL     OW11878   5.999   1.318   5.124  0.2277 -0.8166  0.0116
 2344SOL    HW111879   6.000   1.353   5.213  1.8123  1.9832 -1.0200
 2344SOL    HW211880   5.907   1.324   5.097 -0.0688 -0.6226  1.0262
 2345SOL     OW11881   8.087   8.166   9.309  0.2194  0.4344 -0.5808
 2345SOL    HW111882   8.005   8.129   9.342 -0.1120 -0.8769 -2.6595
 2345SOL    HW211883   8.061   8.246   9.264  0.2660  0.7233 -0.0921
 2346SOL     OW11884   8.499   4.513   1.687  0.0247  0.6479  0.1493
 2346SOL    HW111885   8.430   4.577   1.668 -0.4718  0.4367  1.1598
 2346SOL    HW211886   8.453   4.440   1.729  0.8285  0.3960  0.6061
 2347SOL     OW11887   3.900   7.076   9.464 -0.2653  0.2404 -0.2367
 2347SOL    HW111888   3.848   7.116   9.394  1.6241  1.7592 -0.8734
 2347SOL    HW211889   3.851   6.997   9.489 -3.0969  1.8145 -0.4019
 2348SOL     OW11890   1.227   0.649   5.318 -0.0545 -0.4212  1.0362
 2348SOL    HW111891   1.313   0.607   5.329 -0.4811 -1.5477  0.1982
 2348SOL    HW211892   1.166   0.576   5.307 -0.9957  0.3998  0.7477
 2349SOL     OW11893   0.671   9.303   0.384 -0.1427  0.0594  0.4863
 2349SOL    HW111894   0.578   9.315   0.366  0.1797  0.4568 -1.0291
 2349SOL    HW211895   0.713   9.381   0.348  0.7554  0.0247  1.4175
 2350SOL     OW11896   5.741   4.163   5.048  0.4193  0.1170  0.6204
 2350SOL    HW111897   5.692   4.111   5.112  0.1404 -0.5627 -0.1263
 2350SOL    HW211898   5.692   4.153   4.966  1.9326 -0.8128 -0.2153
 2351SOL     OW11899   3.127   5.011   4.463  0.4620 -0.8386  0.2661
 2351SOL    HW111900   3.134   4.938   4.402  0.8755  1.3325 -2.5460
 2351SOL    HW211901   3.211   5.013   4.509  1.0026 -1.3173 -0.6732
 2352SOL     OW11902   9.124   5.850   9.177  0.1102 -0.3244 -0.8270
 2352SOL    HW111903   9.182   5.890   9.243 -0.3949  1.3636 -1.3483
 2352SOL    HW211904   9.133   5.756   9.191  2.5505 -0.1164 -0.5342
 2353SOL     OW11905   3.922   2.647   7.051 -0.2180  0.2413 -0.0065
 2353SOL    HW111906   3.849   2.643   7.113  0.6228 -2.8375  0.9454
 2353SOL    HW211907   3.883   2.620   6.968 -0.3329 -0.5409  0.3014
 2354SOL     OW11908   7.475   6.612   7.221  0.2693  0.3285 -0.1348
 2354SOL    HW111909   7.447   6.670   7.150 -2.9938 -0.5593  0.2503
 2354SOL    HW211910   7.484   6.526   7.179 -1.3904 -0.1407  0.3829
 2355SOL     OW11911   8.816   6.523   6.619  0.5074  0.1447 -0.4041
 2355SOL    HW111912   8.903   6.544   6.654  0.7109 -1.8819  0.4398
 2355SOL    HW211913   8.764   6.500   6.695  0.2623 -2.0059 -1.1328
 2356SOL     OW11914   6.850   0.262   0.322 -0.4451  0.8041  0.5133
 2356SOL    HW111915   6.866   0.320   0.396  1.1925  1.5884 -0.4008
 2356SOL    HW211916   6.818   0.181   0.362  1.3574  0.8400  2.2004
 2357SOL     OW11917   6.133   8.045   8.622 -0.4601  0.0343 -0.3441
 2357SOL    HW111918   6.145   7.965   8.570 -1.5385 -0.3814  0.0091
 2357SOL    HW211919   6.072   8.098   8.570 -0.4458  0.2286 -0.1648
 2358SOL     OW11920   4.619   8.061   1.656  0.3296 -0.3282  0.8910
 2358SOL    HW111921   4.571   8.032   1.578  0.4578  0.3819  0.5433
 2358SOL    HW211922   4.684   7.992   1.670  1.8719  0.6160 -1.0391
 2359SOL     OW11923   3.460   8.946   8.473  0.1804 -0.1213 -0.1110
 2359SOL    HW111924   3.485   8.994   8.394  0.1261 -1.9561 -1.3076
 2359SOL    HW211925   3.541   8.903   8.501 -0.1711 -0.8384 -0.1720
 2360SOL     OW11926   4.334   0.671   4.527  0.6255 -0.7534  0.2117
 2360SOL    HW111927   4.243   0.650   4.550  0.1973  1.2341  0.4462
 2360SOL    HW211928   4.378   0.586   4.526 -1.2824 -1.7973 -0.1659
 2361SOL     OW11929   5.029   5.784   7.708 -0.0088  0.4305 -0.1652
 2361SOL    HW111930   5.033   5.731   7.788 -0.6030  0.3177 -0.2064
 2361SOL    HW211931   5.060   5.724   7.639  2.0989  1.0120  0.1869
 2362SOL     OW11932   4.273   4.962   7.515 -0.1022  0.3910 -0.0251
 2362SOL    HW111933   4.303   4.935   7.602  0.6244 -0.1075 -0.4211
 2362SOL    HW211934   4.203   5.025   7.533  1.1891  1.6100  0.9324
 2363SOL     OW11935   2.938   4.163   9.222 -0.7625  0.5136 -0.0797
 2363SOL    HW111936   2.947   4.196   9.311 -3.1075 -0.5113  0.6082
 2363SOL    HW211937   2.878   4.224   9.179  0.0378  0.7750 -0.8759
 2364SOL     OW11938   4.748   0.185   1.322  0.1910 -0.5963 -0.0592
 2364SOL    HW111939   4.733   0.140   1.404  1.0238 -0.5523  0.1184
 2364SOL    HW211940   4.811   0.131   1.275  1.9215  0.8123  0.5504
 2365SOL     OW11941   5.735   1.320   5.039 -0.1005  0.5460 -0.0296
 2365SOL    HW111942   5.680   1.398   5.031 -1.6776 -0.5838 -0.8430
 2365SOL    HW211943   5.738   1.284   4.950  1.6625  0.3318  0.0710
 2366SOL     OW11944   3.470   6.476   5.177  0.2946  0.2377 -0.2444
 2366SOL    HW111945   3.450   6.475   5.083  0.0717  2.2267 -0.2606
 2366SOL    HW211946   3.386   6.488   5.220  0.0475 -2.9586  0.4351
 2367SOL     OW11947   9.188   2.827   4.910 -0.1484  0.6849  0.3325
 2367SOL    HW111948   9.163   2.884   4.838  1.1513  0.6216 -0.1925
 2367SOL    HW211949   9.186   2.883   4.987 -0.6156  0.9902  0.1021
 2368SOL     OW11950   6.527   6.657   2.233  0.0933 -0.1260  0.1100
 2368SOL    HW111951   6.454   6.613   2.276 -1.0403  0.9128 -0.6678
 2368SOL    HW211952   6.605   6.620   2.273 -0.7863 -2.7327 -0.4086
 2369SOL     OW11953   2.172   7.590   5.683  0.4947  0.6418 -0.3220
 2369SOL    HW111954   2.259   7.625   5.665  1.0715 -0.6004 -0.0304
 2369SOL    HW211955   2.143   7.555   5.598  0.1623  1.2598 -0.4740
 2370SOL     OW11956   4.309   4.984   7.236 -0.6402 -0.0947  0.4431
 2370SOL    HW111957   4.402   5.005   7.227 -0.3440 -1.7649 -0.8422
 2370SOL    HW211958   4.296   4.972   7.330  0.2744  0.8352  0.7111
 2371SOL     OW11959   6.424   1.361   9.175  0.0514 -0.3400  0.3419
 2371SOL    HW111960   6.378   1.400   9.250 -0.7588  1.4206 -0.9836
 2371SOL    HW211961   6.514   1.348   9.206 -0.7949 -1.9491  2.3438
 2372SOL     OW11962   8.922   5.133   7.145 -0.3156 -0.1703 -0.0684
 2372SOL    HW111963   8.938   5.048   7.187  1.1830  0.4584  0.7104
 2372SOL    HW211964   8.834   5.125   7.108 -0.3922 -1.8955  0.3881
 2373SOL     OW11965   1.413   6.277   7.459 -0.3691 -0.0068  0.3320
 2373SOL    HW111966   1.495   6.278   7.508 -0.5172 -1.0451  0.6101
 2373SOL    HW211967   1.427   6.342   7.389 -0.1552  1.4880  1.7165
 2374SOL     OW11968   6.472   5.647   5.788 -0.4335 -0.3893  0.3353
 2374SOL    HW111969   6.546   5.641   5.728  1.8140 -1.7380  2.9978
 2374SOL    HW211970   6.454   5.556   5.812 -2.1667  0.0237  0.7186
 2375SOL     OW11971   6.066   7.495   3.893 -0.2188  0.6436  0.1198
 2375SOL    HW111972   6.125   7.488   3.967  0.4169  0.8006 -0.3631
 2375SOL    HW211973   5.989   7.539   3.928 -2.0769 -3.4566  1.9305
 2376SOL     OW11974   5.761   7.637   6.599 -0.2634 -0.4152 -0.0520
 2376SOL    HW111975   5.742   7.557   6.549 -1.1874 -0.7977  0.8635
 2376SOL    HW211976   5.831   7.680   6.550 -1.7992 -0.2420 -2.2277
 2377SOL     OW11977   9.480   5.763   5.944 -0.0133 -1.0935  0.1761
 2377SOL    HW111978   9.398   5.725   5.912 -1.3488  1.5620  0.2020
 2377SOL    HW211979   9.461   5.787   6.034  0.4664  0.3822 -0.1041
 2378SOL     OW11980   2.964   1.361   1.145  0.2062  0.2569 -0.2434
 2378SOL    HW111981   2.956   1.306   1.067  0.8527 -0.0778 -0.0776
 2378SOL    HW211982   2.969   1.450   1.111 -0.3445  0.1822 -0.5406
 2379SOL     OW11983   7.237   8.939   3.988 -0.2638  0.3043  0.3010
 2379SOL    HW111984   7.142   8.932   3.998 -0.5003  0.1782 -1.6659
 2379SOL    HW211985   7.249   8.990   3.908  1.3116 -0.4930 -0.0164
 2380SOL     OW11986   5.417   0.664   9.162  0.1041  0.7196  0.2423
 2380SOL    HW111987   5.453   0.694   9.245  2.3208  2.7031 -1.2868
 2380SOL    HW211988   5.357   0.593   9.185 -0.5416  2.1951  3.6117
 2381SOL     OW11989   0.198   7.088   0.952  0.4850 -0.4344  0.0576
 2381SOL    HW111990   0.290   7.063   0.945  0.6147 -0.0604  0.3610
 2381SOL    HW211991   0.189   7.163   0.893  1.3606  2.1246  2.9028
 2382SOL     OW11992   9.082   8.246   4.474  0.3617 -0.7243 -0.2736
 2382SOL    HW111993   9.026   8.304   4.421 -1.0939 -0.2781  1.6274
 2382SOL    HW211994   9.171   8.270   4.450 -0.2301  0.3361 -1.5681
 2383SOL     OW11995   1.807   6.486   6.094  0.2264  0.0410  0.5405
 2383SOL    HW111996   1.727   6.435   6.111  1.2329 -1.0342  2.2991
 2383SOL    HW211997   1.867   6.424   6.054  0.1493  0.9052 -0.9874
 2384SOL     OW11998   5.555   2.240   4.986 -0.3989  0.0854 -0.2125
 2384SOL    HW111999   5.483   2.255   5.047 -0.1406 -1.2092  0.4474
 2384SOL    HW212000   5.615   2.183   5.033  1.8732  2.3626 -0.1721
 2385SOL     OW12001   6.883   3.453   2.075 -0.3880  0.5152 -0.4274
 2385SOL    HW112002   6.879   3.480   2.167 -1.0887  0.5700 -0.4732
 2385SOL    HW212003   6.911   3.361   2.078 -1.5364  0.1644 -0.0976
 2386SOL     OW12004   6.613   8.490   6.476  0.2803 -0.2513  0.7742
 2386SOL    HW112005   6.702   8.525   6.471 -0.2966  1.1422 -1.5506
 2386SOL    HW212006   6.597   8.476   6.569  2.1471  1.5224  1.4295
 2387SOL     OW12007   7.449   9.668   3.850  0.1820  0.3322  0.3702
 2387SOL    HW112008   7.519   9.606   3.873 -0.7226 -0.0169  2.4780
 2387SOL    HW212009   7.474   9.749   3.895  0.2778  0.8787 -0.6337
 2388SOL     OW12010   6.771   8.377   8.007  0.2313  0.1538 -0.2791
 2388SOL    HW112011   6.800   8.426   7.930  0.1052  1.9364  0.7610
 2388SOL    HW212012   6.820   8.415   8.079 -0.9162 -0.2873  0.7655
 2389SOL     OW12013   2.117   4.051   9.369 -0.2275  0.2273  0.6767
 2389SOL    HW112014   2.144   4.132   9.325 -4.8440  0.5650 -2.2658
 2389SOL    HW212015   2.094   4.078   9.457 -0.6399  1.9758  0.0748
 2390SOL     OW12016   0.855   5.453   4.143 -0.0351 -0.0954 -0.4370
 2390SOL    HW112017   0.833   5.428   4.053 -0.5316 -0.4559 -0.2177
 2390SOL    HW212018   0.929   5.514   4.134  0.5014 -0.8261 -1.0329
 2391SOL     OW12019   5.783   2.393   2.793  0.3794 -0.1227 -0.2855
 2391SOL    HW112020   5.835   2.471   2.814  2.6051 -0.9318 -2.3396
 2391SOL    HW212021   5.831   2.350   2.723 -1.1311 -3.0244  0.2907
 2392SOL     OW12022   9.649   0.608   7.867  0.0157 -0.1121  0.6895
 2392SOL    HW112023   9.724   0.562   7.907  1.1013 -0.0648 -1.1778
 2392SOL    HW212024   9.685   0.693   7.841 -0.5111 -0.3343 -0.8075
 2393SOL     OW12025   9.646   3.426   2.000  0.1115 -0.0616  0.1870
 2393SOL    HW112026   9.574   3.465   1.950  1.0194  0.4778 -0.7409
 2393SOL    HW212027   9.701   3.501   2.023  1.4073 -0.6557 -0.8266
 2394SOL     OW12028   4.276   7.177   4.028  0.3920 -0.1167 -0.0018
 2394SOL    HW112029   4.219   7.253   4.032  1.3834  0.7702 -1.5464
 2394SOL    HW212030   4.236   7.121   3.961  0.8324  0.1071 -0.4648
 2395SOL     OW12031   6.732   6.724   8.649 -0.1468  0.3232 -0.0109
 2395SOL    HW112032   6.648   6.748   8.608  0.2520  2.5597  0.3649
 2395SOL    HW212033   6.798   6.766   8.594  0.5349  1.1127  1.3633
 2396SOL     OW12034   1.874   5.303   3.637 -0.1917 -1.1491 -0.0745
 2396SOL    HW112035   1.960   5.267   3.615  0.1357 -0.6934  0.4338
 2396SOL    HW212036   1.882   5.331   3.728 -1.4581 -2.7918  0.5930
 2397SOL     OW12037   6.653   0.528   2.826  0.2855  0.0858  0.3219
 2397SOL    HW112038   6.656   0.623   2.840 -2.5970  0.1860  0.7603
 2397SOL    HW212039   6.571   0.512   2.780  1.2780 -2.1256 -0.8713
 2398SOL     OW12040   8.263   1.472   7.865 -0.2156 -0.9009  0.7990
 2398SOL    HW112041   8.298   1.496   7.779 -4.7987  2.5118 -0.5162
 2398SOL    HW212042   8.192   1.412   7.846 -2.4265  1.2104  1.7991
 2399SOL     OW12043   2.998   6.480   7.036  0.1651  0.1166 -0.1987
 2399SOL    HW112044   3.049   6.441   6.966 -0.1651  0.8205 -0.8531
 2399SOL    HW212045   3.008   6.574   7.023 -0.0332  0.2538  0.6038
 2400SOL     OW12046   4.603   5.434   7.238  0.3632 -0.2621  0.1797
 2400SOL    HW112047   4.611   5.505   7.302  0.2767 -0.7628  0.7581
 2400SOL    HW212048   4.516   5.397   7.255 -0.6701  1.0732 -1.7868
 2401SOL     OW12049   8.226   3.567   4.304  0.4078  0.4479 -0.3437
 2401SOL    HW112050   8.281   3.494   4.333  0.6223 -0.0130 -1.7898
 2401SOL    HW212051   8.149   3.525   4.266 -0.1156  1.0293  0.0714
 2402SOL     OW12052   0.796   3.626   7.161 -0.4461  0.3765  0.1247
 2402SOL    HW112053   0.733   3.572   7.209 -0.7025  0.9430  0.4261
 2402SOL    HW212054   0.743   3.676   7.100 -0.1623 -0.0323 -0.4665
 2403SOL     OW12055   8.219   7.717   9.403  0.5201  0.1505 -0.3240
 2403SOL    HW112056   8.278   7.657   9.358 -0.4707 -1.4397  0.3803
 2403SOL    HW212057   8.161   7.751   9.335  0.8060 -0.0441 -0.6623
 2404SOL     OW12058   4.318   9.404   1.728  0.2690 -0.0406 -0.2888
 2404SOL    HW112059   4.225   9.383   1.720  0.5771 -1.3131 -0.7971
 2404SOL    HW212060   4.354   9.333   1.780  0.7986  0.9650  0.7702
 2405SOL     OW12061   2.941   8.156   0.075  0.2043  0.0501  0.0211
 2405SOL    HW112062   2.971   8.246   0.067  0.0114  0.2416  1.2507
 2405SOL    HW212063   2.941   8.122  -0.014 -1.9504  1.9694 -0.7917
 2406SOL     OW12064   4.436   5.821   7.742  0.7893  0.0697 -0.1634
 2406SOL    HW112065   4.508   5.818   7.805 -0.8706 -0.7583  1.7582
 2406SOL    HW212066   4.408   5.913   7.742  0.1828 -0.1059  1.0404
 2407SOL     OW12067   6.235   4.291   3.820  0.3000 -0.3933 -0.2805
 2407SOL    HW112068   6.294   4.235   3.870  0.7334  0.0293 -0.3046
 2407SOL    HW212069   6.285   4.312   3.740 -0.8668 -2.1171 -1.5270
 2408SOL     OW12070   1.892   3.201   6.304  0.5629 -0.3148 -0.0097
 2408SOL    HW112071   1.931   3.253   6.234 -0.3766  1.0422  0.4535
 2408SOL    HW212072   1.954   3.207   6.376  0.2533  0.5614  0.1956
 2409SOL     OW12073   4.150   2.549   3.523 -0.1698 -0.0782  0.2642
 2409SOL    HW112074   4.218   2.501   3.570  0.8743  0.6854 -0.4173
 2409SOL    HW212075   4.187   2.637   3.511 -1.6699  0.6377  0.7065
 2410SOL     OW12076   9.735   7.092   4.288 -0.9220  0.3322  0.3909
 2410SOL    HW112077   9.712   7.151   4.360  0.2986  0.5056  0.6444
 2410SOL    HW212078   9.812   7.131   4.248 -1.2990 -0.0214 -0.7240
 2411SOL     OW12079   7.437   6.659   6.148  0.2232  0.2751  0.2633
 2411SOL    HW112080   7.409   6.663   6.239 -0.2655  0.1518  0.1252
 2411SOL    HW212081   7.468   6.747   6.128  0.6406  0.2149  0.6422
 2412SOL     OW12082   4.727   2.037   3.142 -0.5340 -0.6868 -0.0540
 2412SOL    HW112083   4.634   2.030   3.120 -0.3824  0.6085 -1.2230
 2412SOL    HW212084   4.748   2.130   3.131  1.0904 -1.0847 -0.6262
 2413SOL     OW12085   1.502   6.056   6.876  0.2936  0.1050  0.0519
 2413SOL    HW112086   1.475   5.986   6.817  1.2990  0.0710 -0.3943
 2413SOL    HW212087   1.421   6.101   6.899 -0.1720 -0.1870 -0.9651
 2414SOL     OW12088   7.297   8.933   3.051 -0.3105  0.3657  0.2749
 2414SOL    HW112089   7.275   8.971   2.966 -0.4026 -0.2701  0.0163
 2414SOL    HW212090   7.384   8.969   3.071 -0.3509  0.6285 -0.0181
 2415SOL     OW12091   5.887   9.244   1.679 -0.2607  0.0432  0.0181
 2415SOL    HW112092   5.912   9.188   1.605 -2.5335 -1.1635  0.0648
 2415SOL    HW212093   5.911   9.192   1.756 -0.4617  0.0603  0.0912
 2416SOL     OW12094   2.711   5.523   4.383  0.3258 -0.1234  0.3922
 2416SOL    HW112095   2.798   5.546   4.415  0.3031  0.0913  0.3006
 2416SOL    HW212096   2.682   5.600   4.334 -0.1496  0.0271  0.9029
 2417SOL     OW12097   4.138   1.055   7.878  0.2620 -0.1850 -0.1004
 2417SOL    HW112098   4.233   1.066   7.880  0.3324 -0.6509  2.1588
 2417SOL    HW212099   4.123   0.964   7.903 -0.7829 -0.3733 -1.2776
 2418SOL     OW12100   8.713   5.094   0.942  0.2288  0.1784  0.2538
 2418SOL    HW112101   8.675   5.176   0.973 -0.7497 -0.1910  0.0503
 2418SOL    HW212102   8.638   5.041   0.915  0.9842  0.4089 -2.6303
 2419SOL     OW12103   9.205   0.040   8.209  0.3268 -0.4979  0.1334
 2419SOL    HW112104   9.209   0.112   8.147 -1.0278 -2.2762 -2.2029
 2419SOL    HW212105   9.195   0.082   8.294  0.7823  2.0496 -0.9764
 2420SOL     OW12106   3.444   2.048   4.952 -0.1447  0.1132 -0.6823
 2420SOL    HW112107   3.425   1.962   4.915 -1.1301  0.5109 -1.1545
 2420SOL    HW212108   3.366   2.069   5.003 -1.2656  1.9798 -2.9732
 2421SOL     OW12109   9.238   5.317   7.100  0.0038  0.1300  0.0171
 2421SOL    HW112110   9.180   5.281   7.034  2.6636 -3.0936 -0.8522
 2421SOL    HW212111   9.199   5.291   7.184 -0.3551 -1.1323 -0.5222
 2422SOL     OW12112   4.966   9.189   8.532 -0.2037 -0.6603 -0.0587
 2422SOL    HW112113   5.045   9.161   8.579  0.4157  0.9920 -0.0247
 2422SOL    HW212114   4.912   9.232   8.598 -0.0013  0.3592 -0.5277
 2423SOL     OW12115   7.683   7.479   8.431  0.3505 -0.4878 -0.4655
 2423SOL    HW112116   7.720   7.497   8.517 -1.8404 -0.8600  0.6378
 2423SOL    HW212117   7.706   7.387   8.414  0.8235 -0.4028 -0.3014
 2424SOL     OW12118   7.922   5.091   6.575  0.0390 -0.1998 -0.4640
 2424SOL    HW112119   7.886   5.120   6.491  0.0706 -1.6333 -1.0123
 2424SOL    HW212120   7.847   5.050   6.619  0.1728 -0.0049 -0.0573
 2425SOL     OW12121   3.935   2.982   8.901 -0.4367 -0.0980  0.7480
 2425SOL    HW112122   3.886   3.050   8.856 -2.4741 -0.1563  2.6865
 2425SOL    HW212123   3.980   2.934   8.831 -1.1754  1.4904 -0.8962
 2426SOL     OW12124   1.823   9.448   4.681  0.8122 -0.2328 -0.0218
 2426SOL    HW112125   1.777   9.437   4.598 -1.1777 -0.3195  1.0347
 2426SOL    HW212126   1.818   9.542   4.699  1.6106 -0.1515 -0.1801
 2427SOL     OW12127   8.558   1.482   0.005 -0.5539  0.1183 -0.5513
 2427SOL    HW112128   8.526   1.486   0.095  0.0292  0.5224 -0.3584
 2427SOL    HW212129   8.489   1.524  -0.047 -0.6966  0.2712 -0.2400
 2428SOL     OW12130   9.076   4.695   3.334  0.4400 -0.6745  0.8552
 2428SOL    HW112131   9.119   4.748   3.401 -1.3878  1.3025  0.5721
 2428SOL    HW212132   9.054   4.613   3.378  0.2762  0.1406  2.3633
 2429SOL     OW12133   8.753   7.539   2.460 -0.5130  0.2155 -0.1364
 2429SOL    HW112134   8.778   7.561   2.550  0.0164 -1.3941  0.1472
 2429SOL    HW212135   8.658   7.548   2.459 -0.8704 -2.2315  1.4055
 2430SOL     OW12136   0.124   0.618   3.132  0.2233  0.3258 -0.2467
 2430SOL    HW112137   0.157   0.560   3.063  2.0664 -0.7404  1.4389
 2430SOL    HW212138   0.201   0.640   3.184 -0.9492  1.9023  0.9189
 2431SOL     OW12139   5.279   3.939   8.266 -0.3322 -0.0381 -0.2352
 2431SOL    HW112140   5.289   3.882   8.342 -1.4365  1.1433  0.8351
 2431SOL    HW212141   5.303   3.884   8.192 -1.6450 -2.0008  0.7167
 2432SOL     OW12142   1.243   3.447   2.413  0.2440  0.1610 -0.2703
 2432SOL    HW112143   1.335   3.469   2.400  0.7110 -1.0915  0.7195
 2432SOL    HW212144   1.241   3.351   2.417 -1.2688  0.0930 -1.3861
 2433SOL     OW12145   8.074   3.303   5.612 -0.9558 -0.0067 -0.1995
 2433SOL    HW112146   8.147   3.251   5.579 -1.8719 -0.8638 -0.9305
 2433SOL    HW212147   8.081   3.298   5.707  1.4474  2.0821 -0.1467
 2434SOL     OW12148   3.544   5.764   4.901 -0.0472 -0.1165 -0.0879
 2434SOL    HW112149   3.452   5.755   4.876  0.1205  0.6614 -1.0654
 2434SOL    HW212150   3.577   5.835   4.846  1.4074 -1.0366 -0.4647
 2435SOL     OW12151   7.414   9.166   2.363 -0.3649 -0.1693 -0.3890
 2435SOL    HW112152   7.448   9.248   2.327 -0.7021  0.3570  0.4697
 2435SOL    HW212153   7.412   9.180   2.458  0.6869 -1.5900 -0.1276
 2436SOL     OW12154   7.631   1.908   1.291 -0.3551 -0.1686 -0.1761
 2436SOL    HW112155   7.703   1.852   1.263 -0.2748  0.0221 -0.3582
 2436SOL    HW212156   7.625   1.975   1.223 -1.4265 -0.8148 -0.7523
 2437SOL     OW12157   9.253   4.300   8.686  0.1806  0.6095  0.1386
 2437SOL    HW112158   9.170   4.322   8.642  0.1602  0.5796  0.1620
 2437SOL    HW212159   9.257   4.360   8.761  0.8264  1.5381 -0.6076
 2438SOL     OW12160   0.365   1.920   8.470  0.1555  0.2005  0.2545
 2438SOL    HW112161   0.352   1.936   8.563  2.0297  1.3344  0.3761
 2438SOL    HW212162   0.453   1.882   8.465  0.3399  0.7441 -1.0943
 2439SOL     OW12163   1.896   8.015   7.734  0.0234  0.1677  0.1618
 2439SOL    HW112164   1.882   8.065   7.814  0.1075 -1.7991  1.4676
 2439SOL    HW212165   1.954   7.943   7.760  2.9679  1.3692 -2.4354
 2440SOL     OW12166   3.362   3.794   2.391  0.5186  0.6232  0.0384
 2440SOL    HW112167   3.432   3.844   2.434  0.9832 -0.5164  0.6728
 2440SOL    HW212168   3.281   3.831   2.427  0.8232  1.3901 -0.0495
 2441SOL     OW12169   2.443   3.898   0.203 -0.5678  0.1177 -0.1464
 2441SOL    HW112170   2.495   3.904   0.282 -0.3590 -0.2591 -0.2518
 2441SOL    HW212171   2.390   3.978   0.202 -0.2752  0.3155  0.1590
 2442SOL     OW12172   2.393   4.679   1.845 -0.2485  0.7367  0.7066
 2442SOL    HW112173   2.325   4.645   1.787  1.2671  1.0262 -1.3713
 2442SOL    HW212174   2.361   4.766   1.870 -1.1753  0.3994  0.7470
 2443SOL     OW12175   8.365   8.823   7.872 -0.4008 -0.2208 -0.0031
 2443SOL    HW112176   8.400   8.912   7.879 -1.3248  0.0211  3.5311
 2443SOL    HW212177   8.297   8.830   7.805  0.4919  1.3772 -0.8041
 2444SOL     OW12178   7.573   3.385   1.705 -0.1389  0.0661  0.0626
 2444SOL    HW112179   7.630   3.461   1.690 -1.4009  1.0336 -0.0124
 2444SOL    HW212180   7.627   3.310   1.682  1.0175  0.9656 -0.2668
 2445SOL     OW12181   0.672   5.957   6.457 -0.0202  0.1757  0.1376
 2445SOL    HW112182   0.676   5.864   6.433 -0.8665  0.2577 -0.3729
 2445SOL    HW212183   0.764   5.984   6.465  0.2702 -0.3249 -1.2487
 2446SOL     OW12184   1.505   3.313   3.719 -0.0448 -0.1123  0.4408
 2446SOL    HW112185   1.563   3.287   3.647 -1.3196  0.9239 -1.0278
 2446SOL    HW212186   1.522   3.406   3.732 -0.2089 -0.1737  1.1222
 2447SOL     OW12187   2.391   9.330   8.842  0.2110  0.2227 -0.0966
 2447SOL    HW112188   2.426   9.364   8.924  0.8465 -0.1602 -0.2028
 2447SOL    HW212189   2.457   9.269   8.811 -1.7103 -2.6366  1.0533
 2448SOL     OW12190   6.942   9.130   2.882 -0.2303  0.4757 -0.8556
 2448SOL    HW112191   6.981   9.118   2.969 -1.1959  0.7721 -0.3646
 2448SOL    HW212192   6.855   9.165   2.900 -1.3619 -1.6457 -1.8339
 2449SOL     OW12193   4.494   0.460   6.589 -0.5483 -0.0507 -0.3435
 2449SOL    HW112194   4.543   0.501   6.660 -2.7519 -0.2012  1.3520
 2449SOL    HW212195   4.549   0.387   6.560 -0.1681 -0.8401  2.1631
 2450SOL     OW12196   9.698   9.714   2.334 -0.1711  0.3632 -0.3234
 2450SOL    HW112197   9.717   9.705   2.241  0.1721 -1.3072 -0.1297
 2450SOL    HW212198   9.741   9.796   2.359  5.0942 -1.9074 -0.4559
 2451SOL     OW12199   2.111   6.460   4.906 -0.3401  0.3116 -0.4303
 2451SOL    HW112200   2.148   6.548   4.910  1.0909 -0.2516 -0.6232
 2451SOL    HW212201   2.133   6.429   4.818  2.6726 -1.6483  0.8605
 2452SOL     OW12202   7.369   8.688   8.416  0.6694  0.0994 -0.7307
 2452SOL    HW112203   7.463   8.671   8.421  1.4010  3.7824  1.7628
 2452SOL    HW212204   7.361   8.767   8.363 -1.0178  0.0359 -0.6383
 2453SOL     OW12205   2.153   5.404   7.929 -0.2134 -0.2569  0.1255
 2453SOL    HW112206   2.128   5.315   7.902 -1.7951  0.0040  0.6038
 2453SOL    HW212207   2.076   5.457   7.910  0.3461  0.8267  0.7719
 2454SOL     OW12208   1.001   2.703   4.343 -0.2672  0.2772 -0.3814
 2454SOL    HW112209   0.970   2.615   4.320  1.3595 -0.9354  1.7497
 2454SOL    HW212210   1.038   2.737   4.261  0.6008 -1.7304 -0.8829
 2455SOL     OW12211   3.019   3.721   4.757  0.0947 -0.0135  0.1410
 2455SOL    HW112212   3.002   3.694   4.667  1.5386  1.5293 -0.6544
 2455SOL    HW212213   3.081   3.656   4.790 -1.9397 -1.7442  0.7698
 2456SOL     OW12214   4.953   4.703   6.367 -0.8302 -0.7384  0.6080
 2456SOL    HW112215   4.873   4.743   6.334 -1.8492 -0.9931  2.6399
 2456SOL    HW212216   4.981   4.644   6.297 -0.0293  2.3506 -1.9103
 2457SOL     OW12217   0.202   7.334   0.809 -0.2139  0.1948  0.4741
 2457SOL    HW112218   0.237   7.418   0.836 -1.7311  0.9445  0.2124
 2457SOL    HW212219   0.252   7.312   0.730  1.8973 -0.3952  1.8820
 2458SOL     OW12220   1.624   3.795   3.452  0.1358  0.4483 -0.4065
 2458SOL    HW112221   1.585   3.709   3.434 -1.2468  0.6370  1.4048
 2458SOL    HW212222   1.555   3.857   3.430  1.6745  1.3105 -3.3290
 2459SOL     OW12223   5.135   2.808   5.164 -0.2826 -0.1308  0.3793
 2459SOL    HW112224   5.163   2.886   5.212  0.0189 -0.6153  1.0135
 2459SOL    HW212225   5.112   2.746   5.232  1.5408 -1.3517 -0.0464
 2460SOL     OW12226   1.149   1.417   8.581 -0.6412  0.2508 -0.2130
 2460SOL    HW112227   1.213   1.358   8.621 -0.1901  0.0622 -1.1643
 2460SOL    HW212228   1.202   1.493   8.553 -0.5578 -0.4539 -2.1490
 2461SOL     OW12229   3.295   3.260   9.575 -0.0865 -0.1563  0.3908
 2461SOL    HW112230   3.209   3.261   9.534  0.6903  0.6961 -1.3373
 2461SOL    HW212231   3.308   3.351   9.605  1.2626  0.4578 -1.8297
 2462SOL     OW12232   4.949   9.431   9.731 -0.3971 -0.2501 -0.4015
 2462SOL    HW112233   4.952   9.491   9.806 -0.3074  1.1048 -1.4384
 2462SOL    HW212234   5.030   9.448   9.683  0.6319 -2.7055  0.3330
 2463SOL     OW12235   7.440   7.389   7.913  0.3629  0.1379  0.3403
 2463SOL    HW112236   7.508   7.391   7.980  1.3481 -0.0640 -0.6377
 2463SOL    HW212237   7.425   7.481   7.891  1.1137  0.1353 -0.2180
 2464SOL     OW12238   5.536   2.432   2.047  0.1669 -0.0511 -0.5378
 2464SOL    HW112239   5.451   2.439   2.092 -0.1343  0.2107 -1.1377
 2464SOL    HW212240   5.597   2.406   2.116 -0.2681  0.4477  0.0451
 2465SOL     OW12241   1.161   2.426   6.228  0.3840 -0.5815 -0.1973
 2465SOL    HW112242   1.084   2.463   6.272  0.2566 -1.6515  0.5167
 2465SOL    HW212243   1.214   2.502   6.205 -1.0411  0.2028 -1.0260
 2466SOL     OW12244   3.968   7.823   1.932 -0.3798  0.1971  0.2095
 2466SOL    HW112245   3.898   7.788   1.987 -0.5454 -0.3512 -0.3442
 2466SOL    HW212246   3.923   7.880   1.870 -0.1092  1.4590  1.1291
 2467SOL     OW12247   0.231   2.125   5.678  0.1472 -0.3076 -0.1010
 2467SOL    HW112248   0.217   2.093   5.767  0.3350 -0.4690 -0.1295
 2467SOL    HW212249   0.163   2.083   5.625  0.9251 -1.3480 -0.3034
 2468SOL     OW12250   3.577   8.878   2.862 -0.5299  0.1859  0.4582
 2468SOL    HW112251   3.638   8.889   2.789 -1.0641 -1.4091 -0.2781
 2468SOL    HW212252   3.622   8.914   2.938  1.3712 -0.9947 -0.0492
 2469SOL     OW12253   0.060   0.378   9.406 -0.6773 -0.8405 -0.1908
 2469SOL    HW112254   0.071   0.473   9.408 -3.5215 -0.3476  3.8197
 2469SOL    HW212255   0.149   0.343   9.408  0.4349  1.7893  0.4636
 2470SOL     OW12256   5.759   5.909   5.981 -0.1014  0.4099  0.1079
 2470SOL    HW112257   5.794   5.822   5.965  0.7536  0.9051 -0.8003
 2470SOL    HW212258   5.835   5.964   5.995 -0.6724  0.7914  2.0405
 2471SOL     OW12259   8.525   1.748   8.716  0.0920  0.6692  0.1909
 2471SOL    HW112260   8.466   1.822   8.725 -1.0074  0.0805 -1.7039
 2471SOL    HW212261   8.501   1.690   8.788 -2.1029  0.1804 -0.8475
 2472SOL     OW12262   5.932   7.930   8.861  0.3036  0.0851  0.5177
 2472SOL    HW112263   6.003   7.913   8.799 -0.7114 -0.1743 -0.6073
 2472SOL    HW212264   5.897   7.843   8.881 -1.1478  0.3409 -0.7281
 2473SOL     OW12265   4.546   8.391   8.743  0.3255 -0.3191 -0.8218
 2473SOL    HW112266   4.458   8.394   8.705 -0.1494  1.8928  0.3443
 2473SOL    HW212267   4.596   8.457   8.694  0.7338 -0.0347 -0.0305
 2474SOL     OW12268   8.946   8.807   0.328  0.1562 -0.2883  0.3300
 2474SOL    HW112269   8.928   8.774   0.416  0.1612  3.2568  1.8211
 2474SOL    HW212270   9.041   8.815   0.324  0.0574  1.8287  1.0300
 2475SOL     OW12271   3.604   8.698   2.248 -0.6166  0.0873 -0.1370
 2475SOL    HW112272   3.548   8.629   2.214  0.7790 -1.0776 -0.1375
 2475SOL    HW212273   3.663   8.654   2.308  0.3565  1.2686 -0.1896
 2476SOL     OW12274   0.891   6.726   6.499 -0.1785 -0.6658  0.1893
 2476SOL    HW112275   0.871   6.640   6.461 -0.7163  0.1217 -1.3480
 2476SOL    HW212276   0.813   6.779   6.482  0.1911  0.1740  1.0263
 2477SOL     OW12277   6.094   5.589   8.023 -0.1119  0.3375  0.1969
 2477SOL    HW112278   6.102   5.599   8.118 -0.4898  0.5599  0.2097
 2477SOL    HW212279   6.140   5.508   8.003 -0.1955  0.1889  0.5988
 2478SOL     OW12280   3.266   7.746   1.327 -0.0027  0.4249  0.6663
 2478SOL    HW112281   3.221   7.824   1.292  1.0128  0.5577 -0.4146
 2478SOL    HW212282   3.203   7.706   1.386 -0.8078  1.6904  0.6956
 2479SOL     OW12283   6.874   3.324   0.966  0.1844 -0.1838 -0.4166
 2479SOL    HW112284   6.916   3.377   0.898 -0.6760  0.7334 -0.2538
 2479SOL    HW212285   6.937   3.254   0.984  1.6459  1.1297 -0.1793
 2480SOL     OW12286   2.065   5.661   4.526 -0.1655 -0.5424  0.9934
 2480SOL    HW112287   2.098   5.750   4.509 -1.2361 -0.3596 -0.3073
 2480SOL    HW212288   2.057   5.656   4.621 -0.5388  0.9348  1.0619
 2481SOL     OW12289   1.236   4.826   5.243 -0.2719 -0.1365 -0.2528
 2481SOL    HW112290   1.270   4.876   5.169  0.2763  0.3047  0.2810
 2481SOL    HW212291   1.144   4.811   5.223 -0.1487  0.0569 -0.9770
 2482SOL     OW12292   6.236   3.069   6.046  0.9137 -0.7771 -0.0499
 2482SOL    HW112293   6.213   2.981   6.018 -0.5111 -0.6630  0.6706
 2482SOL    HW212294   6.182   3.127   5.992  3.3253 -0.1685 -2.0068
 2483SOL     OW12295   5.056   2.408   7.953  0.2933 -0.2788 -0.4860
 2483SOL    HW112296   5.064   2.377   8.043 -0.9656 -1.5384 -0.7663
 2483SOL    HW212297   4.963   2.394   7.931  0.6465 -0.3158 -2.0794
 2484SOL     OW12298   4.206   7.500   1.890  0.1193  0.1427 -0.5581
 2484SOL    HW112299   4.141   7.436   1.919 -0.7136  1.1748 -0.0782
 2484SOL    HW212300   4.216   7.483   1.797 -0.6825 -0.1956 -0.5945
 2485SOL     OW12301   0.647   7.816   7.510  0.9573 -0.1346 -0.6173
 2485SOL    HW112302   0.580   7.777   7.455  1.6941 -1.0041 -0.9315
 2485SOL    HW212303   0.699   7.870   7.451 -0.0614  1.3844 -0.1821
 2486SOL     OW12304   4.008   7.739   4.986 -0.3383  0.1699 -0.2337
 2486SOL    HW112305   3.934   7.739   4.925  0.6821 -3.0638 -1.6478
 2486SOL    HW212306   3.976   7.688   5.061 -0.6811  1.9138  0.8904
 2487SOL     OW12307   4.188   1.406   2.462 -0.0215 -0.3636  0.1866
 2487SOL    HW112308   4.145   1.404   2.376 -1.0071 -1.1064  0.6679
 2487SOL    HW212309   4.231   1.321   2.470 -0.5618 -0.5983  0.7181
 2488SOL     OW12310   7.837   8.217   1.950  0.6863  0.2065  0.0209
 2488SOL    HW112311   7.778   8.209   2.025 -0.4394  3.0332 -0.4596
 2488SOL    HW212312   7.824   8.135   1.901 -2.7362  0.5837  0.0487
 2489SOL     OW12313   7.998   2.348   3.030 -0.5744  0.6266  0.4913
 2489SOL    HW112314   8.057   2.410   3.073  0.8789  0.0165 -0.5606
 2489SOL    HW212315   7.953   2.400   2.963 -1.1537  1.0526  1.1855
 2490SOL     OW12316   6.724   9.662   5.602  0.5136  0.0877  0.1029
 2490SOL    HW112317   6.646   9.656   5.658  1.2433  0.0023  1.1525
 2490SOL    HW212318   6.767   9.577   5.613 -0.7887 -1.1090 -2.9015
 2491SOL     OW12319   1.584   5.539   0.500 -0.0654  0.3910  0.3388
 2491SOL    HW112320   1.570   5.625   0.538 -1.6579 -0.1412  1.0696
 2491SOL    HW212321   1.644   5.495   0.560  0.8912  1.0196 -0.1304
 2492SOL     OW12322   0.950   0.610   2.052  0.2577  0.8057 -0.2254
 2492SOL    HW112323   0.949   0.519   2.079 -1.1261  0.4522 -1.3437
 2492SOL    HW212324   0.861   0.627   2.019  0.1239  2.8924  1.0331
 2493SOL     OW12325   7.522   9.074   4.719 -0.1349 -0.3973  0.3056
 2493SOL    HW112326   7.556   9.090   4.807 -0.0123  0.7547  0.0666
 2493SOL    HW212327   7.451   9.012   4.731 -0.1024 -0.2675  1.2167
 2494SOL     OW12328   6.727   3.859   2.713  0.8343  0.1224 -0.0243
 2494SOL    HW112329   6.745   3.952   2.722  1.9185 -0.0461 -0.2655
 2494SOL    HW212330   6.764   3.819   2.792  0.1375 -0.0861  0.2106
 2495SOL     OW12331   4.874   3.874   1.056  0.0508 -0.3617  0.2684
 2495SOL    HW112332   4.922   3.888   1.137 -1.0246  1.3469  0.6657
 2495SOL    HW212333   4.783   3.860   1.084 -0.1432 -0.8522 -0.5785
 2496SOL     OW12334   8.148   1.687   8.488  0.0749 -0.0817  0.4022
 2496SOL    HW112335   8.229   1.733   8.465  0.3503 -0.8135 -0.1423
 2496SOL    HW212336   8.178   1.605   8.528 -0.4059  0.2095  1.3909
 2497SOL     OW12337   0.796   1.879   7.776  0.1283  0.0518 -0.2353
 2497SOL    HW112338   0.807   1.784   7.769  1.7641  0.1823  0.2581
 2497SOL    HW212339   0.721   1.898   7.720 -0.8904 -1.6472  0.4706
 2498SOL     OW12340   5.637   2.678   7.762  0.2261  0.0612 -0.1136
 2498SOL    HW112341   5.604   2.726   7.686  0.2156 -0.4867 -0.4559
 2498SOL    HW212342   5.728   2.708   7.771 -0.3437  1.6437  0.8854
 2499SOL     OW12343   8.817   8.719   9.583  0.1629 -0.2595 -0.9743
 2499SOL    HW112344   8.854   8.633   9.603 -0.3463  0.1989  2.6655
 2499SOL    HW212345   8.891   8.779   9.590 -0.2258  0.0688  1.4760
 2500SOL     OW12346   9.439   7.317   0.289  0.3483 -0.4845  0.2627
 2500SOL    HW112347   9.452   7.363   0.372  1.0476  1.5745 -0.9153
 2500SOL    HW212348   9.346   7.327   0.270  0.2636 -0.6204  0.5951
 2501SOL     OW12349   6.767   1.000   9.548 -0.1365  0.5053  0.0741
 2501SOL    HW112350   6.730   0.941   9.482  0.1793  0.5017 -0.1045
 2501SOL    HW212351   6.846   0.955   9.579  0.6167  1.2313 -0.7240
 2502SOL     OW12352   2.870   6.674   9.165 -0.1472 -0.3623 -0.1578
 2502SOL    HW112353   2.876   6.583   9.138 -1.9615 -0.3928 -0.6388
 2502SOL    HW212354   2.839   6.721   9.087  1.4678  0.8124 -0.1391
 2503SOL     OW12355   1.688   1.559   5.835  0.7193  0.1117  0.1716
 2503SOL    HW112356   1.782   1.541   5.838  0.2351 -2.7713  0.2612
 2503SOL    HW212357   1.668   1.571   5.743  1.3313  2.1494  0.2445
 2504SOL     OW12358   6.345   0.829   5.741 -0.4910 -0.9552  0.3534
 2504SOL    HW112359   6.271   0.771   5.758 -1.7677  0.0481 -1.4642
 2504SOL    HW212360   6.307   0.917   5.740  0.4037 -0.5325 -2.1126
 2505SOL     OW12361   4.994   1.276   2.373  0.4151 -0.8484 -0.0725
 2505SOL    HW112362   5.007   1.333   2.449  0.5395 -0.0342 -0.6913
 2505SOL    HW212363   5.063   1.302   2.312 -1.4915  0.6490 -1.7305
 2506SOL     OW12364   3.352   4.042   6.166 -0.1770  0.1888 -0.5287
 2506SOL    HW112365   3.392   4.120   6.128  0.2654  0.2697  0.0938
 2506SOL    HW212366   3.400   3.969   6.128  2.8203  0.3239  2.5675
 2507SOL     OW12367   0.674   0.551   3.194  0.4102  0.4382  0.0763
 2507SOL    HW112368   0.754   0.516   3.232  0.3374  0.9398  0.7148
 2507SOL    HW212369   0.635   0.478   3.146  2.3667  0.7459 -2.1554
 2508SOL     OW12370   1.172   8.749   8.519  0.1269 -0.7435  0.1069
 2508SOL    HW112371   1.081   8.774   8.532 -0.2485 -1.6392 -0.7299
 2508SOL    HW212372   1.215   8.773   8.602 -0.2500  2.3093 -0.4739
 2509SOL     OW12373   0.845   4.102   0.505 -0.1049 -0.7340 -0.1775
 2509SOL    HW112374   0.866   4.099   0.411  0.8791 -1.2768  0.0492
 2509SOL    HW212375   0.901   4.171   0.539  0.0515 -1.0247  0.1454
 2510SOL     OW12376   2.638   4.955   7.806 -0.6484 -0.3757  0.1603
 2510SOL    HW112377   2.572   4.943   7.737 -0.0570 -0.8507 -0.3383
 2510SOL    HW212378   2.721   4.931   7.764 -0.2326 -0.3314  0.9403
 2511SOL     OW12379   7.659   0.963   1.086 -0.1697  0.0939  0.2258
 2511SOL    HW112380   7.606   0.886   1.064 -1.1723  1.1420 -1.1620
 2511SOL    HW212381   7.699   0.940   1.170 -1.8752 -1.2286  0.7511
 2512SOL     OW12382   1.764   7.315   4.475  0.2014 -0.0972 -0.2084
 2512SOL    HW112383   1.713   7.391   4.503  1.9929  0.9907  0.3291
 2512SOL    HW212384   1.741   7.247   4.538  1.6503  1.3225  2.0663
 2513SOL     OW12385   9.024   8.280   6.407  0.0732  0.5108 -0.0874
 2513SOL    HW112386   9.090   8.348   6.394  0.3687  0.6127  1.7136
 2513SOL    HW212387   8.992   8.294   6.497  2.2241 -3.4174  1.5356
 2514SOL     OW12388   4.390   4.822   7.751 -0.2908  0.1003  0.1335
 2514SOL    HW112389   4.379   4.847   7.843  0.2606  0.3067  0.1456
 2514SOL    HW212390   4.480   4.788   7.746 -0.2291  0.3390 -0.3866
 2515SOL     OW12391   8.345   7.081   8.635 -0.2032  0.4665 -0.1983
 2515SOL    HW112392   8.287   7.013   8.668 -0.8226  0.9588 -0.2422
 2515SOL    HW212393   8.377   7.127   8.713 -0.9176  1.0272 -0.2263
 2516SOL     OW12394   4.798   7.169   3.546  0.1062 -0.3020 -0.4207
 2516SOL    HW112395   4.744   7.246   3.563  2.2041  1.0644  0.4776
 2516SOL    HW212396   4.886   7.195   3.573  1.3429 -2.2474 -2.2495
 2517SOL     OW12397   5.901   6.506   8.972  0.1788 -0.0808  0.4081
 2517SOL    HW112398   5.854   6.475   9.049  0.7426  0.9388  1.1914
 2517SOL    HW212399   5.988   6.531   9.005  0.8175 -0.6791 -0.7619
 2518SOL     OW12400   1.107   2.148   3.635 -0.2996  0.0607 -0.2869
 2518SOL    HW112401   1.156   2.073   3.668 -2.8800 -1.0164  1.3970
 2518SOL    HW212402   1.172   2.217   3.625  1.5251 -1.1852  2.0359
 2519SOL     OW12403   3.774   8.692   5.468 -0.3149  0.3943  0.4275
 2519SOL    HW112404   3.796   8.604   5.498  0.0847 -0.0318 -1.0366
 2519SOL    HW212405   3.731   8.733   5.543  0.0872 -0.8147  1.3513
 2520SOL     OW12406   5.837   6.179   3.979  0.4460 -0.0825  0.5663
 2520SOL    HW112407   5.796   6.185   3.893 -0.1109 -0.7130  0.7758
 2520SOL    HW212408   5.804   6.255   4.027  0.0409 -0.2231  0.5148
 2521SOL     OW12409   1.398   5.354   9.249  0.2948  0.2935  0.0182
 2521SOL    HW112410   1.394   5.272   9.201 -0.0580  0.4052 -0.1446
 2521SOL    HW212411   1.309   5.389   9.245  0.2870  0.3653  0.6435
 2522SOL     OW12412   2.348   7.761   0.479 -0.0844 -0.0294 -0.0688
 2522SOL    HW112413   2.396   7.678   0.488 -0.0371  0.1244  1.3856
 2522SOL    HW212414   2.416   7.827   0.466  0.0179  0.0254  0.7221
 2523SOL     OW12415   3.639   5.506   3.748  0.1096  0.0081 -0.1966
 2523SOL    HW112416   3.678   5.456   3.820  0.1254  0.1370 -0.1162
 2523SOL    HW212417   3.630   5.594   3.782 -0.3882 -0.0523 -0.1668
 2524SOL     OW12418   8.755   9.272   2.949  0.1076 -0.0507 -0.1693
 2524SOL    HW112419   8.772   9.307   2.862  1.0660  0.6842  0.2978
 2524SOL    HW212420   8.766   9.346   3.008 -0.3296 -0.5851  0.6045
 2525SOL     OW12421   5.746   4.319   5.563 -0.0505 -0.3210  0.1248
 2525SOL    HW112422   5.727   4.406   5.527  0.3158  0.2849  1.3500
 2525SOL    HW212423   5.675   4.304   5.626  0.1964 -0.6729  0.3196
 2526SOL     OW12424   1.625   5.811   2.319 -0.5100 -0.1809  0.1192
 2526SOL    HW112425   1.717   5.792   2.336 -0.3060 -1.6328 -2.1153
 2526SOL    HW212426   1.578   5.768   2.391  0.4847 -0.9091  0.3543
 2527SOL     OW12427   2.602   4.015   5.987  0.1829  1.2244  0.0396
 2527SOL    HW112428   2.535   4.080   5.966 -0.1044  0.8409 -0.2536
 2527SOL    HW212429   2.554   3.944   6.029  0.6635  1.7178  1.4669
 2528SOL     OW12430   0.605   1.309   3.231  0.4536 -0.1153 -0.4550
 2528SOL    HW112431   0.531   1.345   3.281  0.4673 -0.1152 -0.4344
 2528SOL    HW212432   0.681   1.329   3.285  0.4227 -0.5106 -0.2537
 2529SOL     OW12433   9.397   7.036   6.305  0.5116 -0.0911 -0.5627
 2529SOL    HW112434   9.459   7.108   6.314  0.7214 -0.2298 -0.8739
 2529SOL    HW212435   9.393   6.996   6.391  0.7923 -0.0334 -0.5240
 2530SOL     OW12436   0.626   6.499   9.262  0.8040  0.0344 -1.2100
 2530SOL    HW112437   0.721   6.490   9.269  0.6565 -1.2143 -0.5845
 2530SOL    HW212438   0.594   6.486   9.352 -0.1389 -2.4394 -1.8166
 2531SOL     OW12439   5.240   0.465   3.057 -0.2154  0.5381 -0.4655
 2531SOL    HW112440   5.291   0.393   3.095 -1.6148 -1.4800 -2.1984
 2531SOL    HW212441   5.282   0.483   2.973 -1.2753  0.0940 -1.0995
 2532SOL     OW12442   4.973   7.004   4.731  0.0819 -0.1157  0.0059
 2532SOL    HW112443   4.879   7.009   4.714 -0.0605 -3.8476 -1.2714
 2532SOL    HW212444   4.987   6.915   4.765  3.1822  0.2015 -0.1022
 2533SOL     OW12445   2.427   6.303   2.697  0.3074 -0.3398 -0.0432
 2533SOL    HW112446   2.384   6.367   2.642 -0.4551 -0.1010  0.8206
 2533SOL    HW212447   2.359   6.238   2.717  0.2201  0.2215  1.6078
 2534SOL     OW12448   8.891   2.055   8.484  0.2515 -0.1114  0.1555
 2534SOL    HW112449   8.967   2.025   8.534 -0.3166 -0.6554  0.7158
 2534SOL    HW212450   8.905   2.020   8.396  0.8952  0.2172  0.1229
 2535SOL     OW12451   7.802   6.948   4.955 -0.2292 -0.0476 -0.1544
 2535SOL    HW112452   7.770   7.017   4.897 -1.8318 -0.6790 -0.0642
 2535SOL    HW212453   7.827   6.876   4.896 -1.2644 -0.4502 -0.1246
 2536SOL     OW12454   0.247   5.113   3.859 -0.1828 -0.0847 -0.0798
 2536SOL    HW112455   0.154   5.100   3.839 -0.2335 -2.0034  1.1487
 2536SOL    HW212456   0.253   5.206   3.881 -1.6916  0.2073 -0.7213
 2537SOL     OW12457   3.039   1.053   3.712  0.5139 -0.3915 -0.3787
 2537SOL    HW112458   2.985   1.088   3.783  1.4755 -1.6479  1.0405
 2537SOL    HW212459   3.004   1.094   3.633 -1.9311 -0.4760  0.5579
 2538SOL     OW12460   1.877   4.308   5.615 -0.2293 -0.3211 -0.4163
 2538SOL    HW112461   1.904   4.343   5.700 -1.7241 -0.5046  0.1723
 2538SOL    HW212462   1.853   4.385   5.564  0.6499 -0.2118 -0.6854
 2539SOL     OW12463   4.774   9.468   1.153 -0.2426  0.6698  0.0955
 2539SOL    HW112464   4.690   9.434   1.184 -0.1390  1.5189  1.3611
 2539SOL    HW212465   4.829   9.390   1.144 -1.1418  0.1119 -0.7229
 2540SOL     OW12466   1.782   3.440   3.946 -0.1010 -0.2794  0.1125
 2540SOL    HW112467   1.754   3.527   3.919 -0.1654 -1.3243 -3.7806
 2540SOL    HW212468   1.874   3.434   3.918  0.0931 -1.2655  0.8935
 2541SOL     OW12469   8.950   3.385   1.000 -0.3782 -0.4594  0.3914
 2541SOL    HW112470   8.913   3.380   0.912  0.3527  0.0439  0.0515
 2541SOL    HW212471   9.011   3.312   1.005 -0.5880 -0.6226  0.5581
 2542SOL     OW12472   1.508   3.011   3.315  0.5089 -0.3048 -0.3113
 2542SOL    HW112473   1.433   2.967   3.354  0.7197  0.5015  1.0808
 2542SOL    HW212474   1.584   2.961   3.347  0.6056 -0.6559 -1.0823
 2543SOL     OW12475   4.675   6.992   2.029 -0.7905  0.5070  0.0737
 2543SOL    HW112476   4.635   6.905   2.038  0.3483  0.0342  0.7235
 2543SOL    HW212477   4.764   6.981   2.063 -0.2912  1.6780 -0.8094
 2544SOL     OW12478   5.631   3.211   3.811 -0.4325 -0.7423  0.0326
 2544SOL    HW112479   5.564   3.158   3.855 -0.2668 -1.2082 -0.2571
 2544SOL    HW212480   5.713   3.167   3.832  0.0867  1.1173  2.2960
 2545SOL     OW12481   5.868   1.097   8.353 -0.3805 -0.4718  0.8374
 2545SOL    HW112482   5.960   1.091   8.330 -0.3559 -0.9386  1.0413
 2545SOL    HW212483   5.828   1.022   8.309 -1.1346  1.1524 -1.4287
 2546SOL     OW12484   7.436   4.973   2.469 -0.7318  0.2810  0.4553
 2546SOL    HW112485   7.382   5.048   2.493  0.5491  1.9173 -1.4555
 2546SOL    HW212486   7.385   4.928   2.401 -0.5389  0.7223  0.0134
 2547SOL     OW12487   2.577   9.304   4.583  0.2851  0.0903  0.0994
 2547SOL    HW112488   2.547   9.384   4.627 -0.0037  1.1348 -1.8935
 2547SOL    HW212489   2.662   9.286   4.624  0.1691  1.1686  0.8752
 2548SOL     OW12490   1.640   2.801   8.123  0.0216 -0.9474 -0.1545
 2548SOL    HW112491   1.695   2.725   8.107 -0.9130 -1.8976  0.9235
 2548SOL    HW212492   1.693   2.859   8.177 -0.5201 -2.6222  2.3630
 2549SOL     OW12493   3.665   7.075   2.357 -0.1720 -1.0240  0.0832
 2549SOL    HW112494   3.715   7.064   2.277 -0.1847 -0.7596  0.0379
 2549SOL    HW212495   3.643   7.168   2.359  0.2629 -0.9277  0.6518
 2550SOL     OW12496   7.397   3.331   3.252  0.1535 -0.4420 -0.2278
 2550SOL    HW112497   7.482   3.319   3.294 -0.4600  1.2862  1.6967
 2550SOL    HW212498   7.335   3.288   3.311 -0.4090 -1.0687 -1.2433
 2551SOL     OW12499   6.558   5.055   2.716 -0.1776  0.3079  0.1664
 2551SOL    HW112500   6.600   5.133   2.751 -0.7643  1.3227 -1.2884
 2551SOL    HW212501   6.511   5.016   2.789 -1.0534  2.1188  0.6015
 2552SOL     OW12502   7.438   1.195   5.100  1.4025 -0.1797  0.2554
 2552SOL    HW112503   7.380   1.119   5.112  0.6057  0.3726  0.0002
 2552SOL    HW212504   7.396   1.264   5.151  0.3724  0.9806 -2.0138
 2553SOL     OW12505   9.395   0.972   0.878  0.3624  0.4759 -0.2944
 2553SOL    HW112506   9.481   0.946   0.847 -0.2554 -0.6737 -1.1223
 2553SOL    HW212507   9.348   1.002   0.800 -0.0072  1.0416  0.1339
 2554SOL     OW12508   7.967   3.733   7.838  0.5737  0.0784  0.1310
 2554SOL    HW112509   8.050   3.753   7.881  0.9777  0.3264 -0.7443
 2554SOL    HW212510   7.980   3.760   7.747 -0.3776 -0.1252 -0.0745
 2555SOL     OW12511   0.952   1.797   2.085  0.2955  0.1815  0.3817
 2555SOL    HW112512   0.861   1.802   2.113  0.2179 -0.1124  0.1919
 2555SOL    HW212513   0.949   1.817   1.991  0.6040  1.6060  0.6509
 2556SOL     OW12514   0.016   7.837   1.941 -0.1990  0.5108 -0.3452
 2556SOL    HW112515  -0.079   7.835   1.926 -0.1417 -1.1372 -0.6173
 2556SOL    HW212516   0.028   7.908   2.004 -1.5720  0.9575 -0.5389
 2557SOL     OW12517   3.700   5.030   1.706 -0.1534  0.1592 -0.1453
 2557SOL    HW112518   3.673   5.066   1.791  0.0210  1.5699 -0.6650
 2557SOL    HW212519   3.620   4.991   1.671 -0.0356 -1.1996  1.0208
 2558SOL     OW12520   0.309   4.322   5.446  0.0604 -0.0697  0.2489
 2558SOL    HW112521   0.280   4.346   5.358 -1.0350  1.8251  1.0600
 2558SOL    HW212522   0.268   4.388   5.503  1.1774 -0.9258  2.1166
 2559SOL     OW12523   6.456   1.344   2.259  0.2474 -0.1596  0.1676
 2559SOL    HW112524   6.385   1.292   2.296  0.3908 -1.1072 -0.8128
 2559SOL    HW212525   6.421   1.377   2.176 -0.0537  1.8722  1.0607
 2560SOL     OW12526   5.577   3.738   3.983 -0.3934 -0.5519 -0.3756
 2560SOL    HW112527   5.568   3.744   3.888 -1.4324  1.8051 -0.1907
 2560SOL    HW212528   5.508   3.794   4.018  0.2717 -0.9514  1.7753
 2561SOL     OW12529   6.759   9.687   9.478 -0.0610 -0.3854  0.0207
 2561SOL    HW112530   6.754   9.645   9.392 -1.1800  0.2693 -0.2477
 2561SOL    HW212531   6.676   9.733   9.488 -0.2002 -0.9220  1.7121
 2562SOL     OW12532   8.223   4.927   6.068 -0.1843  0.3975  0.1288
 2562SOL    HW112533   8.136   4.903   6.034 -1.2953 -1.6589  3.8371
 2562SOL    HW212534   8.271   4.844   6.071  0.5131  0.8251  1.6667
 2563SOL     OW12535   0.221   1.431   6.405 -0.4372  0.3761 -0.3394
 2563SOL    HW112536   0.178   1.512   6.432 -0.8083  0.3824 -0.9244
 2563SOL    HW212537   0.169   1.400   6.330 -0.6698 -0.7388  0.2663
 2564SOL     OW12538   9.088   6.652   9.386  0.1036  0.1466  0.4678
 2564SOL    HW112539   9.026   6.658   9.459  0.0689  2.2411  0.3418
 2564SOL    HW212540   9.155   6.718   9.407  0.2066  0.6339 -1.2704
 2565SOL     OW12541   6.326   1.535   9.369  0.5435  0.2222 -0.2369
 2565SOL    HW112542   6.412   1.575   9.379  2.0268 -2.7871  0.1440
 2565SOL    HW212543   6.287   1.580   9.294  2.0842  2.2000  0.0663
 2566SOL     OW12544   8.762   4.129   2.775 -0.3144 -0.1688 -0.3953
 2566SOL    HW112545   8.732   4.207   2.821 -0.1028  0.4949 -1.3655
 2566SOL    HW212546   8.811   4.080   2.841  1.7265  1.7342 -0.3934
 2567SOL     OW12547   6.742   1.729   8.716  0.1406  0.7908 -0.0604
 2567SOL    HW112548   6.831   1.724   8.751  0.4857  0.3496 -0.9773
 2567SOL    HW212549   6.726   1.642   8.679 -1.3921  0.2238  1.7780
 2568SOL     OW12550   3.480   1.344   3.668  0.4000  0.4230 -0.2554
 2568SOL    HW112551   3.494   1.346   3.573  0.1369  0.8906 -0.2878
 2568SOL    HW212552   3.431   1.263   3.684  1.7168 -0.4218 -0.3348
 2569SOL     OW12553   8.984   6.317   5.355  0.5553  0.3534 -0.0192
 2569SOL    HW112554   8.959   6.371   5.430 -2.0956  0.0737 -0.5867
 2569SOL    HW212555   9.057   6.264   5.387  0.0309  0.8142  2.1149
 2570SOL     OW12556   1.563   6.702   2.463  0.2759  0.8177 -0.0498
 2570SOL    HW112557   1.483   6.738   2.501 -0.3049  0.3425 -0.7786
 2570SOL    HW212558   1.546   6.608   2.457  0.3973  0.8555 -1.3144
 2571SOL     OW12559   4.433   5.271   0.886 -0.4961 -0.3604  0.1334
 2571SOL    HW112560   4.463   5.181   0.871 -1.3945 -0.4635 -1.2593
 2571SOL    HW212561   4.440   5.313   0.801  2.5894  1.8036  1.2838
 2572SOL     OW12562   3.514   2.958   2.615 -0.3155 -0.3783  0.6639
 2572SOL    HW112563   3.436   2.944   2.560  0.5535 -0.9209 -0.4592
 2572SOL    HW212564   3.480   2.959   2.705 -1.5765 -0.9313  0.2131
 2573SOL     OW12565   3.018   2.737   2.208 -0.7027 -0.8880 -0.3968
 2573SOL    HW112566   3.018   2.685   2.127  1.2754 -1.5461 -0.0315
 2573SOL    HW212567   3.086   2.803   2.194  1.1939 -2.3197  1.4517
 2574SOL     OW12568   2.642   1.172   4.699  0.2758  0.1537  0.2524
 2574SOL    HW112569   2.699   1.209   4.632  0.2101 -2.3674 -1.3322
 2574SOL    HW212570   2.702   1.145   4.769  0.5669  1.0578  0.3601
 2575SOL     OW12571   8.600   1.373   0.706 -0.0664 -0.0894  0.5066
 2575SOL    HW112572   8.519   1.422   0.719  0.7603  1.4390  0.1860
 2575SOL    HW212573   8.572   1.286   0.677 -1.5718  1.3764 -2.8811
 2576SOL     OW12574   2.403   0.298   3.883  0.3243 -0.5281  0.1689
 2576SOL    HW112575   2.431   0.208   3.899 -0.5696 -0.8635 -0.0896
 2576SOL    HW212576   2.405   0.340   3.969 -1.6422 -1.4937  0.7438
 2577SOL     OW12577   9.727   5.473   7.367  0.1702  0.3793 -0.3259
 2577SOL    HW112578   9.820   5.479   7.389  0.1640  1.2282 -0.4826
 2577SOL    HW212579   9.687   5.427   7.441  0.7602 -0.2893 -0.4095
 2578SOL     OW12580   5.653   6.640   2.894 -0.7875  0.5040 -0.6902
 2578SOL    HW112581   5.720   6.593   2.844 -2.8866 -3.1907 -0.4125
 2578SOL    HW212582   5.586   6.663   2.829 -0.1725  2.5502 -0.6738
 2579SOL     OW12583   8.251   0.477   4.407 -0.5390  0.2540 -0.4994
 2579SOL    HW112584   8.299   0.395   4.406 -0.1462  0.4072  1.4245
 2579SOL    HW212585   8.214   0.482   4.496 -0.8111  1.9899 -0.6699
 2580SOL     OW12586   0.558   6.490   3.561  0.4561  0.2402 -0.0918
 2580SOL    HW112587   0.516   6.538   3.489  0.4107 -0.9097 -0.8524
 2580SOL    HW212588   0.618   6.554   3.600 -0.0643  1.1056 -0.6811
 2581SOL     OW12589   3.031   7.930   0.511 -1.0113 -0.2545  0.1759
 2581SOL    HW112590   2.962   7.991   0.535 -1.1018 -0.2138 -0.1777
 2581SOL    HW212591   3.064   7.964   0.427 -0.6397 -0.3359  0.2881
 2582SOL     OW12592   1.592   6.329   6.033  0.0885  0.2616 -0.2090
 2582SOL    HW112593   1.519   6.303   6.090 -1.0665  0.5716 -1.5131
 2582SOL    HW212594   1.620   6.247   5.992  0.4586  0.1521  0.2464
 2583SOL     OW12595   7.944   6.950   2.572 -0.0351  1.6580  0.3549
 2583SOL    HW112596   7.999   6.980   2.645 -0.8173  1.8788  0.8695
 2583SOL    HW212597   7.864   7.001   2.580 -0.1753  1.5992 -0.6047
 2584SOL     OW12598   7.924   6.220   0.072  0.4206 -0.2696 -0.0452
 2584SOL    HW112599   7.834   6.220   0.040  0.1993  0.7923  0.5326
 2584SOL    HW212600   7.917   6.236   0.166  1.2652  2.7481 -0.3848
 2585SOL     OW12601   0.832   0.045   1.819  0.3119  0.6873 -0.1154
 2585SOL    HW112602   0.794   0.124   1.781  2.1552  1.2443 -0.9107
 2585SOL    HW212603   0.905   0.023   1.761  0.9749 -0.5398  1.1212
 2586SOL     OW12604   4.561   9.449   7.914 -0.4945  0.3573 -0.0602
 2586SOL    HW112605   4.532   9.428   8.003 -0.1456 -1.8422 -0.4115
 2586SOL    HW212606   4.521   9.534   7.896 -1.4522  0.3679  1.7999
 2587SOL     OW12607   2.553   6.337   7.122  0.0965  0.3287 -0.3567
 2587SOL    HW112608   2.528   6.246   7.135  3.1845 -0.5778 -0.0521
 2587SOL    HW212609   2.518   6.383   7.198 -1.2963 -0.5977 -0.3991
 2588SOL     OW12610   1.883   0.428   3.192  0.4584 -0.2430 -0.3037
 2588SOL    HW112611   1.923   0.482   3.124 -1.3046 -0.0351 -1.2273
 2588SOL    HW212612   1.807   0.478   3.220 -0.6295 -1.7678 -0.4466
 2589SOL     OW12613   8.347   3.222   5.060  0.3698 -0.3509  0.0195
 2589SOL    HW112614   8.318   3.135   5.089  1.6459 -1.1499 -1.0143
 2589SOL    HW212615   8.442   3.220   5.070  0.8379 -0.4375 -3.3963
 2590SOL     OW12616   1.866   6.849   8.507  0.1698 -0.7702  0.4425
 2590SOL    HW112617   1.954   6.826   8.536  0.7299 -1.0725 -1.3967
 2590SOL    HW212618   1.879   6.915   8.439 -1.0878 -0.0999  0.8173
 2591SOL     OW12619   4.668   0.137   5.693  0.5383  1.0751 -0.3125
 2591SOL    HW112620   4.702   0.047   5.686 -0.7599  0.4965  0.4345
 2591SOL    HW212621   4.575   0.128   5.674  0.6421  2.5133 -1.6732
 2592SOL     OW12622   9.041   0.704   7.439  0.1165  0.6651 -0.4890
 2592SOL    HW112623   8.953   0.667   7.442 -0.0774  1.1468 -0.0470
 2592SOL    HW212624   9.088   0.651   7.374  0.4292 -1.6374  1.4716
 2593SOL     OW12625   2.676   6.506   0.582 -0.1462  0.2238 -0.3104
 2593SOL    HW112626   2.769   6.527   0.572 -0.1650  0.0090 -0.9560
 2593SOL    HW212627   2.674   6.437   0.648  0.0744  0.8547  0.3750
 2594SOL     OW12628   9.094   5.022   2.576  0.1864 -0.5950 -0.1785
 2594SOL    HW112629   9.133   5.091   2.629  0.5647 -1.2866  0.4650
 2594SOL    HW212630   9.078   5.063   2.491  0.8527  0.1430  0.0398
 2595SOL     OW12631   8.155   4.540   2.271  0.4226  0.0503  0.1028
 2595SOL    HW112632   8.067   4.511   2.245  0.4009  1.4533 -1.4952
 2595SOL    HW212633   8.139   4.609   2.335  0.2762  1.4143 -1.3545
 2596SOL     OW12634   9.519   7.976   0.467  0.3961  0.1359  0.4842
 2596SOL    HW112635   9.598   7.923   0.454 -1.7230 -3.2809  0.2084
 2596SOL    HW212636   9.520   8.039   0.395  2.4731 -0.2890  0.0726
 2597SOL     OW12637   4.017   6.859   1.962 -0.2135 -0.4188  0.8078
 2597SOL    HW112638   3.952   6.882   2.028 -2.3898  0.0003 -1.3433
 2597SOL    HW212639   3.991   6.909   1.885  1.2844 -2.0566 -0.8506
 2598SOL     OW12640   5.515   6.567   4.304 -0.2896 -0.5125 -0.3453
 2598SOL    HW112641   5.557   6.652   4.320  1.4985 -1.4656  0.2448
 2598SOL    HW212642   5.535   6.547   4.213  0.9716 -1.1605  0.0520
 2599SOL     OW12643   0.428   0.737   8.328  0.0106  0.4050 -0.2495
 2599SOL    HW112644   0.508   0.781   8.356 -0.3893 -0.2605  2.1192
 2599SOL    HW212645   0.459   0.662   8.276  0.8177  1.2424 -1.0066
 2600SOL     OW12646   2.515   1.270   3.080 -0.2205  0.2922  0.2224
 2600SOL    HW112647   2.603   1.302   3.063 -0.3766  1.2288  1.0824
 2600SOL    HW212648   2.499   1.205   3.012  1.1834  0.0060  0.1483
 2601SOL     OW12649   2.714   0.623   1.591 -0.1374 -1.1099  0.1351
 2601SOL    HW112650   2.657   0.547   1.602 -0.1132 -1.0877  0.4295
 2601SOL    HW212651   2.802   0.590   1.610 -0.2106 -0.8547  0.9519
 2602SOL     OW12652   7.972   6.568   9.600 -0.4380 -0.3244 -0.2445
 2602SOL    HW112653   7.882   6.590   9.574 -0.4272 -1.4475 -1.2960
 2602SOL    HW212654   8.012   6.653   9.619 -1.0993  0.3929 -1.8369
 2603SOL     OW12655   5.714   9.190   9.716  0.7591 -0.1345 -0.1031
 2603SOL    HW112656   5.666   9.107   9.725  0.2515  0.1966  0.3320
 2603SOL    HW212657   5.757   9.202   9.801 -1.7522  1.6001  1.0496
 2604SOL     OW12658   8.073   8.785   9.679  0.1177 -0.7264 -0.0145
 2604SOL    HW112659   8.154   8.744   9.709 -0.5190 -0.7379  1.7733
 2604SOL    HW212660   8.053   8.851   9.745 -1.4162 -0.8157 -0.3533
 2605SOL     OW12661   0.377   7.857   7.953 -0.0976 -0.6012 -0.0765
 2605SOL    HW112662   0.286   7.843   7.928  0.1608 -3.8284  0.3969
 2605SOL    HW212663   0.373   7.894   8.041 -0.9073  1.4712 -0.9368
 2606SOL     OW12664   7.476   4.762   1.591 -0.3352  0.3955 -0.2915
 2606SOL    HW112665   7.384   4.773   1.567  0.0875  1.1780 -1.6267
 2606SOL    HW212666   7.477   4.683   1.645 -1.5623 -0.5286 -1.5627
 2607SOL     OW12667   3.775   7.791   8.021 -0.0469  0.4791 -0.1449
 2607SOL    HW112668   3.682   7.813   8.019  0.2758  1.9004 -0.9149
 2607SOL    HW212669   3.820   7.875   8.012  1.3187 -0.1897  0.1206
 2608SOL     OW12670   4.184   5.883   2.190  0.0172 -0.3571  0.1244
 2608SOL    HW112671   4.137   5.855   2.112 -0.3709 -0.0538  0.2471
 2608SOL    HW212672   4.174   5.978   2.192  1.0070 -0.2295 -0.0828
 2609SOL     OW12673   0.486   2.968   2.455  0.1667 -0.2500  0.2369
 2609SOL    HW112674   0.487   2.930   2.542  0.1527 -0.0441  0.3289
 2609SOL    HW212675   0.414   2.925   2.410  0.1122 -0.2863  0.3593
 2610SOL     OW12676   5.693   9.524   4.426  0.4919 -0.1140  0.2449
 2610SOL    HW112677   5.733   9.478   4.352  0.2302  0.1888 -0.0854
 2610SOL    HW212678   5.622   9.466   4.455 -0.9877  0.8512 -1.2848
 2611SOL     OW12679   6.526   7.820   8.930  0.3999 -0.0879  0.1503
 2611SOL    HW112680   6.545   7.850   8.841  0.0832  2.4416  0.8550
 2611SOL    HW212681   6.597   7.855   8.983 -2.0145  3.1446  1.6427
 2612SOL     OW12682   8.185   0.924   8.965  0.1057  0.0468 -0.2296
 2612SOL    HW112683   8.171   0.871   8.886  1.2859 -2.0606  0.8646
 2612SOL    HW212684   8.240   0.996   8.936  0.4748 -0.6519 -1.3604
 2613SOL     OW12685   0.116   0.023   8.488  0.4252  0.3185 -0.0592
 2613SOL    HW112686   0.207   0.053   8.485  0.0440  1.9686  2.2189
 2613SOL    HW212687   0.093   0.025   8.581 -1.4261 -1.7707 -0.3945
 2614SOL     OW12688   8.324   8.248   9.722  0.4766 -0.5189  0.3982
 2614SOL    HW112689   8.403   8.281   9.765  0.3353  0.3743 -0.0030
 2614SOL    HW212690   8.254   8.262   9.785  0.7872 -2.4741  1.2771
 2615SOL     OW12691   6.392   1.881   7.588  0.4799 -0.3525 -0.1588
 2615SOL    HW112692   6.481   1.869   7.555  0.0518 -1.2833 -1.0361
 2615SOL    HW212693   6.401   1.947   7.656  1.7403  0.0741 -0.6956
 2616SOL     OW12694   8.052   2.170   4.060  0.6007 -0.1361  0.1135
 2616SOL    HW112695   8.082   2.186   4.149 -1.1483 -0.0342  0.7178
 2616SOL    HW212696   8.053   2.256   4.018 -0.4271  0.1633  0.6621
 2617SOL     OW12697   8.876   8.301   8.007 -0.1715 -0.2723  0.3692
 2617SOL    HW112698   8.894   8.393   7.987 -1.6869  0.7058  2.8944
 2617SOL    HW212699   8.948   8.275   8.064 -0.0929 -0.4140  0.2026
 2618SOL     OW12700   5.499   2.557   1.403  0.0398 -0.5903  0.9063
 2618SOL    HW112701   5.581   2.585   1.445 -0.1251 -0.3828  1.0890
 2618SOL    HW212702   5.490   2.614   1.328  0.3751 -1.0120  0.5377
 2619SOL     OW12703   0.199   8.668   5.107 -0.3427  0.2745 -0.0032
 2619SOL    HW112704   0.194   8.573   5.100  1.0845  0.1948 -0.3325
 2619SOL    HW212705   0.207   8.698   5.017  0.2921  0.6139  0.1603
 2620SOL     OW12706   4.941   1.932   7.042  0.0044 -0.4437  0.1528
 2620SOL    HW112707   5.005   1.865   7.064 -0.5852 -1.0281  0.1177
 2620SOL    HW212708   4.896   1.899   6.964  0.0691  0.2421 -0.1897
 2621SOL     OW12709   8.797   3.279   5.379  0.2854 -0.5621  0.2774
 2621SOL    HW112710   8.831   3.290   5.290 -1.1543 -1.0505 -0.3569
 2621SOL    HW212711   8.738   3.354   5.392  0.2012 -0.6934  0.6898
 2622SOL     OW12712   5.158   0.752   6.261  0.1543  0.1549  0.1622
 2622SOL    HW112713   5.190   0.843   6.260 -0.6080  0.4535 -2.0516
 2622SOL    HW212714   5.135   0.736   6.353  1.0848  1.9012  0.7517
 2623SOL     OW12715   7.752   4.358   4.349 -0.7158  0.1280  0.5195
 2623SOL    HW112716   7.792   4.350   4.263 -0.8868 -0.1844  0.4682
 2623SOL    HW212717   7.717   4.447   4.352 -0.7868  0.1096  0.2335
 2624SOL     OW12718   4.785   8.954   5.415  0.4521 -0.2430  0.7787
 2624SOL    HW112719   4.742   9.037   5.399 -0.0469 -0.8738 -1.5184
 2624SOL    HW212720   4.879   8.974   5.409  0.3193 -0.0586 -1.2686
 2625SOL     OW12721   7.486   0.498   7.270  0.2951  0.0485  0.0507
 2625SOL    HW112722   7.508   0.462   7.184  0.6178 -0.6455  0.4086
 2625SOL    HW212723   7.457   0.422   7.321 -1.1365  0.6504  0.1755
 2626SOL     OW12724   4.361   1.312   7.046 -0.0173 -0.1319 -0.3058
 2626SOL    HW112725   4.344   1.387   6.990 -0.1684  0.6230  0.7100
 2626SOL    HW212726   4.450   1.285   7.023 -0.7610 -1.0811 -2.2548
 2627SOL     OW12727   9.512   5.996   2.388  0.7801  0.2128 -0.0116
 2627SOL    HW112728   9.420   6.012   2.407  1.0651  2.1142 -0.0718
 2627SOL    HW212729   9.522   5.901   2.395 -1.5119 -0.2272 -1.5676
 2628SOL     OW12730   2.064   8.303   8.144  0.4275 -0.4241  0.0232
 2628SOL    HW112731   2.124   8.288   8.217 -0.5139 -0.8039  0.7525
 2628SOL    HW212732   2.010   8.377   8.172 -0.5437 -1.1489  0.1300
 2629SOL     OW12733   2.670   3.583   0.077 -0.0560  0.0704  0.1362
 2629SOL    HW112734   2.723   3.504   0.069 -0.0413  0.2313 -1.6537
 2629SOL    HW212735   2.585   3.553   0.107 -0.7771 -0.9622 -2.7158
 2630SOL     OW12736   3.165   2.399   7.816 -0.3872 -0.2970 -0.1696
 2630SOL    HW112737   3.149   2.361   7.902  0.0628 -1.2786 -0.5059
 2630SOL    HW212738   3.211   2.330   7.767 -1.6455 -0.1892 -1.5746
 2631SOL     OW12739   4.238   4.211   7.221 -0.3486 -0.0499  0.0968
 2631SOL    HW112740   4.277   4.285   7.269  0.3587 -0.5502  0.3197
 2631SOL    HW212741   4.227   4.143   7.288  0.4312 -0.6769 -0.3921
 2632SOL     OW12742   3.108   7.666   1.549  0.0453 -0.3817 -0.0556
 2632SOL    HW112743   3.014   7.675   1.538  0.1066  0.4026  0.0179
 2632SOL    HW212744   3.125   7.698   1.638  0.2866 -1.2658  0.2316
 2633SOL     OW12745   3.333   7.431   2.389 -0.4985  0.1049  0.6923
 2633SOL    HW112746   3.384   7.490   2.333 -0.3192 -1.2896 -0.6618
 2633SOL    HW212747   3.399   7.383   2.439 -0.6289  0.7200  1.4664
 2634SOL     OW12748   9.199   0.121   0.153 -0.5903  0.3631 -0.1102
 2634SOL    HW112749   9.165   0.075   0.076 -0.9422  2.1719 -1.0819
 2634SOL    HW212750   9.132   0.108   0.220 -1.3474  0.5894 -0.7985
 2635SOL     OW12751   2.842   6.250   7.234 -0.0567 -0.5241 -0.5756
 2635SOL    HW112752   2.910   6.196   7.193  1.0212  0.2437  0.1331
 2635SOL    HW212753   2.820   6.203   7.315  0.8056  0.0127 -0.0106
 2636SOL     OW12754   0.617   5.200   9.283 -0.2721  0.4549  0.1047
 2636SOL    HW112755   0.675   5.168   9.352  0.0785  1.1337  0.1339
 2636SOL    HW212756   0.632   5.140   9.209 -0.1898  0.1023  0.4047
 2637SOL     OW12757   0.107   7.597   2.090 -0.2164  0.1616  0.0434
 2637SOL    HW112758   0.190   7.550   2.076 -1.6468 -2.2176 -1.0496
 2637SOL    HW212759   0.083   7.630   2.004 -2.0091 -2.1347 -0.4343
 2638SOL     OW12760   4.487   6.574   8.868 -0.2588 -0.0619  0.2959
 2638SOL    HW112761   4.473   6.655   8.917  0.9679  1.0765 -1.1360
 2638SOL    HW212762   4.403   6.555   8.827 -0.1254  1.5118 -0.7808
 2639SOL     OW12763   4.823   3.965   9.429  0.3914 -0.2014 -0.3535
 2639SOL    HW112764   4.815   3.925   9.343  0.7351 -1.3860  0.1456
 2639SOL    HW212765   4.880   4.041   9.416 -1.8571  1.3919 -1.7015
 2640SOL     OW12766   0.734   8.468   3.800  0.5762  0.2324  0.5375
 2640SOL    HW112767   0.676   8.510   3.864  0.5105 -0.2173  0.7790
 2640SOL    HW212768   0.681   8.398   3.763  0.7736  0.1892  0.3367
 2641SOL     OW12769   2.072   6.154   3.869 -0.0343  0.5971  0.1537
 2641SOL    HW112770   2.039   6.065   3.856 -1.8629  1.2118  0.3846
 2641SOL    HW212771   2.160   6.141   3.905 -0.6768 -1.1323  1.2260
 2642SOL     OW12772   9.189   2.983   3.526 -0.1079 -0.4559  0.4581
 2642SOL    HW112773   9.235   2.927   3.464 -1.9568 -0.7433 -0.7282
 2642SOL    HW212774   9.193   3.070   3.487 -0.8430 -0.5436  0.1818
 2643SOL     OW12775   6.278   7.725   9.734 -0.0507  0.0509 -0.0342
 2643SOL    HW112776   6.309   7.636   9.715  1.6164  0.8659 -1.4900
 2643SOL    HW212777   6.221   7.746   9.660  1.7917  1.1480 -1.2108
 2644SOL     OW12778   4.614   1.101   5.663  0.4075  0.2226  0.1470
 2644SOL    HW112779   4.674   1.160   5.708  0.6815  1.2793 -1.4855
 2644SOL    HW212780   4.623   1.018   5.709  3.8370  0.0532 -0.5251
 2645SOL     OW12781   3.872   6.956   3.952  0.0441 -0.4061  0.1448
 2645SOL    HW112782   3.967   6.959   3.938 -0.2055  0.1690 -1.6703
 2645SOL    HW212783   3.837   7.021   3.892 -1.5723 -1.1500  0.2379
 2646SOL     OW12784   8.902   3.985   9.373  0.2743  0.2892  0.0980
 2646SOL    HW112785   8.924   3.920   9.439  0.6007  0.3077  0.0117
 2646SOL    HW212786   8.977   3.985   9.313  1.4585  2.4764  1.4371
 2647SOL     OW12787   1.594   2.395   0.690  0.1488  0.3279 -0.1957
 2647SOL    HW112788   1.506   2.384   0.727  0.1711 -0.6276 -0.4059
 2647SOL    HW212789   1.603   2.489   0.679  0.3849  0.7848  2.8314
 2648SOL     OW12790   5.228   7.751   3.667 -0.0918  0.3102 -0.4039
 2648SOL    HW112791   5.267   7.775   3.751 -0.4419 -2.9454  0.8627
 2648SOL    HW212792   5.291   7.689   3.629 -2.2250 -2.3360  0.0550
 2649SOL     OW12793   8.002   8.346   0.422 -0.3568  0.3867 -0.2130
 2649SOL    HW112794   7.961   8.347   0.336 -0.4464 -0.5847 -0.1882
 2649SOL    HW212795   8.000   8.437   0.450 -1.3356  0.5493 -0.7611
 2650SOL     OW12796   6.295   5.198   4.080 -0.6340 -0.8286 -0.4378
 2650SOL    HW112797   6.334   5.192   4.167 -0.6349 -1.5567 -0.4809
 2650SOL    HW212798   6.231   5.269   4.087 -0.3839 -0.6488  0.0563
 2651SOL     OW12799   5.587   8.531   3.361  0.4393 -0.6240  0.0465
 2651SOL    HW112800   5.593   8.509   3.268 -0.5545  1.5643 -0.5805
 2651SOL    HW212801   5.613   8.622   3.366 -2.8901  0.4071  1.3463
 2652SOL     OW12802   6.196   6.460   1.847  0.1451  0.0617 -0.1891
 2652SOL    HW112803   6.216   6.494   1.759  0.1203  0.0962 -0.1816
 2652SOL    HW212804   6.245   6.518   1.906 -0.8920  0.8831 -0.0973
 2653SOL     OW12805   8.404   6.868   9.114 -0.5057  0.0899  0.2467
 2653SOL    HW112806   8.401   6.901   9.203 -1.6671  0.2817  0.1543
 2653SOL    HW212807   8.312   6.855   9.090 -0.1595 -2.1152 -0.1286
 2654SOL     OW12808   2.314   1.551   6.573  0.5588  0.0281 -0.7701
 2654SOL    HW112809   2.267   1.622   6.616  0.9759  0.3623 -0.8594
 2654SOL    HW212810   2.290   1.559   6.481  0.8984  0.2885 -0.8383
 2655SOL     OW12811   3.613   0.989   6.898  0.4338 -0.1913  0.0019
 2655SOL    HW112812   3.578   0.916   6.949 -0.1129  0.9727  1.3343
 2655SOL    HW212813   3.688   1.020   6.948  0.3182  0.5278 -0.2587
 2656SOL     OW12814   4.235   0.490   3.763  0.0446  0.2088  0.0351
 2656SOL    HW112815   4.241   0.415   3.704 -0.1504 -0.0138  0.2933
 2656SOL    HW212816   4.281   0.560   3.718  0.6689 -0.2033  0.0125
 2657SOL     OW12817   6.003   5.730   0.275 -0.2370 -0.2567 -0.4333
 2657SOL    HW112818   6.044   5.798   0.328 -1.1805 -0.8856  1.1677
 2657SOL    HW212819   6.043   5.648   0.306 -0.5090 -0.6018 -0.9814
 2658SOL     OW12820   7.861   1.030   4.840 -0.2231 -0.6402 -0.4294
 2658SOL    HW112821   7.909   1.032   4.757  1.0671 -2.3586  0.2217
 2658SOL    HW212822   7.909   0.967   4.894 -2.0463 -0.8687  1.0124
 2659SOL     OW12823   7.885   2.799   3.060 -0.2147  0.1230 -0.2816
 2659SOL    HW112824   7.863   2.736   2.991  1.3976  0.1756 -0.8890
 2659SOL    HW212825   7.923   2.746   3.129  1.9336  0.4456 -1.1381
 2660SOL     OW12826   9.251   0.247   7.795  0.0429 -0.7218 -0.0680
 2660SOL    HW112827   9.316   0.177   7.784 -0.4778 -0.8345 -3.4239
 2660SOL    HW212828   9.299   0.327   7.774  0.0283 -0.3249  1.3475
 2661SOL     OW12829   3.068   8.744   2.246 -0.1950  0.6758  0.0496
 2661SOL    HW112830   3.130   8.704   2.184  1.2143  2.7556  0.0034
 2661SOL    HW212831   2.983   8.710   2.220  0.7288 -0.9524 -1.0046
 2662SOL     OW12832   0.495   9.642   4.712  0.1099  0.5954  0.4713
 2662SOL    HW112833   0.519   9.644   4.620  0.2139 -0.8434  0.4521
 2662SOL    HW212834   0.409   9.600   4.714  0.6781 -0.5808  1.1265
 2663SOL     OW12835   6.383   3.679   4.933  0.2865 -0.0701 -0.3278
 2663SOL    HW112836   6.298   3.657   4.896 -0.3456  1.4656  0.1479
 2663SOL    HW212837   6.390   3.622   5.010 -0.5671  0.1581 -0.0650
 2664SOL     OW12838   2.747   4.128   4.069  0.1533 -0.9896 -0.0759
 2664SOL    HW112839   2.712   4.070   4.137  0.1593 -0.9543 -0.0431
 2664SOL    HW212840   2.778   4.068   4.001 -3.1466 -1.0096 -1.7329
 2665SOL     OW12841   3.706   1.817   9.188  0.6688  0.3320 -0.3260
 2665SOL    HW112842   3.699   1.913   9.188 -1.1194  0.2257 -0.4740
 2665SOL    HW212843   3.683   1.791   9.277  0.1505 -0.0222 -0.5639
 2666SOL     OW12844   0.184   1.377   3.075  0.0324 -0.6686 -0.6270
 2666SOL    HW112845   0.185   1.318   3.151  0.1695 -0.3827 -0.4023
 2666SOL    HW212846   0.211   1.462   3.111  0.7944 -0.6922 -1.1303
 2667SOL     OW12847   6.740   6.596   8.339 -0.3172 -1.0013 -0.1245
 2667SOL    HW112848   6.804   6.648   8.290 -0.3991  0.0899  0.8779
 2667SOL    HW212849   6.782   6.510   8.350  0.0309 -1.0083 -1.3701
 2668SOL     OW12850   1.861   6.435   0.902  0.4029 -0.2619  0.1011
 2668SOL    HW112851   1.866   6.485   0.983  0.7802  1.0360 -0.6813
 2668SOL    HW212852   1.797   6.482   0.848  0.6629 -0.6938 -0.6104
 2669SOL     OW12853   2.781   4.859   3.432 -0.5764  0.5169 -0.2384
 2669SOL    HW112854   2.796   4.778   3.383 -1.1232  1.2280 -1.6375
 2669SOL    HW212855   2.705   4.840   3.487 -0.1210 -0.2075  0.1601
 2670SOL     OW12856   1.344   5.703   3.225 -0.3184  0.5309  0.3898
 2670SOL    HW112857   1.323   5.796   3.224  0.4771  0.7149 -0.1299
 2670SOL    HW212858   1.259   5.659   3.220 -0.6401  1.2507 -3.3271
 2671SOL     OW12859   7.228   2.258   0.864 -0.1365  0.3981  0.7876
 2671SOL    HW112860   7.236   2.165   0.882 -0.4539  0.2828  0.3486
 2671SOL    HW212861   7.303   2.279   0.809  0.5030  0.6247  1.7204
 2672SOL     OW12862   6.106   0.142   0.425  0.0950  0.1166 -0.6830
 2672SOL    HW112863   6.196   0.172   0.437 -0.0763  0.1892  0.5079
 2672SOL    HW212864   6.091   0.148   0.331  1.8226 -1.2827 -1.1064
 2673SOL     OW12865   5.332   0.723   8.665 -0.1650  0.0661  0.0624
 2673SOL    HW112866   5.252   0.774   8.652 -1.2883 -1.4627  0.6854
 2673SOL    HW212867   5.317   0.674   8.745  0.9916 -1.0224 -0.3486
 2674SOL     OW12868   3.158   4.697   3.939  0.0051 -0.2232 -0.1138
 2674SOL    HW112869   3.099   4.693   3.864  1.2767  0.2050 -1.1696
 2674SOL    HW212870   3.101   4.708   4.014 -1.4554 -2.5643 -0.7645
 2675SOL     OW12871   3.878   5.211   0.431  0.1412 -0.0579 -0.5084
 2675SOL    HW112872   3.966   5.199   0.465  0.1270 -0.5556 -0.6366
 2675SOL    HW212873   3.850   5.296   0.465  0.4097 -0.2052  0.1000
 2676SOL     OW12874   2.018   9.102   1.986  0.5231 -0.8467 -0.1676
 2676SOL    HW112875   1.966   9.038   1.937  0.1722  0.2859 -1.3361
 2676SOL    HW212876   2.099   9.109   1.936  0.4831 -0.2565 -0.1526
 2677SOL     OW12877   6.475   8.883   2.444 -0.3239 -0.1693 -0.3372
 2677SOL    HW112878   6.423   8.819   2.395 -0.5700 -1.0691  1.0606
 2677SOL    HW212879   6.415   8.920   2.508  0.1165  0.6536 -0.3764
 2678SOL     OW12880   6.684   0.871   6.763  0.0261  0.3226  0.4092
 2678SOL    HW112881   6.720   0.948   6.719 -1.6014  1.8069  1.5522
 2678SOL    HW212882   6.604   0.852   6.716  0.9357 -1.4054 -0.5408
 2679SOL     OW12883   6.751   1.033   1.593  0.0652 -0.0099  0.2520
 2679SOL    HW112884   6.821   1.054   1.655  1.4796 -1.8606 -0.6238
 2679SOL    HW212885   6.699   1.113   1.588  3.0009  2.0335 -0.1710
 2680SOL     OW12886   7.108   1.041   4.944  0.1984 -0.1557 -0.6663
 2680SOL    HW112887   7.190   1.054   4.990  0.7007 -0.5960 -1.4128
 2680SOL    HW212888   7.077   1.129   4.924  1.1849  0.0037 -1.5638
 2681SOL     OW12889   3.148   8.933   8.108 -0.6162 -0.1411 -0.0793
 2681SOL    HW112890   3.159   8.909   8.200  2.9124  0.5300 -0.1766
 2681SOL    HW212891   3.133   8.849   8.063 -0.8765 -0.6479  0.9377
 2682SOL     OW12892   3.005   4.738   3.684 -0.0320  0.1115 -0.0442
 2682SOL    HW112893   2.991   4.819   3.734  1.7156  0.2471  0.2710
 2682SOL    HW212894   3.009   4.768   3.593  0.2132  0.3238  0.0354
 2683SOL     OW12895   9.709   1.854   8.398  0.4635 -0.3126 -0.6125
 2683SOL    HW112896   9.635   1.863   8.338 -0.2086 -2.0489 -0.1305
 2683SOL    HW212897   9.742   1.765   8.382 -0.1512 -1.0901  1.9553
 2684SOL     OW12898   6.107   3.676   9.471 -0.4902 -0.2450  0.4068
 2684SOL    HW112899   6.012   3.664   9.478 -0.3990 -2.0287 -0.7515
 2684SOL    HW212900   6.125   3.665   9.377  1.0067 -1.2056  0.7806
 2685SOL     OW12901   6.138   0.406   3.059  0.1061 -0.1717  0.2943
 2685SOL    HW112902   6.221   0.425   3.016 -0.7467  1.2604 -0.8410
 2685SOL    HW212903   6.112   0.320   3.025  0.8771 -0.4130  0.2947
 2686SOL     OW12904   9.404   8.848   8.667 -0.2206 -0.2807 -0.0312
 2686SOL    HW112905   9.404   8.944   8.670 -0.3069 -0.2892  0.3751
 2686SOL    HW212906   9.338   8.826   8.601  0.7735 -0.0460 -1.1420
 2687SOL     OW12907   8.246   1.339   8.169  0.0118  0.0714  0.2410
 2687SOL    HW112908   8.171   1.331   8.110  1.0859 -0.2656 -1.1259
 2687SOL    HW212909   8.238   1.427   8.207 -1.3569 -0.1655  0.5480
 2688SOL     OW12910   2.609   1.312   0.990 -0.1594  0.2528  0.1725
 2688SOL    HW112911   2.679   1.269   0.942 -0.0192 -1.3246  1.7025
 2688SOL    HW212912   2.529   1.274   0.954 -0.0817 -0.4103  0.6792
 2689SOL     OW12913   7.859   1.063   7.311  0.3883 -0.2237 -0.4828
 2689SOL    HW112914   7.778   1.014   7.293  0.2256 -0.5574  1.0366
 2689SOL    HW212915   7.857   1.135   7.248 -0.6332 -0.7482 -1.0877
 2690SOL     OW12916   6.046   4.821   8.670  0.4343 -0.1364 -0.9916
 2690SOL    HW112917   6.135   4.809   8.704  0.2289  0.0244 -0.4034
 2690SOL    HW212918   6.040   4.915   8.652 -0.5272  0.3482  1.5346
 2691SOL     OW12919   9.297   2.026   3.134 -0.2345  0.3457 -0.6952
 2691SOL    HW112920   9.344   1.985   3.207  1.0667  0.6164 -1.3473
 2691SOL    HW212921   9.217   2.061   3.173 -0.8517 -1.8202  0.0933
 2692SOL     OW12922   7.727   9.138   3.374  0.3064  0.1744 -0.1103
 2692SOL    HW112923   7.790   9.199   3.413 -0.0975  0.0871  0.6970
 2692SOL    HW212924   7.644   9.185   3.374  0.2319  0.0502 -0.5737
 2693SOL     OW12925   3.214   8.822   2.596  0.2904 -0.1295 -0.0387
 2693SOL    HW112926   3.148   8.881   2.558  1.0916  1.1756  0.5378
 2693SOL    HW212927   3.292   8.876   2.605  0.9549 -1.1977  0.8540
 2694SOL     OW12928   7.389   3.083   6.627 -0.2948 -0.0920  0.4243
 2694SOL    HW112929   7.439   3.112   6.551 -1.9980 -0.1410 -0.7710
 2694SOL    HW212930   7.400   3.154   6.691 -1.5164  1.6032 -1.1408
 2695SOL     OW12931   5.646   0.178   8.273 -0.4853  0.7981  0.1365
 2695SOL    HW112932   5.652   0.274   8.265  1.3015  0.7757  0.5968
 2695SOL    HW212933   5.716   0.146   8.216 -0.7600 -0.2059  0.3534
 2696SOL     OW12934   1.527   4.494   9.029  0.2374  0.9110 -0.3606
 2696SOL    HW112935   1.595   4.511   9.094  0.4426 -0.5020 -0.1857
 2696SOL    HW212936   1.473   4.426   9.069 -0.2230  0.7393 -1.2611
 2697SOL     OW12937   9.630   2.447   5.311 -0.5489 -0.1512  0.0933
 2697SOL    HW112938   9.666   2.535   5.304 -2.1791  0.6556  1.0483
 2697SOL    HW212939   9.677   2.407   5.384  0.8513 -0.4506 -0.9355
 2698SOL     OW12940   6.230   9.080   4.414  0.3365  0.1176  0.0149
 2698SOL    HW112941   6.305   9.138   4.398 -1.7031  2.4811 -1.6697
 2698SOL    HW212942   6.223   9.028   4.334 -0.7421  1.1141 -0.5815
 2699SOL     OW12943   7.302   2.507   8.629 -0.3458 -0.2386  0.1995
 2699SOL    HW112944   7.358   2.429   8.636  1.1385  0.8030  0.3986
 2699SOL    HW212945   7.214   2.474   8.647  0.4675 -1.5625  2.2057
 2700SOL     OW12946   3.053   3.232   0.579  0.5696  0.1715 -0.5628
 2700SOL    HW112947   3.084   3.142   0.591  2.7843  1.0210  0.7996
 2700SOL    HW212948   2.986   3.243   0.647  0.7689 -0.2619 -0.2862
 2701SOL     OW12949   1.265   7.853   2.591  0.1552  0.2787  0.3535
 2701SOL    HW112950   1.270   7.784   2.657 -0.1172  0.3371  0.4347
 2701SOL    HW212951   1.218   7.813   2.518 -0.6636  0.6017  0.6879
 2702SOL     OW12952   4.783   4.427   4.131 -0.1672 -0.3080  0.2312
 2702SOL    HW112953   4.745   4.486   4.196  0.8910  0.5383  0.1077
 2702SOL    HW212954   4.853   4.382   4.177  1.1121  0.8734 -0.4919
 2703SOL     OW12955   7.692   6.250   0.496 -0.5412 -0.9176  0.0305
 2703SOL    HW112956   7.641   6.263   0.576  0.3886  0.3564  0.4461
 2703SOL    HW212957   7.635   6.280   0.426 -0.0367  1.5520  0.5862
 2704SOL     OW12958   4.197   0.013   1.775 -0.3953 -0.1182 -0.3443
 2704SOL    HW112959   4.202   0.081   1.841 -0.7886  0.8160 -1.2378
 2704SOL    HW212960   4.288  -0.007   1.753 -0.2648 -0.3861  0.4047
 2705SOL     OW12961   3.352   5.332   2.823 -0.1050  0.2845  0.0755
 2705SOL    HW112962   3.304   5.251   2.845 -0.8957  0.6507 -0.2511
 2705SOL    HW212963   3.384   5.316   2.734  1.4971 -0.4600  0.7478
 2706SOL     OW12964   4.880   4.127   4.667  0.4132 -0.2272  0.3858
 2706SOL    HW112965   4.828   4.182   4.609 -1.1828 -1.2693  0.7658
 2706SOL    HW212966   4.847   4.149   4.755  2.8449  1.3984  0.9880
 2707SOL     OW12967   4.424   1.933   7.132 -0.0712  1.0545  0.0212
 2707SOL    HW112968   4.353   1.878   7.100 -1.8418  0.0721  4.7830
 2707SOL    HW212969   4.380   2.014   7.160  0.8162  0.9151  1.9492
 2708SOL     OW12970   3.599   4.563   5.689  0.2815  0.0928 -0.0004
 2708SOL    HW112971   3.646   4.481   5.675 -0.2117 -0.8536  3.1118
 2708SOL    HW212972   3.508   4.536   5.701 -0.5478  1.5322 -2.3373
 2709SOL     OW12973   4.103   3.258   3.729 -0.1378  0.0495 -0.4493
 2709SOL    HW112974   4.011   3.234   3.744  0.0914 -1.0333 -0.6718
 2709SOL    HW212975   4.145   3.244   3.814 -0.2164  0.7505 -0.2923
 2710SOL     OW12976   6.805   5.276   3.367 -0.2435 -0.3695  0.2397
 2710SOL    HW112977   6.788   5.370   3.374 -0.0013 -0.2973 -0.1004
 2710SOL    HW212978   6.892   5.271   3.329 -0.4595 -0.7328 -0.2108
 2711SOL     OW12979   0.740   4.976   4.081  0.0868  0.0983  0.1514
 2711SOL    HW112980   0.667   5.027   4.046 -0.6439 -0.7201  0.4321
 2711SOL    HW212981   0.702   4.890   4.099  1.0359 -0.2266  0.6691
 2712SOL     OW12982   5.832   3.320   6.764 -0.0450 -0.1100 -0.7033
 2712SOL    HW112983   5.790   3.343   6.681 -0.9100  1.3130  0.0860
 2712SOL    HW212984   5.922   3.352   6.755 -0.2494  0.4031 -0.9500
 2713SOL     OW12985   7.437   6.147   9.047 -1.1012 -0.3749  0.2665
 2713SOL    HW112986   7.467   6.180   8.962  1.3371 -1.6984  0.5163
 2713SOL    HW212987   7.356   6.196   9.065 -0.8993  0.9770 -2.1177
 2714SOL     OW12988   4.215   4.121   2.601  0.2005  0.3684 -0.2208
 2714SOL    HW112989   4.209   4.109   2.506  0.0138 -1.0480 -0.0457
 2714SOL    HW212990   4.234   4.034   2.636  0.2590  0.8640  1.0540
 2715SOL     OW12991   0.291   7.890   2.157 -0.1529 -0.0904 -0.1724
 2715SOL    HW112992   0.366   7.831   2.148  0.2984  0.3958  0.3623
 2715SOL    HW212993   0.271   7.917   2.067  0.2195 -0.3294 -0.3272
 2716SOL     OW12994   3.035   4.212   8.679  0.3084  0.6530  0.0189
 2716SOL    HW112995   2.944   4.191   8.655  0.6420  0.0936 -0.8365
 2716SOL    HW212996   3.043   4.306   8.663  0.2188  0.4816 -1.1443
 2717SOL     OW12997   3.969   4.471   6.932 -0.2727  0.1941  0.0790
 2717SOL    HW112998   3.875   4.472   6.947 -0.5038 -0.1019 -1.2418
 2717SOL    HW212999   3.979   4.447   6.840  1.0947  0.2368  0.1891
 2718SOL     OW13000   0.730   2.431   5.745 -0.1719 -0.1334  0.2857
 2718SOL    HW113001   0.748   2.475   5.662 -1.0830 -0.6474 -0.2009
 2718SOL    HW213002   0.696   2.500   5.802  0.0422  0.1305  0.0969
 2719SOL     OW13003   8.221   2.194   4.665 -0.1061 -0.7899 -0.1260
 2719SOL    HW113004   8.205   2.149   4.582  0.5260 -0.2990 -0.5179
 2719SOL    HW213005   8.137   2.189   4.710 -0.5982 -0.6566 -0.9957
 2720SOL     OW13006   5.952   8.734   1.260  0.2437  0.0524 -0.0167
 2720SOL    HW113007   5.988   8.819   1.235  0.3457 -0.2572 -0.9392
 2720SOL    HW213008   5.941   8.741   1.355 -0.6956  1.4598 -0.1877
 2721SOL     OW13009   5.991   6.636   7.241  0.0279 -0.7643 -0.0640
 2721SOL    HW113010   6.059   6.576   7.273  0.9165 -1.3919 -2.8336
 2721SOL    HW213011   5.925   6.578   7.201  0.4479  0.0045 -1.9665
 2722SOL     OW13012   8.697   2.525   0.497 -0.0539 -0.7132 -0.2473
 2722SOL    HW113013   8.725   2.544   0.587 -0.7716 -1.9196  0.2479
 2722SOL    HW213014   8.655   2.606   0.468 -0.7658 -0.6508  0.9002
 2723SOL     OW13015   2.373   6.842   7.698  0.1640  0.1330  0.2603
 2723SOL    HW113016   2.467   6.833   7.679  0.3607  0.8317  0.8465
 2723SOL    HW213017   2.337   6.888   7.622  0.4176  0.4175  0.3103
 2724SOL     OW13018   7.524   8.420   5.653 -0.1800 -0.3524 -0.7390
 2724SOL    HW113019   7.517   8.510   5.683 -0.8502 -0.3912 -0.7544
 2724SOL    HW213020   7.607   8.388   5.689 -1.2915 -0.6312  1.7521
 2725SOL     OW13021   0.965   7.034   2.412  0.7045 -0.3200 -0.8164
 2725SOL    HW113022   1.021   7.076   2.347 -0.9378  0.6090 -1.7076
 2725SOL    HW213023   0.877   7.043   2.377 -0.2579  0.1533  1.5129
 2726SOL     OW13024   0.296   0.541   6.477 -0.8567 -0.3040  0.3489
 2726SOL    HW113025   0.284   0.526   6.384 -1.1630 -1.5059  0.5631
 2726SOL    HW213026   0.261   0.629   6.493  0.5152  0.5107 -0.9043
 2727SOL     OW13027   8.389   5.356   6.911  0.4159 -0.2142  0.6552
 2727SOL    HW113028   8.418   5.447   6.920 -1.1755  0.3753  0.1857
 2727SOL    HW213029   8.375   5.344   6.817 -1.0829 -0.3541  0.8697
 2728SOL     OW13030   7.383   5.007   4.407  0.0428 -0.5964 -0.3593
 2728SOL    HW113031   7.447   5.027   4.476 -0.6575 -1.4342  0.5649
 2728SOL    HW213032   7.437   4.980   4.332  0.8096 -0.0424 -0.0256
 2729SOL     OW13033   8.298   5.286   3.667  0.0647 -0.7601 -0.1834
 2729SOL    HW113034   8.213   5.329   3.675  0.3735  0.2366 -1.8556
 2729SOL    HW213035   8.306   5.264   3.575  1.0320 -2.1419  0.1989
 2730SOL     OW13036   1.594   0.679   1.559 -0.5202 -0.2235  0.1262
 2730SOL    HW113037   1.621   0.592   1.589 -0.1936  0.6118  2.4478
 2730SOL    HW213038   1.635   0.740   1.621 -1.8933  1.4969 -0.5664
 2731SOL     OW13039   7.871   0.341   3.261  0.2239 -0.0392  0.3481
 2731SOL    HW113040   7.881   0.247   3.271  0.7981  0.2565  3.2475
 2731SOL    HW213041   7.959   0.372   3.238  0.6355 -0.0011  1.8555
 2732SOL     OW13042   6.761   5.207   6.545  0.3154  0.2437  0.2122
 2732SOL    HW113043   6.676   5.162   6.547  1.0217 -1.1677 -0.4327
 2732SOL    HW213044   6.788   5.203   6.454  1.6361 -0.3930  0.6137
 2733SOL     OW13045   4.738   0.808   9.527 -0.0807 -0.0848  0.0130
 2733SOL    HW113046   4.823   0.853   9.533  1.0182 -2.1090  0.5150
 2733SOL    HW213047   4.719   0.807   9.433 -0.0566  1.2017 -0.0338
 2734SOL     OW13048   1.324   4.873   4.482  0.0672 -0.3862 -0.0640
 2734SOL    HW113049   1.259   4.939   4.503  1.1116  0.2326  1.4583
 2734SOL    HW213050   1.398   4.922   4.446 -0.7949 -1.2233 -3.3065
 2735SOL     OW13051   1.560   6.188   7.956 -0.4652 -0.6375  0.3859
 2735SOL    HW113052   1.482   6.153   7.914 -0.8400 -1.2452  1.5410
 2735SOL    HW213053   1.567   6.139   8.038  2.1643 -1.9657 -0.4841
 2736SOL     OW13054   4.521   7.199   2.104 -0.4199 -0.3141 -0.4529
 2736SOL    HW113055   4.451   7.136   2.117  0.7685 -1.4817  0.6267
 2736SOL    HW213056   4.598   7.145   2.084  1.0325  0.5966  2.1523
 2737SOL     OW13057   3.092   0.216   0.313 -0.3747  0.0418 -0.3508
 2737SOL    HW113058   3.187   0.219   0.320 -0.2416  2.3313 -1.9852
 2737SOL    HW213059   3.075   0.147   0.249  0.1065 -0.8956  0.5062
 2738SOL     OW13060   5.001   7.573   9.145  0.5641  0.2667  0.2672
 2738SOL    HW113061   4.915   7.534   9.132  1.2453 -0.6910 -1.6504
 2738SOL    HW213062   5.016   7.627   9.068  0.5317  2.8100  1.9053
 2739SOL     OW13063   5.479   6.906   1.429 -0.2076  0.3019  0.3137
 2739SOL    HW113064   5.550   6.842   1.439  0.3306  0.8623  0.1918
 2739SOL    HW213065   5.419   6.866   1.366  0.9848  0.6271 -1.0775
 2740SOL     OW13066   8.656   8.793   1.769  0.5902  0.5062 -0.2362
 2740SOL    HW113067   8.672   8.819   1.860 -0.4574 -0.5407  0.2661
 2740SOL    HW213068   8.712   8.716   1.756 -0.7730 -0.6104  0.2111
 2741SOL     OW13069   1.165   5.712   9.083 -0.1953  0.8669  0.7543
 2741SOL    HW113070   1.188   5.666   9.002  0.2025  0.0253  1.3334
 2741SOL    HW213071   1.071   5.698   9.093 -0.2872  1.1543  0.3355
 2742SOL     OW13072   0.950   2.213   3.357 -0.6277  0.1481 -0.0841
 2742SOL    HW113073   0.903   2.141   3.399 -0.3303 -1.3795 -2.2035
 2742SOL    HW213074   0.999   2.255   3.427  0.4363 -2.7098  0.9939
 2743SOL     OW13075   8.018   3.983   4.706  0.2744  0.6004 -0.0705
 2743SOL    HW113076   7.950   3.918   4.685 -0.0311  1.4973 -2.1250
 2743SOL    HW213077   7.969   4.057   4.742  0.5631 -0.0431  1.7216
 2744SOL     OW13078   9.126   6.694   3.649 -0.8409 -0.2291 -0.3665
 2744SOL    HW113079   9.212   6.653   3.648 -1.5579 -1.8333 -0.1192
 2744SOL    HW213080   9.132   6.763   3.584  1.1378  0.8357  0.8502
 2745SOL     OW13081   0.948   8.829   3.625  0.1971  0.0236 -0.6527
 2745SOL    HW113082   1.009   8.779   3.678  1.0344  0.5588 -1.0924
 2745SOL    HW213083   0.867   8.832   3.677  0.5757 -0.6031 -0.0228
 2746SOL     OW13084   8.249   2.732   3.416  0.6176 -0.3328  0.4524
 2746SOL    HW113085   8.243   2.653   3.471  0.8631 -1.5633 -1.2311
 2746SOL    HW213086   8.176   2.724   3.355  1.9117 -0.3833 -1.1289
 2747SOL     OW13087   9.148   1.743   4.101  0.3620  0.0312  0.4007
 2747SOL    HW113088   9.129   1.837   4.105  1.6481  0.3396 -0.2200
 2747SOL    HW213089   9.182   1.729   4.012 -1.9157 -1.4655 -0.3356
 2748SOL     OW13090   8.417   4.057   8.961 -0.2343 -0.0922  0.3385
 2748SOL    HW113091   8.322   4.050   8.948  0.1182 -0.1855 -3.1090
 2748SOL    HW213092   8.450   3.968   8.950  0.3051 -0.0726  1.5734
 2749SOL     OW13093   0.679   3.913   9.293  0.0302 -0.1643  0.4750
 2749SOL    HW113094   0.747   3.861   9.335  0.7100  0.3503  0.0448
 2749SOL    HW213095   0.597   3.879   9.328  0.3443 -2.4365 -0.7590
 2750SOL     OW13096   5.833   9.008   3.157 -0.5198  0.0243 -0.3672
 2750SOL    HW113097   5.924   8.989   3.179 -0.3531  2.9152  2.0451
 2750SOL    HW213098   5.838   9.085   3.100 -1.4687 -0.1468 -0.7003
 2751SOL     OW13099   9.537   6.170   6.930 -0.3838 -0.2891  0.2315
 2751SOL    HW113100   9.525   6.242   6.867 -0.7356  1.1058  1.8266
 2751SOL    HW213101   9.453   6.124   6.929 -0.0510 -0.9115 -1.0345
 2752SOL     OW13102   1.239   7.546   2.681  0.0349 -0.1700 -0.1397
 2752SOL    HW113103   1.280   7.464   2.653 -1.8767 -2.0290  2.0640
 2752SOL    HW213104   1.147   7.536   2.657 -0.5060  0.6386  1.4702
 2753SOL     OW13105   4.447   4.516   3.801  0.0143 -0.2613 -0.2177
 2753SOL    HW113106   4.521   4.457   3.806  1.5930  1.7174  1.5681
 2753SOL    HW213107   4.476   4.587   3.744 -1.2858 -0.3968 -1.1124
 2754SOL     OW13108   8.888   5.980   3.511 -0.3765  0.4061 -0.4579
 2754SOL    HW113109   8.822   5.920   3.476 -0.4987  0.7887 -0.9008
 2754SOL    HW213110   8.914   6.033   3.435  1.4624 -0.6596 -0.6313
 2755SOL     OW13111   8.703   7.937   7.644  0.0116  0.1880  0.1195
 2755SOL    HW113112   8.701   7.904   7.733  1.2208 -0.2344  0.0080
 2755SOL    HW213113   8.626   7.994   7.637 -0.7915 -0.7558  1.0334
 2756SOL     OW13114   5.573   7.665   2.189  0.1987 -0.0811  0.1392
 2756SOL    HW113115   5.554   7.698   2.276 -1.6398  0.4638 -0.4159
 2756SOL    HW213116   5.620   7.736   2.145 -0.9915  0.5966 -0.0590
 2757SOL     OW13117   3.852   1.148   6.694 -0.2228 -0.4827  0.1211
 2757SOL    HW113118   3.877   1.107   6.612  0.7881  1.5677 -0.6501
 2757SOL    HW213119   3.830   1.075   6.752 -1.5366 -1.9575 -2.1150
 2758SOL     OW13120   5.173   6.837   7.680  0.4304 -0.1397  0.0772
 2758SOL    HW113121   5.248   6.785   7.709  0.2096 -0.9022 -0.6780
 2758SOL    HW213122   5.162   6.815   7.588  0.1744  1.0823 -0.2065
 2759SOL     OW13123   4.557   3.119   7.106  0.2096  0.1831  0.6076
 2759SOL    HW113124   4.498   3.127   7.181 -0.6838  0.8499 -0.1368
 2759SOL    HW213125   4.599   3.034   7.117  0.6043  0.5580  2.2162
 2760SOL     OW13126   0.712   3.947   1.607  0.1151 -0.3047 -0.2366
 2760SOL    HW113127   0.723   4.021   1.547 -0.4685 -0.3825 -0.4509
 2760SOL    HW213128   0.647   3.977   1.671  2.3528  0.6150  1.7613
 2761SOL     OW13129   3.358   7.829   5.653 -0.2724  0.9580 -0.0752
 2761SOL    HW113130   3.291   7.897   5.660 -1.1115  0.2065 -0.5462
 2761SOL    HW213131   3.348   7.777   5.733  0.3032  1.3176  0.2385
 2762SOL     OW13132   2.701   8.332   2.219 -0.3796  0.5380 -0.0174
 2762SOL    HW113133   2.654   8.342   2.301 -1.8203 -0.5609 -0.6660
 2762SOL    HW213134   2.634   8.343   2.151  0.2948 -0.9539 -0.9730
 2763SOL     OW13135   2.369   5.678   8.118 -0.6053 -0.2842 -0.2732
 2763SOL    HW113136   2.275   5.695   8.119 -0.6132 -0.2828 -0.6607
 2763SOL    HW213137   2.385   5.626   8.196 -0.8173  0.2911  0.1646
 2764SOL     OW13138   2.917   1.927   1.235  0.1397 -0.1360 -0.0776
 2764SOL    HW113139   2.840   1.892   1.191  0.0884 -0.9612  0.6407
 2764SOL    HW213140   2.883   1.965   1.316  0.6079 -1.5974  0.8390
 2765SOL     OW13141   1.817   5.766   4.228 -0.6268 -0.1766  0.0225
 2765SOL    HW113142   1.775   5.817   4.159  0.4973 -0.5265 -0.9423
 2765SOL    HW213143   1.853   5.690   4.184  1.6428  0.4605  0.6545
 2766SOL     OW13144   7.013   5.549   5.769  0.6955  0.1602  0.2354
 2766SOL    HW113145   6.995   5.487   5.839  1.1208  0.4932  0.6533
 2766SOL    HW213146   7.032   5.495   5.693 -0.9212 -0.1999  0.0581
 2767SOL     OW13147   9.650   1.106   4.312  0.1016  0.4367  0.0469
 2767SOL    HW113148   9.655   1.184   4.368  2.1403  0.3390  0.0703
 2767SOL    HW213149   9.741   1.091   4.284 -0.4649 -1.1506 -1.0418
 2768SOL     OW13150   2.312   7.348   5.702  0.1384  0.2239  0.3198
 2768SOL    HW113151   2.292   7.362   5.610 -0.2492 -0.7497  0.2440
 2768SOL    HW213152   2.270   7.421   5.747  0.0192  0.5067 -0.2395
 2769SOL     OW13153   2.462   9.741   1.933  0.7546 -0.5275  0.2171
 2769SOL    HW113154   2.392   9.806   1.926  0.4047 -0.8862  0.3341
 2769SOL    HW213155   2.445   9.697   2.017 -0.3622 -2.3083 -0.8801
 2770SOL     OW13156   4.458   0.124   7.649  0.2594  0.5116 -0.4335
 2770SOL    HW113157   4.470   0.056   7.715 -0.5411  1.3355  0.5980
 2770SOL    HW213158   4.363   0.135   7.644  0.3837  1.7454 -0.3758
 2771SOL     OW13159   3.781   6.928   4.210  0.3305  0.6706  0.3886
 2771SOL    HW113160   3.846   6.958   4.146  2.9730  0.5153  2.7935
 2771SOL    HW213161   3.754   6.842   4.177 -0.6497  1.8028 -1.9678
 2772SOL     OW13162   4.040   0.443   7.489  0.1475 -0.2637  0.3008
 2772SOL    HW113163   4.028   0.349   7.474 -0.7930 -0.2782  1.0405
 2772SOL    HW213164   3.966   0.468   7.544 -0.7725  1.3235 -1.5298
 2773SOL     OW13165   8.083   7.461   4.585 -0.0056  0.0333 -0.2591
 2773SOL    HW113166   8.002   7.409   4.588 -0.7609  1.2133  1.1738
 2773SOL    HW213167   8.132   7.424   4.512 -1.0373 -1.8867 -0.0654
 2774SOL     OW13168   2.834   8.869   3.502  0.5968  0.5167 -0.0594
 2774SOL    HW113169   2.792   8.934   3.559  0.9068 -1.2496  2.3382
 2774SOL    HW213170   2.761   8.823   3.461  0.3289  0.9114 -0.0333
 2775SOL     OW13171   6.372   2.920   2.649 -0.2261  0.0929  0.0344
 2775SOL    HW113172   6.368   2.825   2.632 -2.8216  0.1480 -0.0090
 2775SOL    HW213173   6.394   2.958   2.565 -0.0536 -0.4095 -0.1539
 2776SOL     OW13174   1.721   7.659   4.503 -0.0395 -0.7067  0.0546
 2776SOL    HW113175   1.772   7.608   4.440  0.4897  1.8185 -1.6814
 2776SOL    HW213176   1.786   7.711   4.550 -0.8226  2.0382 -1.6924
 2777SOL     OW13177   2.466   7.714   6.901  0.1492 -0.0032 -0.3033
 2777SOL    HW113178   2.549   7.691   6.943  0.1449  2.3766  1.1612
 2777SOL    HW213179   2.420   7.768   6.965 -1.7979  0.1877 -1.7570
 2778SOL     OW13180   3.762   8.573   7.353  0.7195  0.5021 -0.2286
 2778SOL    HW113181   3.772   8.489   7.398  1.5268  1.2511  1.0558
 2778SOL    HW213182   3.714   8.628   7.415  1.6354  1.4771 -0.3551
 2779SOL     OW13183   0.918   3.205   0.134  0.1160 -0.0661 -0.1758
 2779SOL    HW113184   0.925   3.263   0.210  1.2905 -0.0753 -0.2636
 2779SOL    HW213185   0.847   3.145   0.156 -0.5436  0.8618  0.2762
 2780SOL     OW13186   0.767   4.404   5.352  0.1856  0.4229 -0.3011
 2780SOL    HW113187   0.858   4.421   5.378  0.1206 -0.3634  0.5061
 2780SOL    HW213188   0.730   4.359   5.428  0.0981 -2.4465 -1.9303
 2781SOL     OW13189   2.869   3.641   3.937 -0.4031  0.5385 -0.0549
 2781SOL    HW113190   2.965   3.640   3.937 -0.3769 -1.3558  0.4173
 2781SOL    HW213191   2.846   3.720   3.889  1.3848  1.6636  0.8316
 2782SOL     OW13192   9.530   0.480   4.655 -0.2397 -0.7558 -0.0361
 2782SOL    HW113193   9.454   0.505   4.603  0.6182 -1.4029 -1.6675
 2782SOL    HW213194   9.586   0.558   4.654  1.2020 -1.6700 -2.8490
 2783SOL     OW13195   0.510   5.022   5.561  0.7422 -0.0802 -0.1018
 2783SOL    HW113196   0.482   4.935   5.532 -0.4925  0.2042  0.1912
 2783SOL    HW213197   0.434   5.058   5.605  1.4510  0.9088  0.3451
 2784SOL     OW13198   0.339   6.708   7.255 -0.4524  0.4483 -0.1595
 2784SOL    HW113199   0.270   6.754   7.207  0.0366  0.2374 -1.0823
 2784SOL    HW213200   0.367   6.771   7.322  0.1440  1.4783 -1.3405
 2785SOL     OW13201   6.230   3.264   2.136  1.2384  0.1236  0.5170
 2785SOL    HW113202   6.154   3.236   2.084  0.2110  1.5720  1.1624
 2785SOL    HW213203   6.236   3.358   2.121  2.1128  0.2405  1.4894
 2786SOL     OW13204   7.195   1.808   1.166 -0.2931  0.1695 -0.0406
 2786SOL    HW113205   7.272   1.754   1.152 -0.6221 -0.6080  1.0338
 2786SOL    HW213206   7.121   1.747   1.162 -0.8441  0.8593 -0.8054
 2787SOL     OW13207   8.581   9.707   9.153  0.0924 -0.3189  0.5115
 2787SOL    HW113208   8.523   9.779   9.173  0.0392 -0.2443  0.1121
 2787SOL    HW213209   8.666   9.733   9.187  0.0363 -0.1416  0.5122
 2788SOL     OW13210   0.583   4.302   8.003 -0.7765 -0.6292 -0.0112
 2788SOL    HW113211   0.515   4.361   8.035 -2.2662 -1.1725 -1.9165
 2788SOL    HW213212   0.642   4.358   7.952  0.5781 -0.0693  2.0597
 2789SOL     OW13213   2.935   5.552   2.088  0.3750  0.3793  0.9638
 2789SOL    HW113214   2.928   5.647   2.072 -0.8935 -0.1345 -2.3061
 2789SOL    HW213215   2.850   5.517   2.063  1.5941 -1.8715 -0.4316
 2790SOL     OW13216   4.139   9.448   0.519  0.1316 -0.0442  0.1963
 2790SOL    HW113217   4.204   9.430   0.451  1.1235  0.6891  0.9323
 2790SOL    HW213218   4.141   9.370   0.575 -0.7065 -0.6618 -0.6038
 2791SOL     OW13219   0.813   0.953   9.517  0.2691 -0.3317 -0.1283
 2791SOL    HW113220   0.849   0.881   9.466 -1.7831 -1.8725  0.4576
 2791SOL    HW213221   0.841   0.935   9.607 -0.5432 -0.6357  0.0759
 2792SOL     OW13222   8.054   4.219   0.715  0.4716  0.1098  0.1222
 2792SOL    HW113223   8.049   4.285   0.784  1.6328  0.1922  0.1574
 2792SOL    HW213224   7.967   4.180   0.712  0.5847 -0.4194  2.1647
 2793SOL     OW13225   7.539   0.804   4.976 -0.6819 -0.3742 -0.0129
 2793SOL    HW113226   7.530   0.834   4.886  1.2360 -0.3320 -0.2369
 2793SOL    HW213227   7.450   0.785   5.004 -1.2576 -1.3201 -2.2395
 2794SOL     OW13228   4.082   1.010   5.552  0.0234  0.3496  0.6821
 2794SOL    HW113229   4.069   1.092   5.599  1.1323  1.5213 -0.9469
 2794SOL    HW213230   4.176   1.006   5.535 -0.1224 -0.8406 -0.0087
 2795SOL     OW13231   8.912   3.741   5.564  0.1451  0.6749  0.1776
 2795SOL    HW113232   8.851   3.677   5.526  0.7065 -0.0902  0.5496
 2795SOL    HW213233   8.897   3.735   5.658  0.2465  1.0432  0.2158
 2796SOL     OW13234   6.869   2.711   1.309 -0.2511  0.4643 -0.0754
 2796SOL    HW113235   6.788   2.662   1.296 -0.4848  1.0433 -0.9044
 2796SOL    HW213236   6.935   2.662   1.258 -0.0966  0.0606  0.5013
 2797SOL     OW13237   3.941   5.524   4.581 -0.4506 -0.2323 -0.0729
 2797SOL    HW113238   3.888   5.582   4.635 -3.4740 -3.2029  0.5455
 2797SOL    HW213239   4.029   5.531   4.617 -1.1203  2.2627  1.3172
 2798SOL     OW13240   7.691   6.858   7.482 -0.4038 -0.0273 -0.0520
 2798SOL    HW113241   7.636   6.909   7.542 -1.1177  0.6955 -1.2800
 2798SOL    HW213242   7.641   6.777   7.468 -0.2997 -0.1396  0.2248
 2799SOL     OW13243   3.672   9.338   1.201  0.0416 -0.0002  0.5881
 2799SOL    HW113244   3.586   9.312   1.169 -0.5979  2.5595 -0.0137
 2799SOL    HW213245   3.710   9.389   1.130  1.1934  0.6303  1.6134
 2800SOL     OW13246   6.202   2.297   7.319  0.5092 -0.3222  0.1005
 2800SOL    HW113247   6.212   2.273   7.226  1.1038 -0.4629  0.1938
 2800SOL    HW213248   6.291   2.318   7.347  0.3553 -0.4561  0.6904
 2801SOL     OW13249   7.931   4.978   2.427 -0.3771 -0.1071 -0.0876
 2801SOL    HW113250   8.005   5.031   2.456  0.0963 -1.8805  2.2475
 2801SOL    HW213251   7.883   5.034   2.365  1.1603  2.2363  0.7441
 2802SOL     OW13252   7.021   2.927   6.325 -0.0231 -0.7316  0.3233
 2802SOL    HW113253   6.949   2.874   6.358 -0.3708  0.7416  2.0853
 2802SOL    HW213254   7.093   2.911   6.386  0.0465  0.3265  0.5478
 2803SOL     OW13255   4.562   5.077   6.301 -0.6781  0.5875  0.4584
 2803SOL    HW113256   4.655   5.078   6.322 -0.4488 -1.4291 -0.1895
 2803SOL    HW213257   4.529   4.998   6.343 -1.3895 -0.4411 -1.8278
 2804SOL     OW13258   7.785   1.481   7.070  0.1662  0.2023  0.0759
 2804SOL    HW113259   7.726   1.519   7.135  0.9823  1.8522 -0.0862
 2804SOL    HW213260   7.856   1.545   7.063  1.4586 -1.2397 -0.4682
 2805SOL     OW13261   2.784   9.215   7.667  0.0598  0.4079 -0.2984
 2805SOL    HW113262   2.861   9.199   7.612  0.5795  1.6696  0.0202
 2805SOL    HW213263   2.743   9.130   7.676  0.3827  0.0208 -2.0145
 2806SOL     OW13264   7.018   0.470   5.269  0.1406 -0.1321 -0.0626
 2806SOL    HW113265   6.949   0.405   5.262 -0.5815  0.6303 -0.1828
 2806SOL    HW213266   7.095   0.421   5.298 -0.3777 -1.0341 -0.1923
 2807SOL     OW13267   0.713   1.372   1.018 -0.5016 -0.7914  0.2497
 2807SOL    HW113268   0.659   1.394   1.095 -1.4795  0.2668 -0.7115
 2807SOL    HW213269   0.784   1.436   1.019 -0.6227 -0.6559  0.1630
 2808SOL     OW13270   4.910   6.685   6.156 -0.2685 -0.1437 -0.6047
 2808SOL    HW113271   4.962   6.644   6.225  0.6565  1.0599 -0.5543
 2808SOL    HW213272   4.971   6.693   6.082 -1.1253 -1.0321 -1.4220
 2809SOL     OW13273   7.316   5.756   0.666 -0.5061  0.1418 -0.1551
 2809SOL    HW113274   7.291   5.674   0.708  0.1372 -0.4310 -0.8592
 2809SOL    HW213275   7.409   5.765   0.683 -0.3981  0.2883 -0.7973
 2810SOL     OW13276   8.239   2.308   9.031 -0.0192  0.0298 -0.2168
 2810SOL    HW113277   8.220   2.356   9.111 -0.6066 -0.5913  0.0293
 2810SOL    HW213278   8.301   2.240   9.058 -1.1752 -0.9810  0.0052
 2811SOL     OW13279   4.141   1.942   7.050 -0.5146 -0.0728  0.0413
 2811SOL    HW113280   4.122   1.996   6.974 -0.6210 -1.5515 -1.0237
 2811SOL    HW213281   4.054   1.919   7.085 -0.5707 -1.2657 -0.7960
 2812SOL     OW13282   5.917   6.185   6.615 -0.4575  0.0875 -0.1383
 2812SOL    HW113283   5.856   6.221   6.680  0.2311  1.7784 -0.3861
 2812SOL    HW213284   5.913   6.247   6.542  0.3563 -0.6539 -0.8265
 2813SOL     OW13285   4.140   1.368   5.443 -0.4366  0.3009 -0.8600
 2813SOL    HW113286   4.143   1.308   5.368 -2.0407 -1.6341  0.5019
 2813SOL    HW213287   4.207   1.336   5.502 -1.0472  0.0653 -0.2842
 2814SOL     OW13288   1.764   3.062   2.585  0.7699 -0.3381 -0.1045
 2814SOL    HW113289   1.709   2.999   2.632  0.3774 -0.3152 -0.5296
 2814SOL    HW213290   1.850   3.054   2.626  0.6294 -0.8884  0.0881
 2815SOL     OW13291   9.087   4.322   5.328 -0.2406 -0.4093 -0.5763
 2815SOL    HW113292   9.022   4.367   5.275  1.4866  1.5255 -1.2006
 2815SOL    HW213293   9.171   4.355   5.296  1.0741 -2.8351  0.1472
 2816SOL     OW13294   4.108   3.357   1.746  0.1371  0.4185 -0.0439
 2816SOL    HW113295   4.026   3.386   1.706  0.4582  1.7675  0.2246
 2816SOL    HW213296   4.101   3.384   1.838  0.2934 -0.7547  0.3393
 2817SOL     OW13297   4.925   8.187   5.022 -0.4054 -0.0366  0.2310
 2817SOL    HW113298   5.006   8.203   5.070  0.9795 -1.5265 -1.4821
 2817SOL    HW213299   4.922   8.255   4.955  0.6598 -1.2589 -1.1276
 2818SOL     OW13300   8.082   3.636   2.122  0.6323 -0.0032 -0.0009
 2818SOL    HW113301   8.085   3.714   2.067  0.3515 -0.0131 -0.0350
 2818SOL    HW213302   8.033   3.572   2.070 -0.0887  0.1538  0.4567
 2819SOL     OW13303   0.536   5.604   3.096 -0.5416 -0.1454 -0.5717
 2819SOL    HW113304   0.472   5.652   3.147 -2.0314 -0.9624 -1.5945
 2819SOL    HW213305   0.496   5.518   3.081  1.7844 -1.5644  0.7309
 2820SOL     OW13306   2.172   8.660   2.055 -0.3846 -0.0521 -0.0165
 2820SOL    HW113307   2.185   8.724   1.986 -2.6550  0.2646 -0.2254
 2820SOL    HW213308   2.260   8.626   2.073  0.6555  1.9156 -1.0271
 2821SOL     OW13309   6.190   0.041   9.702 -0.5906 -0.0361 -0.4176
 2821SOL    HW113310   6.147  -0.002   9.629 -1.2630 -0.4100  0.1887
 2821SOL    HW213311   6.130   0.110   9.729 -0.8325 -0.5685  0.4416
 2822SOL     OW13312   4.542   8.488   7.521  0.2879 -0.5006  0.0566
 2822SOL    HW113313   4.543   8.532   7.436  0.3365 -0.6666 -0.0299
 2822SOL    HW213314   4.556   8.558   7.585  1.7571 -0.5627 -0.1640
 2823SOL     OW13315   5.071   8.883   5.524 -0.0299  0.2790 -0.4306
 2823SOL    HW113316   5.098   8.808   5.578  2.6444  1.1257 -0.4559
 2823SOL    HW213317   5.031   8.843   5.446  0.5789 -1.1062 -0.0661
 2824SOL     OW13318   6.978   6.578   0.561  0.0477 -0.2144  0.1887
 2824SOL    HW113319   6.899   6.549   0.607 -0.1067  0.0563  0.0992
 2824SOL    HW213320   6.951   6.658   0.515  0.1270 -0.6243 -0.5862
 2825SOL     OW13321   8.802   4.643   1.706  0.0540  0.4031 -0.6277
 2825SOL    HW113322   8.854   4.564   1.721  1.2336  0.7002 -2.6769
 2825SOL    HW213323   8.717   4.611   1.677  0.0857 -0.1066 -0.1694
 2826SOL     OW13324   4.928   1.522   5.894 -0.0289 -0.1972  0.2071
 2826SOL    HW113325   4.915   1.430   5.869  0.3244 -0.1239 -0.2669
 2826SOL    HW213326   4.867   1.570   5.838  1.6537  0.0803 -1.4717
 2827SOL     OW13327   1.364   6.121   0.457  0.5110 -0.1152 -0.5127
 2827SOL    HW113328   1.411   6.177   0.396 -1.6986  1.2332 -1.1010
 2827SOL    HW213329   1.335   6.181   0.527 -0.8330 -0.7245 -0.5122
 2828SOL     OW13330   0.156   9.308   1.233  0.1260  0.7173 -0.2045
 2828SOL    HW113331   0.195   9.384   1.275  0.1112  0.8220 -0.3802
 2828SOL    HW213332   0.071   9.338   1.202  0.4015  0.8215 -0.8790
 2829SOL     OW13333   1.641   0.247   4.344 -0.5006  0.4742  0.8247
 2829SOL    HW113334   1.732   0.276   4.356 -0.5759  0.3447  1.8433
 2829SOL    HW213335   1.649   0.154   4.325 -0.4251  0.3944  1.2272
 2830SOL     OW13336   6.485   7.400   2.901 -0.4820 -0.2284 -0.0380
 2830SOL    HW113337   6.567   7.408   2.853 -0.9914 -0.8786 -1.0317
 2830SOL    HW213338   6.511   7.368   2.988  0.2837 -0.6788 -0.4271
 2831SOL     OW13339   2.021   2.698   3.694 -0.9421 -0.3573  0.2843
 2831SOL    HW113340   2.061   2.611   3.694  1.3275  0.4576 -3.3926
 2831SOL    HW213341   1.940   2.687   3.643  1.1424  0.1146 -3.4718
 2832SOL     OW13342   9.361   8.039   4.557  0.0338  0.0689  0.0178
 2832SOL    HW113343   9.357   8.101   4.484 -0.0103  0.7853  0.6136
 2832SOL    HW213344   9.300   7.970   4.534  1.4946 -0.7728 -1.5594
 2833SOL     OW13345   1.837   0.808   3.561 -0.1574  0.7098 -0.3933
 2833SOL    HW113346   1.840   0.903   3.571 -0.4007  0.7582 -0.7708
 2833SOL    HW213347   1.889   0.790   3.483 -0.1963  0.5400 -0.3804
 2834SOL     OW13348   4.782   3.619   6.700 -0.2470 -0.4425 -0.4136
 2834SOL    HW113349   4.716   3.595   6.765 -0.3837 -0.5543 -0.5919
 2834SOL    HW213350   4.753   3.575   6.620 -1.8733  2.2434 -1.4290
 2835SOL     OW13351   3.026   0.990   7.049 -0.2705  0.2059  0.0545
 2835SOL    HW113352   3.045   1.082   7.032  0.4018 -0.0327 -0.5630
 2835SOL    HW213353   3.081   0.967   7.124  1.2138 -0.2188 -1.1012
 2836SOL     OW13354   2.384   3.660   3.121  0.0287  0.1407  0.2724
 2836SOL    HW113355   2.372   3.669   3.216 -1.8407 -0.5173  0.1480
 2836SOL    HW213356   2.379   3.749   3.088  2.5566  0.6055  0.9062
 2837SOL     OW13357   9.702   5.867   1.411 -0.3365 -0.0520 -0.2831
 2837SOL    HW113358   9.735   5.937   1.354 -0.7515 -0.2536 -0.7759
 2837SOL    HW213359   9.744   5.788   1.378 -1.3217 -0.3176 -0.9412
 2838SOL     OW13360   0.182   0.177   1.779  0.3486 -0.4843  0.4201
 2838SOL    HW113361   0.213   0.235   1.710  0.4806 -1.7394 -0.6156
 2838SOL    HW213362   0.255   0.174   1.842 -0.4402  2.0409  1.5783
 2839SOL     OW13363   1.307   3.154   7.421  0.0445  0.0576 -0.6687
 2839SOL    HW113364   1.318   3.148   7.516  2.7658 -0.5923 -0.9589
 2839SOL    HW213365   1.270   3.068   7.397  2.7824 -1.2553 -0.5280
 2840SOL     OW13366   6.861   8.076   8.021 -0.1792 -0.4990  0.0900
 2840SOL    HW113367   6.824   8.164   8.015  1.6911  0.4678  1.6032
 2840SOL    HW213368   6.806   8.031   8.085 -0.9955 -0.3567 -0.5060
 2841SOL     OW13369   1.883   5.615   0.364  0.7279 -0.5482  0.1610
 2841SOL    HW113370   1.910   5.645   0.277  0.7582  1.3133  0.7748
 2841SOL    HW213371   1.843   5.530   0.348 -0.5250  0.3546 -1.8708
 2842SOL     OW13372   2.846   6.970   0.599  0.5923  0.2796  0.0779
 2842SOL    HW113373   2.790   6.895   0.618 -0.3296  1.1992  1.1372
 2842SOL    HW213374   2.839   6.982   0.504  1.0485 -1.1563 -0.1747
 2843SOL     OW13375   0.419   5.505   9.565  0.1427  0.0034  0.7356
 2843SOL    HW113376   0.492   5.496   9.504  0.0477 -0.7853  0.7377
 2843SOL    HW213377   0.446   5.576   9.624  0.6095  0.1743  0.3236
 2844SOL     OW13378   2.916   1.834   6.027  0.6237 -0.4331 -0.4216
 2844SOL    HW113379   2.847   1.829   6.093  2.8464  0.9014  2.2699
 2844SOL    HW213380   2.897   1.764   5.965 -2.3792 -0.8910  0.8693
 2845SOL     OW13381   7.464   4.869   7.963  0.3601 -0.1347 -0.2577
 2845SOL    HW113382   7.473   4.964   7.960 -0.4407  0.0995  2.1831
 2845SOL    HW213383   7.375   4.855   7.996  0.5139 -1.7331 -0.4472
 2846SOL     OW13384   6.138   8.636   4.726 -0.2240 -0.1837 -0.5755
 2846SOL    HW113385   6.220   8.587   4.721  0.8810  1.6800 -2.0486
 2846SOL    HW213386   6.095   8.619   4.643 -1.2129 -0.9104  0.0705
 2847SOL     OW13387   1.118   1.072   4.042  0.0573 -0.3213 -0.1598
 2847SOL    HW113388   1.067   1.129   3.985 -0.5879 -0.5695  0.1636
 2847SOL    HW213389   1.056   1.041   4.107  1.2140  1.8947  2.1958
 2848SOL     OW13390   7.409   3.710   2.422 -0.8134 -0.6339  0.0097
 2848SOL    HW113391   7.318   3.680   2.412 -0.8229 -0.4762 -0.3896
 2848SOL    HW213392   7.421   3.774   2.352 -1.1267  1.1535  1.5075
 2849SOL     OW13393   7.384   1.945   1.992 -0.1270 -0.0801  0.5134
 2849SOL    HW113394   7.424   1.887   2.057  0.7885  0.7244  0.6865
 2849SOL    HW213395   7.440   2.023   1.992 -0.1380 -0.0348 -1.1918
 2850SOL     OW13396   8.695   0.061   6.028 -0.1219  0.5083  0.6361
 2850SOL    HW113397   8.694   0.141   5.975 -2.1522 -1.0091 -1.9008
 2850SOL    HW213398   8.787   0.035   6.032  0.1037  0.1520 -3.2758
 2851SOL     OW13399   1.518   3.318   6.121  0.5521  0.3944  0.2381
 2851SOL    HW113400   1.571   3.241   6.140  4.2036  2.2252 -1.5863
 2851SOL    HW213401   1.558   3.388   6.171  0.8291  2.1394 -2.2261
 2852SOL     OW13402   8.560   5.435   8.273  0.2477 -0.0112 -0.3054
 2852SOL    HW113403   8.497   5.463   8.206  0.6087 -0.0035 -0.6447
 2852SOL    HW213404   8.541   5.342   8.286 -1.0294  0.3795  0.9076
 2853SOL     OW13405   7.125   2.107   9.597  0.4762 -0.3371  0.6959
 2853SOL    HW113406   7.117   2.157   9.678  0.0914  1.6005 -0.4483
 2853SOL    HW213407   7.172   2.166   9.538 -0.2209 -1.2391 -0.8240
 2854SOL     OW13408   6.129   6.700   8.778 -0.0402  0.1903 -0.7278
 2854SOL    HW113409   6.133   6.763   8.850 -1.5487 -0.9723  0.4272
 2854SOL    HW213410   6.131   6.754   8.699 -0.6331  1.6438  0.2094
 2855SOL     OW13411   9.050   0.813   9.090  0.4003  0.1248 -0.0407
 2855SOL    HW113412   8.992   0.873   9.137  0.2712 -0.6117  0.7736
 2855SOL    HW213413   9.019   0.815   8.999 -1.3191 -0.7175  0.4794
 2856SOL     OW13414   2.091   1.995   0.667  0.5064 -0.2371  0.2512
 2856SOL    HW113415   2.186   1.983   0.662  0.9446  2.2134  1.2989
 2856SOL    HW213416   2.079   2.084   0.700 -2.1809  0.3425 -1.8469
 2857SOL     OW13417   0.729   1.983   8.510  0.5505 -0.8160  0.1446
 2857SOL    HW113418   0.700   1.974   8.600  0.3931 -0.2407  0.1561
 2857SOL    HW213419   0.791   1.911   8.497  0.1198 -1.2589  0.5243
 2858SOL     OW13420   7.295   7.939   1.046 -0.4726 -0.3150  0.4057
 2858SOL    HW113421   7.336   8.020   1.013 -0.5942 -0.4301 -0.0381
 2858SOL    HW213422   7.220   7.925   0.988 -0.4915 -0.7131  0.5234
 2859SOL     OW13423   5.065   3.458   2.133 -0.1050  0.7201  0.9829
 2859SOL    HW113424   4.984   3.505   2.114 -1.2008 -1.9747 -1.7158
 2859SOL    HW213425   5.063   3.382   2.076  3.1213 -0.8891  2.7416
 2860SOL     OW13426   2.923   3.655   7.734  0.6395  0.6536  0.2013
 2860SOL    HW113427   2.897   3.697   7.816 -1.1373  0.0622 -0.0127
 2860SOL    HW213428   2.946   3.728   7.676 -1.7937  1.3828  0.0273
 2861SOL     OW13429   2.755   6.358   2.352  0.0847 -0.1452 -0.2583
 2861SOL    HW113430   2.843   6.327   2.372 -0.1390 -0.1476  0.8191
 2861SOL    HW213431   2.714   6.286   2.304  0.9065  0.1619 -1.4614
 2862SOL     OW13432   5.723   2.293   6.565  0.3606  0.2008 -0.2829
 2862SOL    HW113433   5.773   2.347   6.505  3.3155  0.3019  2.0534
 2862SOL    HW213434   5.676   2.355   6.621 -0.3744  0.1530 -0.8223
 2863SOL     OW13435   5.091   7.880   3.064  0.0741 -0.0095 -0.2392
 2863SOL    HW113436   5.123   7.790   3.067 -0.1101 -0.0833 -0.4395
 2863SOL    HW213437   5.133   7.918   2.987  0.4811  0.2050  0.0834
 2864SOL     OW13438   1.584   3.078   6.743  0.7671  0.2190 -0.1460
 2864SOL    HW113439   1.546   3.037   6.821 -0.8950  0.8589 -0.5813
 2864SOL    HW213440   1.666   3.031   6.729 -1.2658 -3.3910 -0.9456
 2865SOL     OW13441   0.142   4.521   4.928 -0.1141  0.5097 -0.1514
 2865SOL    HW113442   0.092   4.562   4.858 -0.1252  3.0739  1.2553
 2865SOL    HW213443   0.089   4.446   4.955 -1.1843  0.7950 -1.3719
 2866SOL     OW13444   7.454   2.771   7.899  0.0119  0.5787  0.3382
 2866SOL    HW113445   7.382   2.725   7.854 -1.1324 -0.1542  2.7418
 2866SOL    HW213446   7.523   2.705   7.906 -0.9497 -0.3230  2.1871
 2867SOL     OW13447   8.948   5.492   8.870  0.5000 -0.2499  0.4726
 2867SOL    HW113448   8.931   5.455   8.956  1.0576  0.9877  1.1423
 2867SOL    HW213449   8.860   5.510   8.834  0.2542  0.8341  1.5332
 2868SOL     OW13450   6.297   2.860   0.108 -0.1633  0.5356 -0.3247
 2868SOL    HW113451   6.283   2.901   0.193 -0.6498 -0.8180  0.2838
 2868SOL    HW213452   6.362   2.915   0.065  0.3083  1.0939  1.0414
 2869SOL     OW13453   7.476   1.787   0.184 -0.5291 -0.2525 -0.0791
 2869SOL    HW113454   7.436   1.793   0.270  0.1286  1.4191  0.1480
 2869SOL    HW213455   7.452   1.700   0.152 -0.7810 -0.9111  1.7738
 2870SOL     OW13456   8.153   2.017   5.845  0.2741 -0.1915  0.6629
 2870SOL    HW113457   8.186   2.096   5.889  0.0609 -0.5102  1.4135
 2870SOL    HW213458   8.226   1.987   5.792 -0.0126  1.1662 -0.5633
 2871SOL     OW13459   6.524   0.328   2.472  0.5194 -0.2831 -0.0733
 2871SOL    HW113460   6.452   0.375   2.430  0.5437 -0.4523 -0.3027
 2871SOL    HW213461   6.596   0.391   2.473 -0.2346  0.6616  2.0757
 2872SOL     OW13462   8.380   9.266   0.387  0.1520 -0.0900 -0.3594
 2872SOL    HW113463   8.285   9.267   0.398  0.0914 -1.1502 -0.7068
 2872SOL    HW213464   8.395   9.306   0.302  0.0775  0.7341  0.0030
 2873SOL     OW13465   4.972   6.005   8.871  0.1643 -0.6832  0.6111
 2873SOL    HW113466   4.931   6.072   8.817  2.5540  0.3533 -0.0349
 2873SOL    HW213467   4.969   6.042   8.960 -0.1569 -0.5591  0.5519
 2874SOL     OW13468   7.826   5.669   9.579  0.2448 -0.2683 -0.6996
 2874SOL    HW113469   7.872   5.595   9.618  0.3788 -0.6655 -1.5774
 2874SOL    HW213470   7.873   5.686   9.497 -1.0292 -0.5729 -1.5254
 2875SOL     OW13471   7.397   8.821   7.372 -0.1104 -0.2249 -0.8456
 2875SOL    HW113472   7.444   8.815   7.455 -0.5157 -0.5254 -0.6270
 2875SOL    HW213473   7.451   8.876   7.317  0.9567 -1.3000 -0.9201
 2876SOL     OW13474   7.517   5.805   5.512 -0.1202 -0.1893 -0.2914
 2876SOL    HW113475   7.550   5.860   5.583  0.0714  0.1100 -0.6085
 2876SOL    HW213476   7.424   5.796   5.530  0.0089 -0.5011  0.2535
 2877SOL     OW13477   4.008   2.807   0.464 -0.6887 -0.6169 -0.1505
 2877SOL    HW113478   3.938   2.861   0.428 -1.4357 -1.1313  0.4888
 2877SOL    HW213479   3.964   2.749   0.527  0.1632 -1.6000 -0.4243
 2878SOL     OW13480   2.913   4.977   8.855  0.1541  0.3599 -0.0537
 2878SOL    HW113481   2.985   5.029   8.819  0.2409 -0.7020 -1.5429
 2878SOL    HW213482   2.956   4.904   8.899  0.0034  0.5506  0.4140
 2879SOL     OW13483   1.139   4.988   0.136 -0.4611  0.5472 -0.4532
 2879SOL    HW113484   1.077   4.924   0.099  1.2040 -1.2464 -0.2967
 2879SOL    HW213485   1.131   5.064   0.078 -3.1146  0.6014 -0.1640
 2880SOL     OW13486   2.977   6.268   8.392 -0.2063 -0.0629  0.3093
 2880SOL    HW113487   3.061   6.265   8.346 -0.5866  1.1072 -0.4860
 2880SOL    HW213488   2.933   6.346   8.358 -1.0614  0.0938  1.6936
 2881SOL     OW13489   8.325   6.544   1.247 -0.2882 -0.1708 -0.2183
 2881SOL    HW113490   8.298   6.622   1.197  0.3116 -0.2848 -0.7307
 2881SOL    HW213491   8.394   6.577   1.305 -1.8430  0.2452  1.4951
 2882SOL     OW13492   6.510   0.156   4.233  0.0937 -0.0148  0.0484
 2882SOL    HW113493   6.593   0.125   4.196 -0.2582 -1.9825  0.7693
 2882SOL    HW213494   6.445   0.093   4.201 -0.6743 -0.1034  1.6708
 2883SOL     OW13495   7.163   9.417   6.939 -0.0582  0.0670  0.0498
 2883SOL    HW113496   7.091   9.437   6.999 -1.0671  2.1313 -1.7502
 2883SOL    HW213497   7.151   9.324   6.918  0.3338 -0.7403  2.9335
 2884SOL     OW13498   3.003   1.683   0.333  0.5094  0.0443 -0.0310
 2884SOL    HW113499   2.921   1.679   0.382 -0.0801  1.7297 -0.8044
 2884SOL    HW213500   3.065   1.723   0.394  0.5976 -0.6070  0.3205
 2885SOL     OW13501   9.203   5.596   8.891  0.2046 -0.3885 -0.3657
 2885SOL    HW113502   9.110   5.571   8.890  0.2105 -0.5834  1.4723
 2885SOL    HW213503   9.248   5.522   8.931  0.8472  0.5853  0.7658
 2886SOL     OW13504   0.504   8.511   5.157  0.0003  0.3859  0.2422
 2886SOL    HW113505   0.554   8.457   5.096  1.2012 -0.9234  2.2701
 2886SOL    HW213506   0.413   8.481   5.146  0.2727 -0.2091 -0.4906
 2887SOL     OW13507   3.515   7.970   0.709  0.4822 -0.2637  0.4611
 2887SOL    HW113508   3.499   7.993   0.618  0.9157  1.9317  0.8908
 2887SOL    HW213509   3.583   7.902   0.704 -0.9068 -1.6193 -0.8843
 2888SOL     OW13510   9.688   7.307   5.760  0.0053 -0.2917  0.2761
 2888SOL    HW113511   9.617   7.242   5.759 -0.2980  0.0310 -1.0914
 2888SOL    HW213512   9.765   7.257   5.734 -0.0434 -0.3054  0.1574
 2889SOL     OW13513   2.713   4.255   3.279 -0.0943  0.3116 -0.5349
 2889SOL    HW113514   2.625   4.222   3.264  0.5163 -0.9754 -1.5782
 2889SOL    HW213515   2.757   4.185   3.327  0.0123  1.4920  1.1531
 2890SOL     OW13516   8.649   7.038   1.168 -0.3639 -0.2241 -0.4261
 2890SOL    HW113517   8.704   7.097   1.116  0.7188  0.5483  1.4961
 2890SOL    HW213518   8.562   7.045   1.128  0.0045  1.7709 -0.9686
 2891SOL     OW13519   5.295   4.489   3.611  0.7211 -0.1493 -0.1344
 2891SOL    HW113520   5.361   4.524   3.551 -0.2827  0.9911 -0.6398
 2891SOL    HW213521   5.304   4.542   3.690 -0.9404  1.4994 -0.9759
 2892SOL     OW13522   9.003   3.705   0.948 -0.4017  0.1086 -0.2048
 2892SOL    HW113523   8.959   3.704   1.033  1.0683  1.4762  0.6277
 2892SOL    HW213524   9.069   3.636   0.955 -1.3941 -0.9575 -0.9211
 2893SOL     OW13525   2.220   9.611   1.554  0.0522  0.0985  0.0325
 2893SOL    HW113526   2.250   9.528   1.591  1.9380  0.1544 -1.2137
 2893SOL    HW213527   2.300   9.651   1.520 -1.1511  1.4121 -1.3380
 2894SOL     OW13528   3.859   1.438   6.660 -0.1044  0.2160 -0.1506
 2894SOL    HW113529   3.840   1.473   6.573  0.1035  0.0807 -0.2519
 2894SOL    HW213530   3.802   1.361   6.668 -1.1766  1.0419  0.4015
 2895SOL     OW13531   1.861   8.103   4.668  0.6231 -0.5519  0.2777
 2895SOL    HW113532   1.876   8.195   4.691 -1.5611  0.4706 -1.9206
 2895SOL    HW213533   1.777   8.103   4.623  0.7422 -3.6061 -0.1547
 2896SOL     OW13534   1.203   4.102   4.133  0.3054  0.7241  0.0990
 2896SOL    HW113535   1.277   4.133   4.186  1.1559 -1.5421  0.3411
 2896SOL    HW213536   1.126   4.122   4.185  1.0796 -0.9278  2.0275
 2897SOL     OW13537   9.481   8.478   4.889 -0.2012 -0.5224 -0.3904
 2897SOL    HW113538   9.411   8.428   4.848 -1.3884  2.5736 -2.4860
 2897SOL    HW213539   9.494   8.554   4.832  2.5398  0.8095  1.7276
 2898SOL     OW13540   3.346   5.113   2.528 -0.0907 -0.0379 -0.7909
 2898SOL    HW113541   3.307   5.130   2.441  1.0565 -1.5233 -1.6380
 2898SOL    HW213542   3.279   5.062   2.574 -1.1893  1.7278 -0.3173
 2899SOL     OW13543   5.972   3.730   5.126  0.1647  0.4214  0.0138
 2899SOL    HW113544   5.883   3.756   5.103  0.3546  1.0833  0.0076
 2899SOL    HW213545   6.003   3.799   5.185  1.0325  0.7527 -0.8050
 2900SOL     OW13546   7.170   0.431   9.042  0.3029 -0.3827  0.0743
 2900SOL    HW113547   7.229   0.389   9.104 -1.1673 -1.3842  0.8656
 2900SOL    HW213548   7.102   0.366   9.025 -0.2226  0.4781 -1.3292
 2901SOL     OW13549   8.138   2.614   1.596 -0.3700 -0.0742  0.1464
 2901SOL    HW113550   8.187   2.652   1.669 -0.2065 -0.6756  0.3551
 2901SOL    HW213551   8.094   2.689   1.555 -1.5857  0.1371  1.7057
 2902SOL     OW13552   2.530   8.313   9.686 -0.0374  0.0081  0.5581
 2902SOL    HW113553   2.512   8.249   9.755 -1.5068 -1.8053 -1.3877
 2902SOL    HW213554   2.462   8.380   9.698  1.1532  1.0041  2.2427
 2903SOL     OW13555   5.071   9.538   5.981  0.2669 -0.2555  0.5249
 2903SOL    HW113556   5.024   9.544   5.898  2.7911  0.2444 -0.9542
 2903SOL    HW213557   5.027   9.601   6.038  0.5211  1.8743 -1.5134
 2904SOL     OW13558   4.762   0.511   4.640  0.1008 -0.1191  0.5448
 2904SOL    HW113559   4.819   0.435   4.630 -0.0584 -0.0579 -0.9966
 2904SOL    HW213560   4.804   0.563   4.708  1.0394 -0.8379  0.5406
 2905SOL     OW13561   1.717   4.858   3.040  0.1205 -0.1152  0.5398
 2905SOL    HW113562   1.738   4.858   3.134 -0.6239  0.8791  0.7294
 2905SOL    HW213563   1.689   4.768   3.022  0.3710 -0.3464  1.2381
 2906SOL     OW13564   1.216   1.062   6.756 -0.2511  0.2399 -0.0123
 2906SOL    HW113565   1.126   1.087   6.772  0.1029  1.6205 -0.0336
 2906SOL    HW213566   1.225   0.975   6.794 -1.0955  0.8418  1.6181
 2907SOL     OW13567   8.657   4.158   1.184  0.3695 -0.3363  0.0089
 2907SOL    HW113568   8.724   4.105   1.140  0.9787 -0.3779  0.9458
 2907SOL    HW213569   8.630   4.105   1.259  1.0901  0.7097  1.0450
 2908SOL     OW13570   2.997   5.729   4.639 -0.0216  0.5531  0.7056
 2908SOL    HW113571   3.092   5.728   4.626  0.3008  0.8023  2.7408
 2908SOL    HW213572   2.968   5.807   4.592  0.4256 -0.6948 -1.7807
 2909SOL     OW13573   8.512   4.924   8.261 -0.3858  0.0156  0.3981
 2909SOL    HW113574   8.591   4.870   8.263 -0.4648 -0.0914  0.6605
 2909SOL    HW213575   8.543   5.013   8.240 -0.1498  0.0571  0.9260
 2910SOL     OW13576   3.820   2.084   5.254 -0.2479 -0.2251 -0.1143
 2910SOL    HW113577   3.777   2.070   5.338  1.6223  2.1427  1.3732
 2910SOL    HW213578   3.894   2.023   5.254 -0.0757 -0.0178  0.1052
 2911SOL     OW13579   5.532   9.133   1.749 -0.0633  0.3964 -0.6453
 2911SOL    HW113580   5.568   9.081   1.677  1.1254  0.2134  0.0600
 2911SOL    HW213581   5.466   9.076   1.788  1.1574 -0.5923  0.0572
 2912SOL     OW13582   3.750   8.864   4.025 -0.1065 -0.1688  0.0865
 2912SOL    HW113583   3.809   8.909   3.965 -2.6075  0.3982 -2.1295
 2912SOL    HW213584   3.712   8.934   4.079  0.0117 -0.3294  0.3846
 2913SOL     OW13585   2.697   4.664   6.491  0.1709  0.7687  0.3220
 2913SOL    HW113586   2.702   4.706   6.405  0.4265 -1.5231 -0.8668
 2913SOL    HW213587   2.789   4.654   6.517  0.3294 -1.7827 -0.9116
 2914SOL     OW13588   2.800   5.569   3.721  0.1114  0.0770 -0.0676
 2914SOL    HW113589   2.708   5.558   3.748 -0.1068  3.0570  0.8050
 2914SOL    HW213590   2.799   5.648   3.667  2.0922 -0.2909 -0.7060
 2915SOL     OW13591   3.437   8.348   3.170  0.1919 -0.5430  0.2538
 2915SOL    HW113592   3.445   8.312   3.258 -0.5729  0.2908  0.6728
 2915SOL    HW213593   3.452   8.442   3.180  0.6373 -0.5069 -0.5936
 2916SOL     OW13594   2.929   9.474   2.200 -0.1491 -0.2738 -0.0889
 2916SOL    HW113595   2.872   9.532   2.150 -0.4236  0.2912  0.8541
 2916SOL    HW213596   2.946   9.401   2.141 -1.0198  0.0374 -0.7537
 2917SOL     OW13597   8.405   5.203   2.384  0.3773 -0.0952 -0.0260
 2917SOL    HW113598   8.404   5.297   2.401  1.9588 -0.1406  0.4042
 2917SOL    HW213599   8.463   5.166   2.450 -0.2638 -1.3990 -0.1488
 2918SOL     OW13600   4.122   3.126   6.957 -0.2228  0.7806  0.2620
 2918SOL    HW113601   4.042   3.124   7.010 -0.5661  0.4779 -0.2594
 2918SOL    HW213602   4.104   3.190   6.889 -0.6550 -0.4339 -0.8156
 2919SOL     OW13603   3.778   7.206   9.253  0.7014 -0.0522 -0.5041
 2919SOL    HW113604   3.699   7.159   9.229  0.3617  0.8641 -1.2651
 2919SOL    HW213605   3.748   7.295   9.272  1.6780  0.6830 -2.1505
 2920SOL     OW13606   3.220   5.598   0.095  0.1159  0.5136  0.0709
 2920SOL    HW113607   3.300   5.651   0.093  0.5013 -0.0829 -0.7433
 2920SOL    HW213608   3.176   5.619   0.013  0.2891 -0.4444 -0.2750
 2921SOL     OW13609   2.889   9.379   7.409  0.8072 -0.2852  0.0197
 2921SOL    HW113610   2.938   9.307   7.450 -1.5600 -2.9685 -1.4657
 2921SOL    HW213611   2.812   9.390   7.465  0.4338  0.0772 -0.5622
 2922SOL     OW13612   2.869   9.317   1.548  0.8383 -0.2711  0.1538
 2922SOL    HW113613   2.785   9.301   1.591  1.0342 -1.8942  0.0036
 2922SOL    HW213614   2.854   9.394   1.493 -0.6645 -0.7560 -0.1579
 2923SOL     OW13615   2.923   3.046   4.006  0.4485  0.0492 -0.2212
 2923SOL    HW113616   2.986   3.000   3.951  0.1311 -1.9699  1.0230
 2923SOL    HW213617   2.976   3.108   4.056  1.1986 -0.4735 -0.3583
 2924SOL     OW13618   4.746   8.331   9.052 -0.4880  0.3270 -0.2965
 2924SOL    HW113619   4.801   8.379   9.114  0.2652  0.1838 -0.8401
 2924SOL    HW213620   4.658   8.364   9.067 -0.4560 -0.2271  1.3795
 2925SOL     OW13621   5.341   7.685   3.931 -0.0701  0.7140 -0.3402
 2925SOL    HW113622   5.265   7.718   3.979  0.4448  1.0945  0.2206
 2925SOL    HW213623   5.326   7.590   3.926  0.1133  0.5873  1.0257
 2926SOL     OW13624   8.370   1.904   6.470  0.3275 -0.1870 -0.1219
 2926SOL    HW113625   8.445   1.870   6.422 -1.1889 -0.4666 -2.4375
 2926SOL    HW213626   8.406   1.976   6.523  1.9934  0.6640 -2.2890
 2927SOL     OW13627   4.325   8.654   5.023  0.7411 -0.0863  0.3912
 2927SOL    HW113628   4.232   8.678   5.024  0.9307  0.9467  3.3518
 2927SOL    HW213629   4.333   8.590   4.953 -2.3672 -0.8319  0.5903
 2928SOL     OW13630   6.833   0.719   9.352  0.3085 -0.0358  0.3021
 2928SOL    HW113631   6.844   0.656   9.280 -1.6923 -1.4005  1.1296
 2928SOL    HW213632   6.906   0.700   9.411  0.5364 -0.5866 -0.1431
 2929SOL     OW13633   9.627   9.161   1.078 -0.6293  0.8017 -0.1080
 2929SOL    HW113634   9.616   9.069   1.054 -0.2279  0.3455  1.3185
 2929SOL    HW213635   9.698   9.192   1.022 -0.8188  0.2563 -0.6551
 2930SOL     OW13636   6.477   3.081   2.831  0.0164 -0.4398  0.0376
 2930SOL    HW113637   6.485   3.015   2.901  0.3002 -0.4602 -0.0133
 2930SOL    HW213638   6.454   3.030   2.753 -0.6154 -0.3821  0.1822
 2931SOL     OW13639   3.444   9.594   3.980 -0.1324 -0.4553 -0.0600
 2931SOL    HW113640   3.448   9.551   3.895 -4.5364 -0.3972 -0.5156
 2931SOL    HW213641   3.426   9.523   4.042  1.1928 -0.2419  0.6218
 2932SOL     OW13642   3.295   3.546   6.973 -0.2948 -0.0635 -0.5229
 2932SOL    HW113643   3.390   3.563   6.971  0.0230 -1.1972  1.6840
 2932SOL    HW213644   3.255   3.631   6.960  1.1103  0.9509  1.3258
 2933SOL     OW13645   1.815   1.896   1.787 -0.0362 -0.1452 -0.4383
 2933SOL    HW113646   1.834   1.937   1.702 -1.3073  0.1833 -0.5922
 2933SOL    HW213647   1.725   1.924   1.807 -0.3167 -1.4856  0.2698
 2934SOL     OW13648   5.297   9.723   5.552 -0.0620 -0.4991 -0.1599
 2934SOL    HW113649   5.258   9.668   5.483  0.6169 -2.0827  0.6686
 2934SOL    HW213650   5.225   9.735   5.615 -0.2033 -0.5010 -0.3192
 2935SOL     OW13651   3.882   0.998   2.074 -0.2969 -0.8693  0.3544
 2935SOL    HW113652   3.883   1.090   2.098 -0.3289 -0.3669 -1.4525
 2935SOL    HW213653   3.943   0.956   2.135 -1.5703  0.0143  2.3228
 2936SOL     OW13654   7.257   8.934   9.234  0.4955 -0.0844  0.2993
 2936SOL    HW113655   7.333   8.989   9.254  0.9072 -0.1429 -1.0340
 2936SOL    HW213656   7.182   8.993   9.243  0.9098  0.6449 -0.8112
 2937SOL     OW13657   2.583   4.927   0.289  0.1039 -0.8984  0.5344
 2937SOL    HW113658   2.596   5.015   0.253 -1.4517 -0.6842  0.4124
 2937SOL    HW213659   2.493   4.928   0.323  0.3747 -2.1625  1.3544
 2938SOL     OW13660   5.299   9.135   0.896 -0.1810  0.2689  0.1885
 2938SOL    HW113661   5.348   9.089   0.965  0.0297  1.1923  0.6659
 2938SOL    HW213662   5.268   9.215   0.938 -0.2311  0.7434 -0.7429
 2939SOL     OW13663   6.489   7.437   6.151  0.4240 -0.0184 -0.1180
 2939SOL    HW113664   6.403   7.396   6.159 -0.3840  0.9799 -2.6999
 2939SOL    HW213665   6.539   7.378   6.095  0.2549  0.9636 -1.3615
 2940SOL     OW13666   0.914   0.845   1.102 -0.5417  0.8410  0.6639
 2940SOL    HW113667   0.979   0.853   1.032 -0.2758 -1.1660  0.6201
 2940SOL    HW213668   0.870   0.930   1.105  0.1072  1.2781 -1.2768
 2941SOL     OW13669   9.450   5.527   4.522  0.1961  0.0585 -0.8463
 2941SOL    HW113670   9.414   5.451   4.567 -3.0559  0.9891 -1.6186
 2941SOL    HW213671   9.447   5.597   4.587 -0.6138  0.4242 -1.2573
 2942SOL     OW13672   0.536   3.470   7.052  0.4730 -0.2457  0.0593
 2942SOL    HW113673   0.545   3.417   6.972 -1.9847 -1.6336  0.5985
 2942SOL    HW213674   0.479   3.543   7.026  0.8613  0.1131  0.2070
 2943SOL     OW13675   2.798   3.230   0.417 -0.4694 -0.1429  0.0802
 2943SOL    HW113676   2.893   3.239   0.425 -0.6038  1.0700  0.4347
 2943SOL    HW213677   2.785   3.136   0.405  0.8333 -0.2387 -0.8602
 2944SOL     OW13678   0.650   5.612   2.032  0.1061 -0.5662 -0.1718
 2944SOL    HW113679   0.709   5.538   2.046  1.0260  0.3950  1.4199
 2944SOL    HW213680   0.660   5.634   1.940  0.9425 -1.4957 -0.3182
 2945SOL     OW13681   9.112   5.237   7.345  0.0587  0.5478  0.4613
 2945SOL    HW113682   9.056   5.279   7.411  0.6808  0.3568  1.1281
 2945SOL    HW213683   9.052   5.187   7.291 -0.5176  1.0600  0.6128
 2946SOL     OW13684   0.842   5.995   1.710 -0.3198 -0.4233 -0.0715
 2946SOL    HW113685   0.865   5.925   1.771 -1.3610 -0.8431 -0.1345
 2946SOL    HW213686   0.798   5.951   1.638 -0.8835  0.2821 -0.1740
 2947SOL     OW13687   9.703   1.239   8.401 -0.4165 -0.5686  0.0625
 2947SOL    HW113688   9.639   1.172   8.382 -0.4925  0.1252 -2.4259
 2947SOL    HW213689   9.750   1.253   8.319  2.4144 -0.4739  1.5541
 2948SOL     OW13690   1.019   5.095   3.492 -0.1066 -0.7408 -0.2780
 2948SOL    HW113691   1.049   5.114   3.581 -1.3922 -1.7138  0.4045
 2948SOL    HW213692   1.021   5.000   3.486  1.6287 -0.6667 -1.9345
 2949SOL     OW13693   5.822   1.238   2.030 -0.1321  0.0684  1.0754
 2949SOL    HW113694   5.805   1.236   2.124 -1.0813  1.4871  0.9795
 2949SOL    HW213695   5.838   1.331   2.012 -1.1309 -0.0060 -0.3332
 2950SOL     OW13696   9.485   4.480   3.578 -0.6173  0.1950  0.1788
 2950SOL    HW113697   9.465   4.388   3.563 -1.5114  0.6962 -2.0291
 2950SOL    HW213698   9.399   4.523   3.580 -0.1609  1.1407 -0.1304
 2951SOL     OW13699   1.956   3.696   5.131 -0.1576 -0.3592  0.2742
 2951SOL    HW113700   1.953   3.698   5.036  0.8144 -2.5944  0.1309
 2951SOL    HW213701   2.023   3.759   5.155  0.4564 -0.6608 -0.6134
 2952SOL     OW13702   4.835   3.785   9.233 -0.6368  0.2671  0.1434
 2952SOL    HW113703   4.876   3.712   9.280 -2.6205 -0.4635  0.8693
 2952SOL    HW213704   4.898   3.809   9.166  0.1423 -2.0681 -0.0603
 2953SOL     OW13705   9.361   7.312   0.931 -0.1261 -0.0365  0.0232
 2953SOL    HW113706   9.372   7.255   1.008  1.3228  0.7011  0.3824
 2953SOL    HW213707   9.440   7.365   0.928 -1.9520  2.9442  0.4847
 2954SOL     OW13708   6.763   8.291   7.453  0.9531 -0.1509 -0.2667
 2954SOL    HW113709   6.738   8.251   7.536  1.6130 -1.5032 -0.6859
 2954SOL    HW213710   6.828   8.357   7.476  1.2228 -0.6019  0.2871
 2955SOL     OW13711   3.555   3.505   9.666  0.3061  0.6775 -0.1631
 2955SOL    HW113712   3.573   3.419   9.626 -1.0684  1.0941 -1.7802
 2955SOL    HW213713   3.642   3.538   9.689  1.0301 -0.3443 -1.2499
 2956SOL     OW13714   2.034   7.110   1.916 -0.2308  0.5666  0.1470
 2956SOL    HW113715   2.129   7.113   1.929  0.1434 -1.2080 -1.6322
 2956SOL    HW213716   1.998   7.153   1.993  1.9219 -1.4961  2.5170
 2957SOL     OW13717   4.615   9.655   7.106  0.1730 -0.8157 -0.2674
 2957SOL    HW113718   4.592   9.729   7.162 -0.8744 -0.7165 -0.8066
 2957SOL    HW213719   4.562   9.582   7.138 -0.5810 -0.7121 -1.2126
 2958SOL     OW13720   0.608   6.564   0.539 -0.1220 -0.0783  0.5108
 2958SOL    HW113721   0.562   6.496   0.490  0.6009  1.0207 -1.8260
 2958SOL    HW213722   0.557   6.644   0.525  0.8659  0.5441  0.3621
 2959SOL     OW13723   2.047   4.871   0.274 -0.0884  0.2291  0.1182
 2959SOL    HW113724   2.031   4.834   0.360 -0.7595 -0.2592 -0.2067
 2959SOL    HW213725   1.964   4.915   0.251 -0.0933 -0.0792 -0.4854
 2960SOL     OW13726   3.321   8.094   9.536  0.5119  0.0671  0.4683
 2960SOL    HW113727   3.294   8.012   9.494 -1.4269  0.7322  0.2795
 2960SOL    HW213728   3.393   8.126   9.482  0.8416 -1.1715  0.1464
 2961SOL     OW13729   2.604   6.883   3.216  0.0453  0.8615 -0.0132
 2961SOL    HW113730   2.515   6.918   3.212  0.5046  2.0286 -0.2924
 2961SOL    HW213731   2.592   6.791   3.241 -1.1344  1.4683  1.8661
 2962SOL     OW13732   2.688   7.980   1.820  0.9231  0.2400 -0.0615
 2962SOL    HW113733   2.736   8.031   1.884 -0.0376 -0.9302  1.6677
 2962SOL    HW213734   2.597   8.008   1.831  0.8240  0.6007 -1.5187
 2963SOL     OW13735   0.212   7.459   1.150  0.1080  0.1406  0.8267
 2963SOL    HW113736   0.246   7.484   1.064 -0.2606 -0.8804  0.3694
 2963SOL    HW213737   0.287   7.466   1.209  0.3778  0.7811  0.4233
 2964SOL     OW13738   4.653   1.090   9.388 -0.0592  0.1563  0.0521
 2964SOL    HW113739   4.733   1.114   9.434  0.1075 -1.2125  0.5175
 2964SOL    HW213740   4.597   1.168   9.395  0.2814  0.2832  1.8660
 2965SOL     OW13741   5.487   8.715   6.952  0.1900 -0.0616  0.3120
 2965SOL    HW113742   5.564   8.707   7.008 -0.1300  0.0544  0.7760
 2965SOL    HW213743   5.433   8.781   6.995  0.7525  1.3665 -1.0868
 2966SOL     OW13744   7.017   4.764   1.553  0.3896 -0.3840  0.7036
 2966SOL    HW113745   7.054   4.842   1.595 -0.4617  0.3737  0.0762
 2966SOL    HW213746   6.953   4.798   1.491  0.5850 -1.5515 -0.1748
 2967SOL     OW13747   5.286   3.569   2.449  0.2231  0.4738 -0.2215
 2967SOL    HW113748   5.245   3.614   2.523 -0.4947  0.1834 -0.4253
 2967SOL    HW213749   5.326   3.491   2.487 -1.8314 -0.7437 -0.3545
 2968SOL     OW13750   9.617   4.942   5.915  0.8789 -0.1036  0.1145
 2968SOL    HW113751   9.682   4.880   5.948  1.0286  1.0288  2.1461
 2968SOL    HW213752   9.668   5.018   5.888  0.5530 -0.0264 -0.2858
 2969SOL     OW13753   4.872   5.411   8.751 -0.6746  0.1743  0.1285
 2969SOL    HW113754   4.966   5.426   8.741 -0.5434 -0.9213 -0.4298
 2969SOL    HW213755   4.836   5.427   8.664 -1.0735  1.0234  0.4467
 2970SOL     OW13756   4.796   8.702   3.117 -0.3730 -0.0827  0.2714
 2970SOL    HW113757   4.785   8.747   3.033 -2.3999  2.3302  1.6878
 2970SOL    HW213758   4.821   8.612   3.093 -1.1093  0.4300 -2.8832
 2971SOL     OW13759   7.106   1.157   0.927 -0.2754 -0.3622  0.2741
 2971SOL    HW113760   7.014   1.175   0.949  0.4364  1.8819  1.7738
 2971SOL    HW213761   7.110   1.163   0.832 -1.7219 -0.7048  0.1718
 2972SOL     OW13762   4.299   5.519   3.494  0.6427 -0.0240 -0.4978
 2972SOL    HW113763   4.249   5.499   3.574  2.5433 -1.4740  0.4041
 2972SOL    HW213764   4.305   5.436   3.448 -1.1340  0.9421 -2.6888
 2973SOL     OW13765   6.544   1.244   7.865  0.1757 -0.4288  0.0268
 2973SOL    HW113766   6.469   1.192   7.894  0.9561 -0.6886  1.7247
 2973SOL    HW213767   6.514   1.334   7.870 -0.5326 -0.5997 -0.9155
 2974SOL     OW13768   4.132   1.149   3.453  0.2183  0.0471 -0.2123
 2974SOL    HW113769   4.180   1.169   3.373  0.1626  0.7775 -0.0714
 2974SOL    HW213770   4.105   1.058   3.443  0.6249 -0.0114 -0.8109
 2975SOL     OW13771   6.147   0.676   7.633 -0.6739  0.2169 -0.5316
 2975SOL    HW113772   6.072   0.673   7.692 -0.0532  2.7998  0.5093
 2975SOL    HW213773   6.224   0.669   7.690 -0.0313 -1.9856 -1.5408
 2976SOL     OW13774   4.544   2.805   0.306  0.0016 -0.9157 -0.2730
 2976SOL    HW113775   4.456   2.773   0.326 -0.9516  2.3243  1.2912
 2976SOL    HW213776   4.597   2.779   0.382 -0.5687  0.3532  0.5947
 2977SOL     OW13777   8.633   6.463   6.817 -0.0513 -0.0707  0.1883
 2977SOL    HW113778   8.598   6.375   6.832 -1.8060  0.7275  1.1027
 2977SOL    HW213779   8.660   6.493   6.904  2.1348 -0.2825 -0.3499
 2978SOL     OW13780   1.126   0.733   1.907  0.6501 -0.5077  0.5766
 2978SOL    HW113781   1.180   0.659   1.880  1.2897  0.3297 -0.5022
 2978SOL    HW213782   1.059   0.694   1.964  1.4157 -1.7932  0.6323
 2979SOL     OW13783   0.195   3.758   2.439  0.1261  0.3615 -0.2643
 2979SOL    HW113784   0.250   3.714   2.504  0.8298  1.3076 -0.2073
 2979SOL    HW213785   0.166   3.838   2.483  1.8371  1.7826 -1.5971
 2980SOL     OW13786   0.127   9.461   4.053  0.0708  0.1220  0.1846
 2980SOL    HW113787   0.129   9.542   4.104  0.2692  0.3725 -0.2160
 2980SOL    HW213788   0.118   9.392   4.118 -2.3421  0.5923  0.4399
 2981SOL     OW13789   8.907   5.327   5.903  0.8685 -0.2033 -0.9407
 2981SOL    HW113790   8.857   5.249   5.877  1.9382 -1.4445  0.4998
 2981SOL    HW213791   8.849   5.372   5.965  0.7173 -0.5458 -0.8247
 2982SOL     OW13792   0.021   7.783   3.179 -0.1714  0.1980  0.4667
 2982SOL    HW113793   0.021   7.706   3.122  0.3775 -1.0155  2.0446
 2982SOL    HW213794  -0.061   7.828   3.156  0.8381  0.7650 -2.4966
 2983SOL     OW13795   2.979   3.100   6.747 -0.1795  0.0494 -0.7261
 2983SOL    HW113796   3.038   3.175   6.760 -1.3736  0.9323 -0.1523
 2983SOL    HW213797   2.987   3.048   6.827 -0.7880  0.6298 -0.2732
 2984SOL     OW13798   0.834   9.725   8.797  0.1179  0.1434 -0.1790
 2984SOL    HW113799   0.875   9.678   8.870  1.3089 -0.5306 -1.2324
 2984SOL    HW213800   0.863   9.815   8.808 -1.4047  0.4974  1.3194
 2985SOL     OW13801   1.068   3.603   5.828  0.5742 -0.2046  0.2788
 2985SOL    HW113802   0.992   3.629   5.776  1.0302  1.1922  0.2659
 2985SOL    HW213803   1.074   3.671   5.896  0.7471 -1.2866  1.3860
 2986SOL     OW13804   9.150   5.431   2.412  0.2198  0.1770 -0.0453
 2986SOL    HW113805   9.194   5.509   2.379  0.9981 -0.4507 -0.5396
 2986SOL    HW213806   9.210   5.395   2.477  0.9586 -1.2405 -1.4358
 2987SOL     OW13807   0.183   2.929   5.410 -0.6853 -0.1897  0.0209
 2987SOL    HW113808   0.150   2.927   5.320 -0.7886 -1.8767  0.0762
 2987SOL    HW213809   0.232   3.012   5.415 -0.8423  0.0256 -1.5170
 2988SOL     OW13810   5.875   2.183   0.803  0.6057  0.7625 -0.2495
 2988SOL    HW113811   5.860   2.216   0.714  0.6364  1.6778  0.0729
 2988SOL    HW213812   5.970   2.169   0.807  0.4834 -0.3028 -0.6917
 2989SOL     OW13813   5.184   6.132   2.996 -0.8717  0.0121 -0.0041
 2989SOL    HW113814   5.196   6.041   2.967  0.7240  0.0125  0.6082
 2989SOL    HW213815   5.270   6.160   3.025 -0.9075  2.3577 -1.9041
 2990SOL     OW13816   2.583   5.849   2.123 -0.7935 -0.0349  0.3046
 2990SOL    HW113817   2.538   5.926   2.088 -1.3423  0.1197  1.3160
 2990SOL    HW213818   2.667   5.848   2.077 -1.4849  0.1318 -1.0240
 2991SOL     OW13819   9.532   4.491   8.120 -0.1873  0.3872 -0.2650
 2991SOL    HW113820   9.467   4.501   8.190 -0.6827 -1.6325 -0.3778
 2991SOL    HW213821   9.494   4.539   8.046 -0.7400  0.6610  0.1843
 2992SOL     OW13822   2.356   7.065   9.622 -0.5059  0.2361  0.1646
 2992SOL    HW113823   2.342   7.015   9.542  0.1377  0.9933 -0.4387
 2992SOL    HW213824   2.417   7.013   9.673  1.5422  1.1439 -1.2229
 2993SOL     OW13825   5.939   5.414   5.278  0.1034 -0.7575  0.4948
 2993SOL    HW113826   5.946   5.321   5.303 -0.3909 -1.2012 -0.9123
 2993SOL    HW213827   5.964   5.462   5.356 -1.3969 -2.0545  1.8253
 2994SOL     OW13828   6.994   2.988   7.888 -0.6452  0.3882 -0.4325
 2994SOL    HW113829   7.071   3.033   7.923 -1.0450  2.0405 -1.5636
 2994SOL    HW213830   7.024   2.951   7.805 -0.7230 -0.1405 -0.2265
 2995SOL     OW13831   4.705   4.569   2.826 -0.4163 -0.0706 -0.4929
 2995SOL    HW113832   4.705   4.535   2.915  2.3697  0.8627 -0.0622
 2995SOL    HW213833   4.624   4.620   2.820  0.5817  2.1013  2.4500
 2996SOL     OW13834   5.660   8.773   2.356 -0.4811  0.6950  0.1906
 2996SOL    HW113835   5.715   8.849   2.337  0.8912  0.8655  4.0263
 2996SOL    HW213836   5.570   8.807   2.354 -0.3557  1.1802 -2.7642
 2997SOL     OW13837   8.941   9.315   5.998 -0.2437  0.5751 -0.2626
 2997SOL    HW113838   8.875   9.308   5.929 -2.8419  0.6069  2.0557
 2997SOL    HW213839   8.892   9.339   6.076  2.3397 -0.6944  1.9202
 2998SOL     OW13840   4.828   2.038   9.715  0.3770 -0.2784 -0.4549
 2998SOL    HW113841   4.826   1.964   9.655 -0.7674  0.8799 -1.9423
 2998SOL    HW213842   4.757   2.020   9.778  1.0193 -1.0858  0.0554
 2999SOL     OW13843   9.490   7.410   8.153  0.1363  0.0707 -0.7803
 2999SOL    HW113844   9.550   7.391   8.081 -0.4108 -0.4330 -1.1076
 2999SOL    HW213845   9.421   7.344   8.146 -1.2214  1.4837 -1.2719
 3000SOL     OW13846   8.154   0.465   5.036 -0.2034  0.6388 -0.1493
 3000SOL    HW113847   8.228   0.421   5.079 -0.8593  2.5106  3.2317
 3000SOL    HW213848   8.193   0.509   4.961  1.7534 -0.0256  0.4164
 3001SOL     OW13849   8.653   1.498   4.941 -0.4618  0.0444  0.1110
 3001SOL    HW113850   8.577   1.550   4.967 -0.8731 -0.6124  0.2221
 3001SOL    HW213851   8.678   1.451   5.021 -1.4987 -1.6972 -0.5371
 3002SOL     OW13852   1.344   9.100   5.532  0.0259 -0.0495  0.3654
 3002SOL    HW113853   1.379   9.083   5.619 -0.2116  1.5845  0.8109
 3002SOL    HW213854   1.381   9.031   5.477  2.1904  0.3181  1.2635
 3003SOL     OW13855   8.879   5.805   9.010 -0.3310  0.4229  0.2400
 3003SOL    HW113856   8.881   5.712   9.035  0.3095  0.2461 -0.4434
 3003SOL    HW213857   8.929   5.849   9.079 -2.1285  0.5301  1.5512
 3004SOL     OW13858   5.914   3.816   1.574 -0.0497 -0.1717 -0.3092
 3004SOL    HW113859   5.861   3.887   1.538 -0.0551 -0.7248 -1.4227
 3004SOL    HW213860   5.898   3.742   1.516 -0.3754 -1.2279  1.0743
 3005SOL     OW13861   6.010   6.392   8.203  0.2386  0.4055 -0.0133
 3005SOL    HW113862   6.000   6.325   8.271  0.5870 -0.2908 -0.6285
 3005SOL    HW213863   6.029   6.472   8.251  0.4129 -0.0611  0.7209
 3006SOL     OW13864   4.863   9.686   1.277 -1.0564  0.3909  0.3036
 3006SOL    HW113865   4.824   9.608   1.237 -1.7058  0.5174  0.6717
 3006SOL    HW213866   4.901   9.654   1.359 -0.2963  0.2495 -0.1047
 3007SOL     OW13867   1.846   5.151   4.325 -0.4748  0.3103  0.7120
 3007SOL    HW113868   1.756   5.152   4.293 -0.7646  1.4390  1.5040
 3007SOL    HW213869   1.898   5.184   4.252 -0.7955  0.4039  0.5246
 3008SOL     OW13870   3.687   0.743   8.277 -0.6084  0.1769 -0.0072
 3008SOL    HW113871   3.732   0.705   8.353  0.4229  1.9466  0.3221
 3008SOL    HW213872   3.671   0.834   8.302  0.2865  0.9749 -2.1031
 3009SOL     OW13873   4.834   1.851   4.825  0.5348 -0.3290 -0.4078
 3009SOL    HW113874   4.750   1.810   4.802  1.1922 -1.3271 -1.1043
 3009SOL    HW213875   4.878   1.866   4.742  0.5009  1.4562 -0.1371
 3010SOL     OW13876   9.021   2.622   1.366  0.3077  0.3849 -0.1693
 3010SOL    HW113877   8.959   2.561   1.325  0.3121 -0.3098  0.8253
 3010SOL    HW213878   9.069   2.660   1.292  0.2337 -0.7458 -0.8258
 3011SOL     OW13879   4.259   3.839   4.392 -0.4710 -0.5619 -0.0187
 3011SOL    HW113880   4.287   3.893   4.318  0.8227  1.3973  1.7961
 3011SOL    HW213881   4.329   3.774   4.402 -0.9782 -1.2641 -0.8826
 3012SOL     OW13882   0.837   9.065   9.118 -0.1569  0.1003  0.2619
 3012SOL    HW113883   0.920   9.018   9.109 -0.2209  0.2784 -1.9685
 3012SOL    HW213884   0.858   9.156   9.097 -1.1885 -0.1941 -2.4632
 3013SOL     OW13885   2.171   8.456   5.243  0.3417 -0.0213 -0.2581
 3013SOL    HW113886   2.250   8.476   5.193 -0.6084 -0.5577 -2.0796
 3013SOL    HW213887   2.112   8.530   5.225  0.6867  0.8106  1.7805
 3014SOL     OW13888   5.295   5.637   5.332 -0.1529 -0.0760 -0.0160
 3014SOL    HW113889   5.304   5.730   5.314  0.3835  0.2201  1.5881
 3014SOL    HW213890   5.246   5.633   5.414 -0.2019 -1.2178 -0.0784
 3015SOL     OW13891   1.990   5.362   4.738 -0.1961 -0.3716  0.5729
 3015SOL    HW113892   1.949   5.429   4.793  1.9489  1.6705 -0.0896
 3015SOL    HW213893   2.058   5.324   4.794  0.4124  0.0256  0.1273
 3016SOL     OW13894   6.952   1.749   6.132 -0.0285  0.8933  0.1108
 3016SOL    HW113895   6.879   1.801   6.100 -0.3499  1.4621  1.6470
 3016SOL    HW213896   7.026   1.772   6.075 -0.1708  3.0462  0.7085
 3017SOL     OW13897   4.259   8.650   8.888 -0.0589  0.3153  0.0239
 3017SOL    HW113898   4.321   8.617   8.954 -1.2314  0.5153  1.2681
 3017SOL    HW213899   4.292   8.737   8.867 -0.1629  0.6191  1.0464
 3018SOL     OW13900   8.025   5.761   6.090 -0.3117 -0.4314 -0.0378
 3018SOL    HW113901   8.077   5.806   6.157 -0.1473 -0.3256 -0.2351
 3018SOL    HW213902   7.990   5.831   6.036  1.6483 -0.5682 -1.6260
 3019SOL     OW13903   8.192   5.684   3.987 -0.2076 -0.9043 -0.2666
 3019SOL    HW113904   8.124   5.750   3.996 -2.5239 -3.3375  2.4197
 3019SOL    HW213905   8.262   5.712   4.047 -1.7620 -1.4203  1.9122
 3020SOL     OW13906   9.454   2.690   8.593  0.3283  0.4000 -0.5345
 3020SOL    HW113907   9.464   2.657   8.682  0.0639 -0.1748 -0.7126
 3020SOL    HW213908   9.517   2.640   8.542 -2.3626 -2.3872 -1.4455
 3021SOL     OW13909   6.951   8.258   5.399 -0.3481 -0.1534 -0.4671
 3021SOL    HW113910   6.881   8.206   5.360  0.2152  1.0216 -3.3014
 3021SOL    HW213911   6.919   8.348   5.395  0.5492  0.2020 -0.0007
 3022SOL     OW13912   3.694   5.205   8.724 -0.1910  0.1318  0.1443
 3022SOL    HW113913   3.729   5.255   8.650 -0.2043  1.2791  0.8883
 3022SOL    HW213914   3.681   5.270   8.793 -0.5798 -0.8453  1.0207
 3023SOL     OW13915   3.972   2.524   1.054 -0.5460  0.8696 -0.2627
 3023SOL    HW113916   3.982   2.522   0.959  2.5290 -1.0739  0.0008
 3023SOL    HW213917   3.917   2.448   1.074  3.1068 -2.0343 -0.2716
 3024SOL     OW13918   6.121   4.679   7.031  0.3510 -0.6933  0.0300
 3024SOL    HW113919   6.123   4.584   7.019  1.4647 -1.1107  2.7408
 3024SOL    HW213920   6.028   4.701   7.035  0.0775 -1.8982  0.6614
 3025SOL     OW13921   7.107   2.769   2.959 -0.8789  0.4229 -0.4310
 3025SOL    HW113922   7.093   2.793   2.867 -0.5762 -0.7267 -0.7922
 3025SOL    HW213923   7.076   2.679   2.965  1.5331 -0.4562 -0.0453
 3026SOL     OW13924   8.285   3.529   2.641 -0.0953  0.4159  0.4687
 3026SOL    HW113925   8.320   3.459   2.587  2.5680  0.3120  2.1660
 3026SOL    HW213926   8.246   3.484   2.716 -1.7192  0.6565 -0.1883
 3027SOL     OW13927   2.413   0.877   4.720 -0.2126  0.3276 -0.4385
 3027SOL    HW113928   2.464   0.953   4.691  0.8693 -0.6906 -1.3239
 3027SOL    HW213929   2.455   0.850   4.802 -0.4879  0.5679 -0.2150
 3028SOL     OW13930   4.017   0.003   7.310  0.2430  0.1568 -0.4421
 3028SOL    HW113931   4.042   0.009   7.218 -1.1422 -0.5484 -0.8937
 3028SOL    HW213932   4.086  -0.050   7.351 -0.5131 -1.8709 -1.6668
 3029SOL     OW13933   1.344   2.693   6.818 -0.5643  0.0696  0.4327
 3029SOL    HW113934   1.394   2.712   6.898 -0.6531 -0.0471  0.5164
 3029SOL    HW213935   1.379   2.753   6.753  0.6027 -0.8915  0.1351
 3030SOL     OW13936   4.876   6.468   0.343  0.3560  0.1279 -0.6535
 3030SOL    HW113937   4.838   6.507   0.264  0.6327  0.6332 -0.5390
 3030SOL    HW213938   4.968   6.494   0.341  0.0707  1.3451  0.5538
 3031SOL     OW13939   5.163   7.635   4.688 -0.2636 -0.3534 -0.0866
 3031SOL    HW113940   5.098   7.572   4.720  0.6288  0.0867  2.8488
 3031SOL    HW213941   5.128   7.721   4.712  0.7923 -0.0413  0.4141
 3032SOL     OW13942   3.169   3.707   0.975 -0.3893  0.0785 -0.2618
 3032SOL    HW113943   3.226   3.730   0.902 -0.1369  0.2717 -0.0066
 3032SOL    HW213944   3.229   3.686   1.047 -0.6366  1.0766  0.2525
 3033SOL     OW13945   4.697   2.963   6.839 -0.1695 -0.2286 -0.0413
 3033SOL    HW113946   4.729   2.929   6.923  0.9209 -1.4993 -0.9129
 3033SOL    HW213947   4.720   2.894   6.775 -0.9050  0.7257 -1.3877
 3034SOL     OW13948   8.510   6.269   3.627 -0.1274 -0.3373 -0.7188
 3034SOL    HW113949   8.427   6.227   3.649 -0.3191  0.2856 -0.1960
 3034SOL    HW213950   8.488   6.363   3.622  0.4625 -0.2079 -0.9648
 3035SOL     OW13951   5.018   5.253   5.856  0.3046  0.2522 -0.1657
 3035SOL    HW113952   4.937   5.304   5.865  0.7939  1.0065  0.0209
 3035SOL    HW213953   5.006   5.203   5.775 -0.6279 -0.1745  0.2153
 3036SOL     OW13954   2.614   1.639   3.265 -0.1511 -0.0681  0.3087
 3036SOL    HW113955   2.704   1.664   3.287  0.1787 -1.3543  0.4988
 3036SOL    HW213956   2.561   1.682   3.332  0.6477 -2.0709  2.3612
 3037SOL     OW13957   8.265   9.466   0.755  0.2110 -0.7083  0.4784
 3037SOL    HW113958   8.332   9.446   0.820  0.2343  0.9010  1.0040
 3037SOL    HW213959   8.296   9.424   0.675  1.6932 -0.2755  0.7932
 3038SOL     OW13960   6.267   3.287   5.537 -0.1204 -0.9474  0.0553
 3038SOL    HW113961   6.273   3.349   5.609  1.1978  0.4200 -1.1572
 3038SOL    HW213962   6.293   3.203   5.576  0.6745 -0.2246  1.1413
 3039SOL     OW13963   6.776   1.946   1.090 -0.2296 -0.2060  0.0356
 3039SOL    HW113964   6.852   1.952   1.031 -0.8076  0.9920 -0.6081
 3039SOL    HW213965   6.705   1.987   1.042 -0.5055  1.6971  1.9057
 3040SOL     OW13966   3.110   0.947   9.622 -0.0576 -0.1126 -0.3683
 3040SOL    HW113967   3.149   0.866   9.589  0.2518  0.0037 -0.2888
 3040SOL    HW213968   3.168   1.017   9.591  0.1141  0.0171  0.2250
 3041SOL     OW13969   1.301   9.197   2.453 -0.2529 -0.2571 -0.0188
 3041SOL    HW113970   1.252   9.115   2.461 -1.0074  0.1342 -0.6110
 3041SOL    HW213971   1.243   9.257   2.407  1.2602 -0.1874 -2.0014
 3042SOL     OW13972   8.950   0.962   6.514 -0.3635 -0.0131  0.6421
 3042SOL    HW113973   8.857   0.940   6.503 -0.1348 -1.4162  1.1916
 3042SOL    HW213974   8.950   1.052   6.545 -1.6148 -0.2772  1.5066
 3043SOL     OW13975   4.794   3.204   2.467  0.3457 -0.3772 -0.8050
 3043SOL    HW113976   4.812   3.296   2.484 -1.9078  0.1921 -1.2933
 3043SOL    HW213977   4.726   3.180   2.530  2.2501 -2.3385  0.7214
 3044SOL     OW13978   8.942   8.472   7.766  0.2270 -0.2294  0.3768
 3044SOL    HW113979   9.001   8.522   7.822  0.4043  0.4838 -0.4219
 3044SOL    HW213980   8.998   8.439   7.695 -0.5341  1.6345 -1.1652
 3045SOL     OW13981   1.889   4.233   1.453  0.2183 -0.3474 -0.0014
 3045SOL    HW113982   1.808   4.258   1.498  0.6127 -0.2709  0.6838
 3045SOL    HW213983   1.881   4.270   1.366  0.0966  0.8082  0.4906
 3046SOL     OW13984   9.458   4.600   4.897 -0.4322  0.5272 -0.9740
 3046SOL    HW113985   9.535   4.594   4.953 -1.8471  0.4607  1.1106
 3046SOL    HW213986   9.466   4.527   4.837  2.5013  2.1483 -2.8049
 3047SOL     OW13987   1.997   5.137   6.674 -0.3373 -0.0508 -0.5509
 3047SOL    HW113988   1.968   5.226   6.653 -0.6791  0.0449  0.2848
 3047SOL    HW213989   2.047   5.147   6.755  0.3403 -0.5100 -0.9023
 3048SOL     OW13990   0.875   6.070   6.044 -0.2675  0.0541  0.3526
 3048SOL    HW113991   0.851   6.161   6.061 -1.2048 -0.4331  1.8572
 3048SOL    HW213992   0.804   6.037   5.989 -0.5316 -0.0685  0.7621
 3049SOL     OW13993   7.722   0.277   4.968  0.5436 -0.5198  0.4091
 3049SOL    HW113994   7.772   0.353   4.999  0.1171 -0.2085  0.3335
 3049SOL    HW213995   7.633   0.310   4.956  0.0979 -1.2849  1.4361
 3050SOL     OW13996   7.642   3.447   7.077  0.3784 -0.3024 -0.1643
 3050SOL    HW113997   7.622   3.377   7.139 -0.6128  0.2393  0.1467
 3050SOL    HW213998   7.569   3.446   7.015  0.3556  0.4500 -0.1628
 3051SOL     OW13999   1.299   3.098   4.555  0.0890 -0.3318 -0.1956
 3051SOL    HW114000   1.352   3.018   4.562 -1.0500 -0.9505  2.7582
 3051SOL    HW214001   1.210   3.067   4.543 -0.5834  0.3176  2.4413
 3052SOL     OW14002   4.618   8.834   1.968  0.2538  0.2426  0.0408
 3052SOL    HW114003   4.587   8.748   1.939  0.8881 -0.4023  1.1988
 3052SOL    HW214004   4.608   8.833   2.063 -0.5109  1.7926  0.0154
 3053SOL     OW14005   4.594   7.558   1.542  0.2321 -0.4233 -0.3092
 3053SOL    HW114006   4.509   7.601   1.532 -0.1264 -1.0188  0.1164
 3053SOL    HW214007   4.585   7.507   1.623  1.6484  1.0601  0.8576
 3054SOL     OW14008   0.418   2.529   0.320  0.6007 -0.1121  0.2372
 3054SOL    HW114009   0.413   2.437   0.294  0.3143 -0.2003  0.5983
 3054SOL    HW214010   0.505   2.558   0.291  1.1371 -0.7963  1.1022
 3055SOL     OW14011   5.671   8.746   8.613 -0.3329 -0.0685 -0.5223
 3055SOL    HW114012   5.650   8.671   8.670 -1.9092  0.4831 -0.3157
 3055SOL    HW214013   5.670   8.821   8.672 -0.0334  0.2693 -0.9475
 3056SOL     OW14014   8.567   0.704   6.133  0.6638 -0.1448  0.3777
 3056SOL    HW114015   8.514   0.683   6.210  1.4626 -1.8965  0.4986
 3056SOL    HW214016   8.654   0.722   6.168  0.4838  1.5100  0.0711
 3057SOL     OW14017   7.735   0.557   0.312 -0.4729 -0.7748 -0.2166
 3057SOL    HW114018   7.798   0.606   0.259  0.0064 -0.1875  0.8652
 3057SOL    HW214019   7.713   0.481   0.259 -1.2105  0.5585 -1.9523
 3058SOL     OW14020   7.233   6.361   8.698 -0.0668 -0.6085  0.1068
 3058SOL    HW114021   7.203   6.278   8.661 -0.5882 -0.2466 -0.2868
 3058SOL    HW214022   7.324   6.369   8.667 -0.3406 -0.5403 -0.6958
 3059SOL     OW14023   6.719   0.855   2.109  0.0054 -0.1479  0.0759
 3059SOL    HW114024   6.702   0.886   2.198  0.0989 -1.4549  0.5743
 3059SOL    HW214025   6.678   0.769   2.106  2.3436 -1.3324 -0.2248
 3060SOL     OW14026   9.682   3.284   9.057 -0.6391 -0.0799 -0.0313
 3060SOL    HW114027   9.761   3.246   9.017 -1.8142 -2.5642 -0.1946
 3060SOL    HW214028   9.627   3.309   8.984 -0.5961  0.3706  0.0854
 3061SOL     OW14029   3.114   3.198   7.833 -0.4051  1.0970 -0.3762
 3061SOL    HW114030   3.072   3.257   7.895 -0.7996  1.3378 -0.8620
 3061SOL    HW214031   3.202   3.185   7.868  0.4035  3.5331 -1.2195
 3062SOL     OW14032   6.325   1.314   0.905 -0.1016  0.3789  0.0148
 3062SOL    HW114033   6.417   1.338   0.893  0.5727 -1.8507  0.1880
 3062SOL    HW214034   6.329   1.233   0.956 -2.2252  0.7743  0.8819
 3063SOL     OW14035   1.776   0.406   7.491  0.0416  0.0569 -0.2682
 3063SOL    HW114036   1.850   0.345   7.485 -0.0232 -0.0939  0.3761
 3063SOL    HW214037   1.770   0.446   7.404  1.0719  0.2833 -0.2505
 3064SOL     OW14038   1.809   0.042   3.580  0.4482  0.7135  0.2464
 3064SOL    HW114039   1.848   0.129   3.577  1.5427  0.2189 -1.7213
 3064SOL    HW214040   1.881  -0.016   3.607 -0.0190  0.3013  0.6276
 3065SOL     OW14041   7.186   5.543   4.347 -0.3808  0.2787 -0.3441
 3065SOL    HW114042   7.108   5.516   4.299 -0.1940  2.5137 -2.0987
 3065SOL    HW214043   7.256   5.488   4.312 -0.6962  0.2014 -0.8684
 3066SOL     OW14044   7.408   2.132   9.334  0.6032 -0.5341 -0.5039
 3066SOL    HW114045   7.474   2.189   9.374 -1.1294  0.5839  0.9380
 3066SOL    HW214046   7.391   2.064   9.399 -0.8389  0.1686 -0.1016
 3067SOL     OW14047   2.765   8.636   8.068  0.3601  0.3093 -0.2795
 3067SOL    HW114048   2.680   8.606   8.037 -0.5473  2.2980  0.0878
 3067SOL    HW214049   2.826   8.565   8.046 -1.5774 -1.7306  0.6200
 3068SOL     OW14050   6.732   7.252   8.267  0.5839  0.3101  0.8282
 3068SOL    HW114051   6.821   7.263   8.302  0.4096  0.8861  1.1029
 3068SOL    HW214052   6.678   7.235   8.344  0.6419 -1.3756  0.5413
 3069SOL     OW14053   3.389   7.986   3.782 -0.2549 -0.0888 -0.0463
 3069SOL    HW114054   3.394   7.947   3.869  0.5648  0.9479  0.3900
 3069SOL    HW214055   3.479   7.984   3.749 -0.4036  0.3532 -0.4978
 3070SOL     OW14056   3.556   5.351   5.980 -0.6766 -0.2346 -0.1614
 3070SOL    HW114057   3.598   5.358   6.066  0.3103 -2.6159 -0.3764
 3070SOL    HW214058   3.481   5.410   5.986  1.4124  2.5287  0.9873
 3071SOL     OW14059   0.215   5.987   2.829 -0.2596 -0.3121  0.2118
 3071SOL    HW114060   0.305   5.968   2.804 -0.3105 -0.2871  0.0089
 3071SOL    HW214061   0.210   6.082   2.833 -0.7633 -0.2147 -1.6310
 3072SOL     OW14062   7.482   4.952   5.955  0.4243  0.0860 -0.6996
 3072SOL    HW114063   7.512   4.867   5.924  1.1499 -0.2839  0.9309
 3072SOL    HW214064   7.450   4.936   6.044  0.4389  1.4851 -0.4074
 3073SOL     OW14065   4.128   7.389   3.985 -1.1469 -0.0314  0.2974
 3073SOL    HW114066   4.177   7.463   4.018  1.7181 -0.3226 -2.7830
 3073SOL    HW214067   4.065   7.426   3.923  1.3268 -0.0805 -2.4225
 3074SOL     OW14068   1.441   0.577   7.850 -0.1260 -0.1185  0.2619
 3074SOL    HW114069   1.523   0.571   7.801 -0.2581  1.0081 -0.1168
 3074SOL    HW214070   1.404   0.489   7.846  0.6909 -0.4511 -0.2118
 3075SOL     OW14071   2.745   8.390   5.739 -0.0677 -0.2319 -0.3551
 3075SOL    HW114072   2.816   8.380   5.677  0.5077  0.7729  0.1093
 3075SOL    HW214073   2.694   8.464   5.706  1.1083  1.3239  1.1052
 3076SOL     OW14074   1.893   8.334   5.629 -0.0923  0.4017 -0.1284
 3076SOL    HW114075   1.954   8.317   5.558 -0.2443 -0.3396 -0.0807
 3076SOL    HW214076   1.855   8.249   5.651 -0.0182  0.6081  0.8642
 3077SOL     OW14077   1.334   9.105   7.424 -0.0846  0.2177  0.0595
 3077SOL    HW114078   1.242   9.086   7.439  0.2888 -1.8137 -0.0477
 3077SOL    HW214079   1.358   9.164   7.496 -0.8741 -1.1668  1.5119
 3078SOL     OW14080   4.589   1.308   8.518  0.2459  0.7453  0.4229
 3078SOL    HW114081   4.558   1.249   8.586  0.4423 -0.7389 -0.7360
 3078SOL    HW214082   4.666   1.264   8.481  0.7490  1.9968 -0.0870
 3079SOL     OW14083   7.996   2.647   6.355 -0.4791  0.1487 -0.1509
 3079SOL    HW114084   8.065   2.623   6.294 -0.1197  0.2740  0.1993
 3079SOL    HW214085   7.958   2.563   6.383 -0.2347  0.0635 -0.0762
 3080SOL     OW14086   5.289   7.345   2.382 -0.0078 -0.0562 -0.4852
 3080SOL    HW114087   5.293   7.433   2.420  1.9217  0.8654 -2.5870
 3080SOL    HW214088   5.352   7.294   2.432  4.2697  1.7320 -3.4270
 3081SOL     OW14089   6.377   2.513   2.194  1.0971  0.1851  0.8519
 3081SOL    HW114090   6.306   2.471   2.145  0.4794  1.3320  0.7436
 3081SOL    HW214091   6.336   2.548   2.273  1.4255  1.2816  0.5578
 3082SOL     OW14092   2.820   7.985   5.174  0.3734  0.0791 -0.4250
 3082SOL    HW114093   2.817   7.905   5.122 -0.8024 -0.0792 -0.1457
 3082SOL    HW214094   2.820   8.056   5.109 -3.0028 -0.0519 -0.7482
 3083SOL     OW14095   1.823   5.215   6.110  0.5275 -0.3859 -0.6812
 3083SOL    HW114096   1.890   5.266   6.064 -0.9624  0.5637 -1.8993
 3083SOL    HW214097   1.827   5.246   6.200  1.0995  0.3245 -0.9392
 3084SOL     OW14098   5.494   0.984   1.805  0.3556 -0.0221  0.5394
 3084SOL    HW114099   5.455   0.909   1.850 -0.8898  0.6352  0.5880
 3084SOL    HW214100   5.490   0.961   1.713 -1.6697  0.6958  0.4091
 3085SOL     OW14101   7.849   2.531   2.244 -0.6442 -0.5871 -0.0321
 3085SOL    HW114102   7.787   2.584   2.295 -1.9177 -1.0173 -1.0564
 3085SOL    HW214103   7.891   2.593   2.185  1.8436  0.1685  2.3175
 3086SOL     OW14104   3.319   2.587   2.166 -0.0963 -0.3318  0.0521
 3086SOL    HW114105   3.353   2.615   2.081 -0.0327  2.3407  0.8648
 3086SOL    HW214106   3.226   2.612   2.164 -0.1286 -0.3847  0.7037
 3087SOL     OW14107   1.740   4.761   1.053 -0.2970  0.4275 -0.0893
 3087SOL    HW114108   1.687   4.710   1.114  2.0454 -0.3046  1.4257
 3087SOL    HW214109   1.680   4.830   1.023 -2.0455 -0.2151  1.6737
 3088SOL     OW14110   4.906   7.354   7.579 -0.5826 -0.0895  0.3558
 3088SOL    HW114111   4.869   7.314   7.657  1.7036  1.9206  2.6263
 3088SOL    HW214112   4.856   7.434   7.566  0.1241  0.4255  0.7853
 3089SOL     OW14113   4.655   7.944   2.273 -0.2621  0.1499  0.3281
 3089SOL    HW114114   4.740   7.985   2.258  1.3572 -2.2446  2.2971
 3089SOL    HW214115   4.635   7.961   2.364 -1.8500  0.5234 -0.0622
 3090SOL     OW14116   7.460   0.731   3.049 -0.7301  0.1213 -0.9550
 3090SOL    HW114117   7.419   0.686   3.122 -0.0033 -1.3202 -1.3873
 3090SOL    HW214118   7.410   0.812   3.038 -1.2080  0.0798  0.7372
 3091SOL     OW14119   0.125   6.053   1.517  0.1753 -0.2513 -0.3775
 3091SOL    HW114120   0.103   5.962   1.534  1.2995 -0.2617  1.1391
 3091SOL    HW214121   0.177   6.081   1.592 -0.2429  1.6872 -0.7342
 3092SOL     OW14122   8.080   1.777   0.547  0.2201 -0.1643  0.0168
 3092SOL    HW114123   8.134   1.845   0.588  2.3612 -1.4896 -0.4519
 3092SOL    HW214124   7.993   1.789   0.586  0.5683  2.6437  0.1176
 3093SOL     OW14125   1.078   7.883   1.103  0.7558  0.1032  0.1830
 3093SOL    HW114126   1.111   7.902   1.191 -0.3084 -0.4029  0.7079
 3093SOL    HW214127   1.100   7.791   1.088 -1.4745 -0.6456  1.0785
 3094SOL     OW14128   8.494   2.172   6.018  0.4398  0.1937 -0.0813
 3094SOL    HW114129   8.404   2.204   6.008  1.0455  1.4048 -2.2189
 3094SOL    HW214130   8.502   2.153   6.112 -2.3679 -1.0148  0.0405
 3095SOL     OW14131   0.495   1.773   7.486 -0.5117 -0.1729  0.5442
 3095SOL    HW114132   0.534   1.845   7.436 -1.3539 -0.9011 -1.2183
 3095SOL    HW214133   0.529   1.785   7.575  1.4436  0.8745 -0.2848
 3096SOL     OW14134   2.825   8.622   3.215  0.0967 -0.5311 -0.3273
 3096SOL    HW114135   2.824   8.692   3.149 -0.9704 -1.1807 -1.0435
 3096SOL    HW214136   2.905   8.573   3.198  0.9819  0.6447  0.3419
 3097SOL     OW14137   1.685   5.483   2.367 -0.1278  0.1078 -0.3526
 3097SOL    HW114138   1.692   5.428   2.445  1.0265  1.9626  0.9219
 3097SOL    HW214139   1.614   5.443   2.315 -1.9080 -0.4004  2.2906
 3098SOL     OW14140   6.277   5.582   0.554  0.1468 -0.2949 -0.0538
 3098SOL    HW114141   6.326   5.504   0.528  1.0933  0.5246 -0.8120
 3098SOL    HW214142   6.205   5.588   0.491  0.1394 -0.4976 -0.0636
 3099SOL     OW14143   8.891   1.301   9.625 -0.1486  0.0569  0.4529
 3099SOL    HW114144   8.837   1.374   9.595  0.5149  0.5412  0.4099
 3099SOL    HW214145   8.881   1.235   9.557 -1.8646 -0.4766  1.1683
 3100SOL     OW14146   4.765   2.661   2.330 -0.0610  0.6095 -0.0700
 3100SOL    HW114147   4.856   2.639   2.312 -0.3587 -0.3844 -0.4382
 3100SOL    HW214148   4.742   2.724   2.262  0.1104  0.2164 -0.4977
 3101SOL     OW14149   3.107   0.284   2.343 -0.5132 -0.6892  0.4210
 3101SOL    HW114150   3.157   0.294   2.424 -0.3900 -0.6108  0.3343
 3101SOL    HW214151   3.042   0.354   2.346 -0.8742 -1.0290  0.7222
 3102SOL     OW14152   6.188   4.333   1.959 -0.2867 -0.5351 -0.4819
 3102SOL    HW114153   6.168   4.283   1.880  0.1172  0.7429 -1.4330
 3102SOL    HW214154   6.116   4.395   1.967 -0.3372 -0.6750  0.1770
 3103SOL     OW14155   9.523   6.654   3.928 -0.1800  0.0794 -0.4278
 3103SOL    HW114156   9.452   6.618   3.981 -0.2847 -0.5407 -0.9821
 3103SOL    HW214157   9.517   6.749   3.942  0.7018 -0.1103  1.8074
 3104SOL     OW14158   2.471   6.835   3.520  0.1391  0.1513  0.1895
 3104SOL    HW114159   2.377   6.851   3.508  0.2050  0.1191 -0.4037
 3104SOL    HW214160   2.493   6.769   3.454  0.8163  1.0357 -0.4993
 3105SOL     OW14161   0.296   7.231   0.566 -0.7025  0.0336 -0.0153
 3105SOL    HW114162   0.288   7.294   0.495 -2.3169  1.7262  1.5247
 3105SOL    HW214163   0.241   7.158   0.540 -1.1959  0.5865 -0.5578
 3106SOL     OW14164   3.570   2.410   0.282 -0.0109 -0.0007  0.4358
 3106SOL    HW114165   3.497   2.350   0.262  0.7398 -0.7838 -0.0133
 3106SOL    HW214166   3.560   2.430   0.375 -1.7372  1.1940  0.0434
 3107SOL     OW14167   5.633   3.041   5.015 -0.2912 -0.4505  0.0423
 3107SOL    HW114168   5.572   3.057   4.943 -3.1524  0.0651  2.3768
 3107SOL    HW214169   5.657   2.949   5.006 -0.7409 -0.4571 -1.4293
 3108SOL     OW14170   3.401   6.616   4.182  0.6143  0.1374 -0.1002
 3108SOL    HW114171   3.484   6.638   4.224 -0.4577 -0.9543  2.7959
 3108SOL    HW214172   3.380   6.693   4.130  3.1337  0.6595 -0.4750
 3109SOL     OW14173   5.798   3.114   8.256 -0.3970 -0.2632 -0.1895
 3109SOL    HW114174   5.822   3.067   8.177 -2.5258 -0.7723 -0.6185
 3109SOL    HW214175   5.783   3.204   8.228  0.4574 -0.0704 -0.0310
 3110SOL     OW14176   5.971   8.450   8.042 -0.2093 -0.2803  0.1480
 3110SOL    HW114177   5.980   8.506   7.965  0.2770 -1.9898 -1.1036
 3110SOL    HW214178   5.883   8.468   8.075 -0.5324  0.2780 -0.9671
 3111SOL     OW14179   8.786   5.446   0.025  0.1736 -0.2996 -0.2455
 3111SOL    HW114180   8.859   5.421  -0.031  0.5048 -0.8143  0.3993
 3111SOL    HW214181   8.777   5.541   0.013 -0.0118 -0.4492 -1.4469
 3112SOL     OW14182   6.082   9.434   2.228 -0.7348 -0.2887  0.3819
 3112SOL    HW114183   6.106   9.444   2.320  0.9595  0.5479 -0.1086
 3112SOL    HW214184   6.142   9.368   2.194  0.8098  1.6015 -0.7927
 3113SOL     OW14185   6.518   1.594   2.035 -0.0552 -0.5960  0.4891
 3113SOL    HW114186   6.429   1.610   2.004 -0.2089  0.4287  1.3892
 3113SOL    HW214187   6.565   1.561   1.959 -0.5177  1.4018 -0.7355
 3114SOL     OW14188   6.179   5.928   7.362  0.4999  0.4037 -0.1139
 3114SOL    HW114189   6.139   5.890   7.283  1.8955  0.9109 -1.1156
 3114SOL    HW214190   6.216   5.854   7.409  1.0275  0.2452 -0.7632
 3115SOL     OW14191   2.880   3.132   8.677  0.1068  0.0666 -0.2758
 3115SOL    HW114192   2.806   3.118   8.737 -1.0205  1.4840 -1.2736
 3115SOL    HW214193   2.957   3.120   8.732 -0.8709 -0.4235  1.0486
 3116SOL     OW14194   0.498   3.916   3.145 -0.3522 -0.2779  0.1666
 3116SOL    HW114195   0.468   3.827   3.161  0.8766 -0.5247  1.2849
 3116SOL    HW214196   0.553   3.937   3.220 -0.2970  1.2895 -0.2663
 3117SOL     OW14197   6.103   9.268   9.718 -0.2381 -0.2040 -0.3838
 3117SOL    HW114198   6.019   9.279   9.674 -0.7537 -2.0535  0.0446
 3117SOL    HW214199   6.082   9.275   9.811  0.3549  0.7871 -0.3092
 3118SOL     OW14200   3.894   2.182   3.968 -0.2856  0.0337  0.1001
 3118SOL    HW114201   3.844   2.260   3.941 -1.8074  0.0358  2.6282
 3118SOL    HW214202   3.980   2.217   3.994 -0.2134  0.5480 -0.7746
 3119SOL     OW14203   6.031   1.656   4.665  0.2635  0.4197 -0.6447
 3119SOL    HW114204   6.041   1.683   4.757 -0.6529 -3.3594  0.7478
 3119SOL    HW214205   5.936   1.649   4.652  0.3858  0.7818 -1.8609
 3120SOL     OW14206   3.337   3.901   4.693  0.6311 -0.1463  0.1461
 3120SOL    HW114207   3.380   3.980   4.659  1.9347 -1.5188 -1.5726
 3120SOL    HW214208   3.263   3.887   4.634  0.1559  0.0116  0.7009
 3121SOL     OW14209   3.204   2.036   6.717  0.1923 -0.7368  0.7372
 3121SOL    HW114210   3.284   1.983   6.726  0.2277 -1.0528 -1.1255
 3121SOL    HW214211   3.180   2.027   6.625 -0.0993  2.0630  0.4725
 3122SOL     OW14212   1.800   0.260   4.678  0.1605 -0.4139 -0.1596
 3122SOL    HW114213   1.749   0.341   4.684  1.6563  0.5413  0.5439
 3122SOL    HW214214   1.891   0.289   4.690  0.7254 -2.2222  0.2556
 3123SOL     OW14215   4.683   7.010   1.554 -0.1830 -0.2382 -0.0305
 3123SOL    HW114216   4.626   6.935   1.539 -0.2690 -0.1227 -0.3053
 3123SOL    HW214217   4.713   7.001   1.644  2.1189 -2.1764 -0.9066
 3124SOL     OW14218   0.011   2.635   5.110  0.0498  0.4109  0.0079
 3124SOL    HW114219   0.096   2.597   5.131  0.0105  0.9503  1.2760
 3124SOL    HW214220   0.001   2.623   5.016 -0.3566 -3.4491  0.3955
 3125SOL     OW14221   0.160   5.042   2.482 -0.0458  0.3890  0.1282
 3125SOL    HW114222   0.209   5.125   2.479  0.8185 -0.1327 -0.4374
 3125SOL    HW214223   0.177   5.008   2.569 -2.4698  1.9976  1.3564
 3126SOL     OW14224   2.667   3.404   6.966 -0.4663  0.1028 -0.2563
 3126SOL    HW114225   2.732   3.381   7.032 -2.2004 -0.9377  1.2056
 3126SOL    HW214226   2.696   3.359   6.887  1.1932  0.6425  0.0146
 3127SOL     OW14227   6.197   2.364   2.647 -0.3957 -0.2081 -0.1319
 3127SOL    HW114228   6.261   2.293   2.653 -0.9882 -0.6477  1.7645
 3127SOL    HW214229   6.112   2.321   2.657 -0.7070  0.8424  3.1527
 3128SOL     OW14230   7.425   0.451   6.329 -0.3644 -0.3089  0.4113
 3128SOL    HW114231   7.399   0.436   6.238  0.4281  0.8709 -0.0402
 3128SOL    HW214232   7.388   0.537   6.351 -0.7792 -0.7056  1.2980
 3129SOL     OW14233   8.419   2.014   0.890 -0.5220  0.4091 -0.2642
 3129SOL    HW114234   8.434   2.099   0.850  0.8776  1.1263  1.6280
 3129SOL    HW214235   8.353   2.030   0.958  0.4060  0.2190  0.7135
 3130SOL     OW14236   1.840   4.016   8.943  0.2315 -0.0854 -0.2457
 3130SOL    HW114237   1.758   4.053   8.978  0.2626  0.1474 -0.4142
 3130SOL    HW214238   1.836   4.034   8.849  0.8578  0.6851 -0.1384
 3131SOL     OW14239   0.509   7.140   0.140  0.2589  1.2086  0.2448
 3131SOL    HW114240   0.484   7.227   0.110  1.3778  1.3625 -0.2808
 3131SOL    HW214241   0.558   7.102   0.067 -1.5132 -0.4946 -0.1710
 3132SOL     OW14242   0.814   5.200   4.835 -0.6123  0.2814  0.0916
 3132SOL    HW114243   0.814   5.151   4.753 -0.8999  1.6017 -0.7411
 3132SOL    HW214244   0.866   5.147   4.896 -0.9552 -1.0462 -0.7337
 3133SOL     OW14245   0.036   6.440   5.153 -0.1097 -0.0452  0.0511
 3133SOL    HW114246   0.049   6.522   5.107  0.0237  0.2358  0.5802
 3133SOL    HW214247   0.001   6.380   5.087  2.6009 -0.4612 -1.1139
 3134SOL     OW14248   3.930   8.303   2.398 -0.0107  0.9650 -0.3411
 3134SOL    HW114249   3.962   8.275   2.312  1.6043  0.1501  0.4821
 3134SOL    HW214250   4.006   8.342   2.440 -0.4518  0.2205  1.1933
 3135SOL     OW14251   8.520   4.811   4.988  0.4214 -0.1324 -0.2128
 3135SOL    HW114252   8.439   4.861   5.000  1.0487  1.0504 -0.6555
 3135SOL    HW214253   8.496   4.721   5.008 -0.7415  0.3548  0.7143
 3136SOL     OW14254   3.024   8.945   3.239  0.0899 -0.0517  0.6662
 3136SOL    HW114255   3.050   8.895   3.161 -0.2232 -0.7243  0.9859
 3136SOL    HW214256   2.929   8.935   3.242 -0.3235  2.6828 -0.6967
 3137SOL     OW14257   7.718   5.433   3.938 -0.3027  0.0137 -0.1868
 3137SOL    HW114258   7.714   5.525   3.964  0.9657 -0.5196  2.1791
 3137SOL    HW214259   7.627   5.406   3.932 -0.7733  1.7617 -2.5238
 3138SOL     OW14260   5.703   0.335   7.080  0.6741 -0.2357 -0.6096
 3138SOL    HW114261   5.623   0.375   7.116  0.0097  0.0774 -2.3676
 3138SOL    HW214262   5.711   0.252   7.128 -1.2229 -0.7005 -1.0016
 3139SOL     OW14263   4.484   8.025   4.367 -0.0560  0.6371 -0.0476
 3139SOL    HW114264   4.504   7.943   4.412 -1.2860 -0.1028 -0.7820
 3139SOL    HW214265   4.569   8.067   4.354  0.5700 -0.4162  0.5528
 3140SOL     OW14266   2.570   4.000   5.389 -0.4108 -0.4599  0.1811
 3140SOL    HW114267   2.663   4.012   5.409 -0.6197 -0.7006  1.3606
 3140SOL    HW214268   2.562   3.908   5.364 -0.2742 -0.3491 -0.2742
 3141SOL     OW14269   2.028   9.419   4.057  0.1714 -0.1009  0.4180
 3141SOL    HW114270   2.053   9.477   4.129  2.1893  0.3905 -0.5970
 3141SOL    HW214271   2.055   9.466   3.978 -1.1662 -1.0117 -0.6258
 3142SOL     OW14272   6.926   0.101   6.978  0.1116 -0.4322  0.1559
 3142SOL    HW114273   6.881   0.098   7.062  1.0542 -1.3154  0.6322
 3142SOL    HW214274   6.895   0.023   6.931 -2.1968  1.1991 -1.2961
 3143SOL     OW14275   7.287   0.256   9.223  0.0436  0.6575 -0.2937
 3143SOL    HW114276   7.252   0.208   9.298 -0.8056  1.7127  0.0051
 3143SOL    HW214277   7.382   0.257   9.238 -0.1904  1.8608  1.4073
 3144SOL     OW14278   9.530   0.053   9.125 -0.3870  0.8057 -0.0192
 3144SOL    HW114279   9.565   0.137   9.155  2.2332 -0.4652  0.7206
 3144SOL    HW214280   9.594   0.021   9.062  0.5009 -2.0850  2.1215
 3145SOL     OW14281   1.200   1.997   0.084 -0.1180 -0.4192  0.0189
 3145SOL    HW114282   1.267   1.929   0.086  1.4768  1.0216  2.2242
 3145SOL    HW214283   1.230   2.061   0.149 -2.0386  1.8812 -1.1845
 3146SOL     OW14284   8.804   7.102   5.402  0.3289  0.1127 -0.1426
 3146SOL    HW114285   8.836   7.014   5.421  0.5638  0.0120 -0.9755
 3146SOL    HW214286   8.749   7.124   5.477 -0.1990 -0.9627 -0.1918
 3147SOL     OW14287   2.922   6.447   4.498  0.0811  0.7216  0.1840
 3147SOL    HW114288   2.841   6.403   4.470 -0.1650  0.8921  0.6130
 3147SOL    HW214289   2.892   6.531   4.534  0.4500  0.7955  0.3213
 3148SOL     OW14290   4.610   3.206   9.370 -0.3248 -0.2533  0.3600
 3148SOL    HW114291   4.651   3.120   9.379 -1.4818 -0.8913 -0.2308
 3148SOL    HW214292   4.545   3.194   9.300 -1.5526  0.6961  1.3005
 3149SOL     OW14293   5.952   7.308   9.399  0.2271  0.1726 -0.1882
 3149SOL    HW114294   6.026   7.359   9.434 -2.1228  2.9110  1.1826
 3149SOL    HW214295   5.908   7.367   9.339 -0.9177 -1.4045 -0.9726
 3150SOL     OW14296   1.461   4.995   6.859 -0.0515 -0.0879 -0.2039
 3150SOL    HW114297   1.551   4.966   6.873  0.1211 -0.1967 -1.3938
 3150SOL    HW214298   1.407   4.917   6.875  0.0781 -0.0689  0.3310
 3151SOL     OW14299   1.177   2.206   8.263  0.4193  0.2751  0.3737
 3151SOL    HW114300   1.110   2.260   8.221  0.9458  1.4963  1.0502
 3151SOL    HW214301   1.256   2.259   8.259  1.4505 -1.2344 -0.6193
 3152SOL     OW14302   0.773   2.948   7.404 -0.4471 -0.1881  0.2114
 3152SOL    HW114303   0.834   2.930   7.332 -0.8243 -0.8884  0.0556
 3152SOL    HW214304   0.692   2.975   7.362 -0.6228 -0.4522  0.3701
 3153SOL     OW14305   0.250   8.755   6.315 -0.0082 -0.7526  0.1754
 3153SOL    HW114306   0.220   8.814   6.247 -0.7198 -1.4222 -0.1044
 3153SOL    HW214307   0.217   8.793   6.397 -0.0563 -0.5208  0.0481
 3154SOL     OW14308   4.085   0.469   4.114  0.6420 -0.3593 -0.0687
 3154SOL    HW114309   4.036   0.536   4.068  0.8945 -2.0094 -3.0265
 3154SOL    HW214310   4.024   0.432   4.177 -0.5520  0.4470 -0.7273
 3155SOL     OW14311   1.248   7.891   8.663  0.0224  0.0688  0.2965
 3155SOL    HW114312   1.302   7.943   8.721 -1.8504  1.2539  1.0663
 3155SOL    HW214313   1.205   7.828   8.721 -0.5163  0.0986 -0.0619
 3156SOL     OW14314   1.821   7.737   3.577 -0.4958 -0.2998 -0.0170
 3156SOL    HW114315   1.803   7.646   3.599 -1.6737 -0.3737 -1.1588
 3156SOL    HW214316   1.813   7.784   3.661 -1.7144 -0.9912  0.2774
 3157SOL     OW14317   3.794   8.182   4.929 -0.3631  0.5262 -0.1570
 3157SOL    HW114318   3.843   8.157   5.008 -0.1764  2.8347  0.5519
 3157SOL    HW214319   3.708   8.143   4.941 -0.4251  1.0405  1.3705
 3158SOL     OW14320   5.432   6.068   4.562 -0.3351  0.2406 -0.2932
 3158SOL    HW114321   5.489   6.045   4.634 -0.0693  3.0221  0.4906
 3158SOL    HW214322   5.356   6.011   4.572  0.4440 -0.5858  1.1581
 3159SOL     OW14323   4.896   9.496   4.605  0.0940 -0.2994 -0.1533
 3159SOL    HW114324   4.941   9.561   4.658  1.7504 -0.7812 -0.9237
 3159SOL    HW214325   4.849   9.548   4.539  0.0418  0.1765  0.2487
 3160SOL     OW14326   3.530   4.442   1.958  0.4920  0.3785 -0.1229
 3160SOL    HW114327   3.582   4.367   1.986 -3.0626 -1.8959  1.1211
 3160SOL    HW214328   3.564   4.463   1.871  3.2194 -1.0401  0.4742
 3161SOL     OW14329   3.806   5.352   7.143 -0.2471 -0.4402 -0.2040
 3161SOL    HW114330   3.713   5.333   7.140  0.0003 -2.2017  1.0711
 3161SOL    HW214331   3.812   5.443   7.173 -1.5840 -1.0348  2.1560
 3162SOL     OW14332   9.659   5.095   2.059  0.2896  0.6405 -0.0875
 3162SOL    HW114333   9.573   5.074   2.022  0.1212 -1.6587  1.3799
 3162SOL    HW214334   9.641   5.159   2.128 -0.0983  0.9984 -0.5236
 3163SOL     OW14335   1.791   8.355   6.929 -0.3801  0.3247  0.0773
 3163SOL    HW114336   1.800   8.362   7.025 -1.8943  1.3234  0.1794
 3163SOL    HW214337   1.863   8.408   6.895 -0.1507  0.4024  0.6625
 3164SOL     OW14338   2.235   3.001   8.931  0.4865 -0.0953  0.7118
 3164SOL    HW114339   2.295   3.029   9.000  2.0233 -0.7801 -0.2986
 3164SOL    HW214340   2.229   2.906   8.941  0.8929 -0.2257 -0.2268
 3165SOL     OW14341   3.694   6.031   5.469 -0.4412 -0.3729  0.1673
 3165SOL    HW114342   3.613   6.082   5.467 -1.4777 -1.9160  1.2303
 3165SOL    HW214343   3.759   6.089   5.430 -1.3519  2.1066  2.0772
 3166SOL     OW14344   9.011   6.794   6.525  0.8246 -0.5532 -0.3445
 3166SOL    HW114345   8.933   6.774   6.472  0.9296 -1.2128 -0.2562
 3166SOL    HW214346   9.009   6.730   6.596  0.2450  0.8433  0.9287
 3167SOL     OW14347   0.020   0.276   8.176 -0.7282 -0.1000 -0.0961
 3167SOL    HW114348   0.080   0.269   8.250 -1.5491  2.1937  0.8771
 3167SOL    HW214349   0.076   0.290   8.100  0.0434  1.1149  0.6647
 3168SOL     OW14350   7.709   2.319   6.138  0.0233 -0.6467  0.3664
 3168SOL    HW114351   7.714   2.353   6.227  0.5328  0.8930 -0.2202
 3168SOL    HW214352   7.617   2.293   6.128 -0.8372  2.1256  0.3533
 3169SOL     OW14353   3.349   7.682   6.177  0.1496  0.1495  0.0958
 3169SOL    HW114354   3.274   7.703   6.121 -0.1012 -0.1074  0.3327
 3169SOL    HW214355   3.386   7.602   6.138  1.5413  1.3697 -1.2409
 3170SOL     OW14356   9.387   4.890   9.174  0.1336  0.8372 -0.1556
 3170SOL    HW114357   9.393   4.971   9.225 -0.2548  1.9476 -1.7926
 3170SOL    HW214358   9.463   4.894   9.116 -0.3113  0.4117 -0.7715
 3171SOL     OW14359   9.045   7.874   6.938 -0.1651  0.6281 -0.2006
 3171SOL    HW114360   9.083   7.961   6.954  1.3014  0.2068 -1.1671
 3171SOL    HW214361   8.961   7.891   6.896  0.1044  1.5809 -0.3730
 3172SOL     OW14362   1.839   8.542   1.496 -0.3424 -0.7591 -0.2472
 3172SOL    HW114363   1.833   8.480   1.569  1.6430 -0.0571  0.5723
 3172SOL    HW214364   1.831   8.487   1.418 -1.5019 -1.6510  0.4548
 3173SOL     OW14365   5.977   2.120   4.768 -0.5630  0.1834 -0.5123
 3173SOL    HW114366   5.897   2.067   4.773 -0.6118  0.2318 -0.7823
 3173SOL    HW214367   5.995   2.128   4.674 -0.1036 -0.0298 -0.4445
 3174SOL     OW14368   4.092   1.519   2.906  0.0396 -0.3345  0.2627
 3174SOL    HW114369   4.098   1.440   2.960  0.2884  0.1898  1.0144
 3174SOL    HW214370   4.139   1.586   2.955  0.7786  0.0156 -0.8857
 3175SOL     OW14371   1.911   1.643   2.125  0.5879  0.1418 -0.3890
 3175SOL    HW114372   1.918   1.735   2.149 -0.3836  0.1159  0.0699
 3175SOL    HW214373   1.862   1.643   2.043 -0.5310 -0.0039  0.2523
 3176SOL     OW14374   8.912   4.667   0.350 -0.2192 -0.1920  0.1402
 3176SOL    HW114375   8.958   4.684   0.432  1.5429  0.0507 -0.8420
 3176SOL    HW214376   8.847   4.601   0.372  0.5327 -0.4676  1.6409
 3177SOL     OW14377   1.019   4.097   4.807  0.4871  0.7771 -0.3656
 3177SOL    HW114378   1.093   4.147   4.772 -0.5308  2.9505  0.4250
 3177SOL    HW214379   0.989   4.044   4.733  1.8129  1.0773 -1.1539
 3178SOL     OW14380   3.744   4.315   7.689  0.2409 -0.5967  0.0097
 3178SOL    HW114381   3.791   4.282   7.612 -0.4462 -1.2740 -0.1330
 3178SOL    HW214382   3.807   4.372   7.733  0.4102  0.3761 -1.4307
 3179SOL     OW14383   6.651   8.247   5.696 -0.7385 -0.2674  0.3796
 3179SOL    HW114384   6.713   8.313   5.728 -0.0398 -0.5120 -0.4148
 3179SOL    HW214385   6.676   8.167   5.741 -0.4172 -0.3799  0.0121
 3180SOL     OW14386   3.961   6.419   3.731 -0.7250 -0.1400 -0.5676
 3180SOL    HW114387   3.936   6.501   3.688 -0.6914 -0.3227 -0.9349
 3180SOL    HW214388   3.885   6.396   3.785  0.5614  2.0374  2.4424
 3181SOL     OW14389   7.711   1.077   0.356 -0.2291 -0.3736 -0.6255
 3181SOL    HW114390   7.688   1.054   0.266  0.2625  1.6103 -1.3158
 3181SOL    HW214391   7.648   1.145   0.380 -0.2992 -0.8231  0.5165
 3182SOL     OW14392   8.251   2.068   1.314  0.3087 -0.0194  0.6815
 3182SOL    HW114393   8.311   2.086   1.386  0.4912 -2.9169  1.3906
 3182SOL    HW214394   8.245   1.972   1.311 -4.7142 -0.0092  1.0210
 3183SOL     OW14395   2.533   0.735   0.382 -0.1974  0.3642  0.3740
 3183SOL    HW114396   2.529   0.829   0.367  2.0673  0.5238  0.3244
 3183SOL    HW214397   2.618   0.708   0.346 -0.6398 -1.6438  0.6751
 3184SOL     OW14398   1.944   4.933   2.897 -0.3332 -0.4728  0.3385
 3184SOL    HW114399   1.867   4.913   2.951 -1.4862  3.4893  0.5170
 3184SOL    HW214400   2.009   4.965   2.959 -0.4614  0.9999 -0.2482
 3185SOL     OW14401   1.442   2.914   8.686  0.6507  0.4052 -0.6348
 3185SOL    HW114402   1.526   2.955   8.664  0.5705  0.0851 -1.6274
 3185SOL    HW214403   1.441   2.909   8.781  1.5501  0.8486 -0.5945
 3186SOL     OW14404   6.498   7.811   8.628  0.6640 -0.2058  0.0928
 3186SOL    HW114405   6.458   7.898   8.620  1.2357  0.3277  2.3042
 3186SOL    HW214406   6.442   7.754   8.576 -0.5839  1.2353 -0.2227
 3187SOL     OW14407   2.373   6.848   5.163 -0.1501 -0.0926  0.4332
 3187SOL    HW114408   2.294   6.859   5.216 -1.1149 -1.1214 -0.7411
 3187SOL    HW214409   2.430   6.793   5.217 -0.7256 -0.3387  0.8041
 3188SOL     OW14410   3.760   6.882   2.882 -0.0296  0.5104  0.1190
 3188SOL    HW114411   3.768   6.971   2.917 -0.2343  1.1637 -1.4237
 3188SOL    HW214412   3.670   6.878   2.850 -0.7302 -0.9999  2.0379
 3189SOL     OW14413   3.177   1.084   6.266  0.4268  0.4091  0.0830
 3189SOL    HW114414   3.203   1.026   6.338 -0.0006  0.8272  0.5943
 3189SOL    HW214415   3.178   1.172   6.305  2.2974  0.9234 -1.0129
 3190SOL     OW14416   1.049   6.164   7.820 -0.3664  0.5386 -0.5503
 3190SOL    HW114417   0.987   6.133   7.754 -0.5439  1.5975 -0.9079
 3190SOL    HW214418   1.023   6.255   7.835  0.0790  0.4960  0.5113
 3191SOL     OW14419   1.201   0.438   0.269 -0.2166 -0.0314 -0.6420
 3191SOL    HW114420   1.156   0.488   0.337  0.6797  1.1142 -0.8636
 3191SOL    HW214421   1.201   0.348   0.302  0.2119  0.4979  0.9031
 3192SOL     OW14422   6.401   6.336   0.687 -0.1441  0.3609 -0.3647
 3192SOL    HW114423   6.365   6.422   0.711  0.5873  0.7548 -0.6405
 3192SOL    HW214424   6.416   6.342   0.593  1.9448  0.7359 -0.0570
 3193SOL     OW14425   9.216   4.411   4.990 -0.3654  0.0292  0.2739
 3193SOL    HW114426   9.210   4.384   4.899 -2.9791  0.7113  0.1560
 3193SOL    HW214427   9.212   4.330   5.040 -0.2244 -0.2785 -0.2154
 3194SOL     OW14428   7.018   9.127   1.471  0.1463  0.8994  0.3322
 3194SOL    HW114429   7.054   9.079   1.396  4.1806  2.2008  1.1927
 3194SOL    HW214430   6.998   9.214   1.436  0.2342  0.9370  0.3763
 3195SOL     OW14431   0.277   0.140   8.834  0.3064  0.5402  0.1770
 3195SOL    HW114432   0.264   0.083   8.910  0.9160  0.3451  0.1401
 3195SOL    HW214433   0.371   0.134   8.815  0.2811  1.1304 -0.1637
 3196SOL     OW14434   0.483   8.718   8.377 -0.5086 -0.0022  0.2616
 3196SOL    HW114435   0.516   8.732   8.288  1.4114  0.9338  1.0804
 3196SOL    HW214436   0.521   8.634   8.403 -0.9614 -0.2113  0.2534
 3197SOL     OW14437   4.992   1.864   2.853  0.1668 -0.1638  0.2411
 3197SOL    HW114438   5.036   1.818   2.781 -1.1974 -1.0343 -0.0900
 3197SOL    HW214439   4.901   1.873   2.823  0.1884  1.9665  0.7098
 3198SOL     OW14440   4.309   4.864   6.255  0.9112 -0.2331  0.4773
 3198SOL    HW114441   4.296   4.877   6.349  0.0867 -1.3846  0.5519
 3198SOL    HW214442   4.387   4.810   6.249  1.2112  0.1943  0.4649
 3199SOL     OW14443   9.622   1.266   3.295  0.1295  0.1148  0.1852
 3199SOL    HW114444   9.672   1.322   3.355 -0.1735  0.7097 -0.1104
 3199SOL    HW214445   9.652   1.177   3.315  1.0802  0.4330  0.2271
 3200SOL     OW14446   0.130   8.606   3.640 -0.9559 -0.3466 -0.3003
 3200SOL    HW114447   0.106   8.528   3.690 -1.1932  0.6467  1.1926
 3200SOL    HW214448   0.047   8.642   3.611 -0.7966 -1.1723 -1.8575
 3201SOL     OW14449   6.538   7.082   4.479 -0.4590  0.3243  0.3658
 3201SOL    HW114450   6.615   7.060   4.530 -0.2386  1.0090  0.3433
 3201SOL    HW214451   6.483   7.133   4.540 -0.7058  0.1919  0.2570
 3202SOL     OW14452   5.324   3.431   0.398  0.1690 -0.1661  0.5846
 3202SOL    HW114453   5.328   3.347   0.445 -1.4624  0.7045  2.4062
 3202SOL    HW214454   5.330   3.497   0.467  0.7438  1.2374 -0.7584
 3203SOL     OW14455   0.135   0.856   5.796  0.5914  0.1661 -0.1778
 3203SOL    HW114456   0.157   0.914   5.869 -0.9524  0.6492 -0.0750
 3203SOL    HW214457   0.047   0.826   5.814  1.2874 -2.1434 -0.3176
 3204SOL     OW14458   9.617   1.395   8.629  0.2367 -0.7718  0.2180
 3204SOL    HW114459   9.670   1.337   8.575  0.7671  0.0732 -0.1886
 3204SOL    HW214460   9.677   1.428   8.696  0.3989  0.6319 -0.5873
 3205SOL     OW14461   6.249   8.486   4.458  0.5222 -0.6567 -0.4697
 3205SOL    HW114462   6.220   8.395   4.448 -1.0618 -0.3473  0.8095
 3205SOL    HW214463   6.177   8.538   4.424  1.2765  0.1454 -0.8783
 3206SOL     OW14464   4.935   8.837   8.941 -0.3008 -0.6525  0.5687
 3206SOL    HW114465   4.973   8.878   9.018  0.1751 -1.3424  0.7066
 3206SOL    HW214466   4.994   8.764   8.921  0.0849  0.0458 -0.9704
 3207SOL     OW14467   0.252   1.842   7.973 -0.0570 -0.3969 -0.0038
 3207SOL    HW114468   0.257   1.771   8.037 -1.4726 -0.8137 -0.3074
 3207SOL    HW214469   0.170   1.826   7.927  1.6928 -1.1317 -3.1595
 3208SOL     OW14470   1.027   0.971   7.103  0.2451 -0.2558 -0.4320
 3208SOL    HW114471   1.026   1.059   7.065  0.4800 -0.1447 -0.1835
 3208SOL    HW214472   1.097   0.925   7.056  3.6456  1.1910  2.7488
 3209SOL     OW14473   6.807   8.436   1.763 -0.0319 -0.3469 -0.3644
 3209SOL    HW114474   6.877   8.426   1.828 -0.0900  0.9037 -0.0940
 3209SOL    HW214475   6.831   8.377   1.692  0.9257 -0.4542  0.0384
 3210SOL     OW14476   0.771   1.324   5.421  0.4173 -0.6813  0.6747
 3210SOL    HW114477   0.683   1.294   5.441  0.4511 -0.5663  1.0179
 3210SOL    HW214478   0.768   1.419   5.431  0.3027 -0.5562 -0.4456
 3211SOL     OW14479   2.663   1.298   7.117 -0.3151  0.4036  0.5386
 3211SOL    HW114480   2.750   1.284   7.081 -0.8820  2.6823 -2.0584
 3211SOL    HW214481   2.605   1.251   7.057 -0.9470 -1.2193  2.3222
 3212SOL     OW14482   5.516   6.078   7.395  0.1744 -0.1859  0.0194
 3212SOL    HW114483   5.469   5.999   7.369 -0.0328 -0.7932  2.0829
 3212SOL    HW214484   5.448   6.146   7.399  0.0039 -0.3586  0.0920
 3213SOL     OW14485   2.654   1.982   0.001 -1.2317  0.4836  0.5572
 3213SOL    HW114486   2.672   1.892  -0.025 -1.5108  0.6858 -0.3507
 3213SOL    HW214487   2.562   1.995  -0.018 -1.5038  0.5809  1.8542
 3214SOL     OW14488   7.806   0.737   4.986  0.1848  0.0547  0.4038
 3214SOL    HW114489   7.724   0.785   4.975  0.6612  0.7511 -0.2368
 3214SOL    HW214490   7.863   0.798   5.033  0.7001  0.0287 -0.1674
 3215SOL     OW14491   4.143   8.786   3.118  0.3249 -0.1274 -0.0927
 3215SOL    HW114492   4.155   8.837   3.038 -0.3611  0.6428  0.2786
 3215SOL    HW214493   4.161   8.696   3.092  1.4836  0.2871 -0.7837
 3216SOL     OW14494   0.481   7.866   1.044  0.0185  0.5365 -0.3790
 3216SOL    HW114495   0.512   7.933   0.984 -1.1534 -0.0111 -1.6337
 3216SOL    HW214496   0.402   7.831   1.003  0.2783 -1.2159  0.5180
 3217SOL     OW14497   2.577   6.396   4.015 -0.3172  0.6644 -0.0653
 3217SOL    HW114498   2.502   6.351   3.978 -0.0531  0.1665 -0.0058
 3217SOL    HW214499   2.629   6.422   3.938 -2.0516  3.8092 -0.3498
 3218SOL     OW14500   3.161   1.779   1.199  0.4740  0.3940  0.2434
 3218SOL    HW114501   3.234   1.838   1.179 -0.3446  1.6112  0.8023
 3218SOL    HW214502   3.086   1.836   1.214 -0.9682 -0.8623 -1.6134
 3219SOL     OW14503   5.119   7.372   8.471  0.1879 -0.6949  0.4487
 3219SOL    HW114504   5.181   7.330   8.530  1.3482  0.1803 -0.1115
 3219SOL    HW214505   5.089   7.301   8.414  3.9268 -0.5276 -2.0607
 3220SOL     OW14506   3.554   2.784   8.898 -0.0597 -0.2267 -0.2145
 3220SOL    HW114507   3.534   2.733   8.819 -0.0355 -0.9503  0.2303
 3220SOL    HW214508   3.505   2.865   8.888 -0.5967 -0.6005 -0.6656
 3221SOL     OW14509   4.884   4.844   7.217  0.1720 -0.5223  0.3893
 3221SOL    HW114510   4.941   4.918   7.196  0.1548 -1.0035 -1.6469
 3221SOL    HW214511   4.796   4.876   7.196  0.2304 -1.2772 -1.1522
 3222SOL     OW14512   0.233   2.027   3.499  0.4949 -0.0752  0.5225
 3222SOL    HW114513   0.237   2.091   3.570 -1.4730  0.1148  0.4980
 3222SOL    HW214514   0.178   2.067   3.433  2.3073 -0.2451 -1.1952
 3223SOL     OW14515   1.035   7.809   6.202 -0.0983 -0.3906  0.0599
 3223SOL    HW114516   0.959   7.768   6.159  0.0673 -2.4549  1.5875
 3223SOL    HW214517   1.107   7.796   6.140 -0.6742  0.3357 -0.7879
 3224SOL     OW14518   5.666   0.082   4.636  0.3730 -0.1338 -0.1938
 3224SOL    HW114519   5.687   0.044   4.551 -0.5006 -0.0410 -0.4609
 3224SOL    HW214520   5.572   0.100   4.632  0.2871 -0.2916  0.8584
 3225SOL     OW14521   4.514   3.216   2.623 -0.3399 -0.5487 -0.4456
 3225SOL    HW114522   4.431   3.202   2.578 -0.8436 -1.2711  0.6371
 3225SOL    HW214523   4.519   3.143   2.686  0.6264  0.0535  0.2012
 3226SOL     OW14524   3.203   7.679   7.898 -0.9292  0.1337 -0.2429
 3226SOL    HW114525   3.291   7.644   7.880 -0.5826 -0.2785  1.9444
 3226SOL    HW214526   3.146   7.602   7.890 -0.9363  0.1617 -0.4938
 3227SOL     OW14527   0.648   9.554   3.370  0.3470  0.4085  0.2576
 3227SOL    HW114528   0.568   9.503   3.368  0.4908  0.1420  1.0442
 3227SOL    HW214529   0.624   9.634   3.416  0.1564  1.0234 -0.8524
 3228SOL     OW14530   2.410   7.833   3.579 -0.2300 -0.3065 -0.3144
 3228SOL    HW114531   2.420   7.738   3.576  1.3236 -0.1613 -1.4756
 3228SOL    HW214532   2.480   7.863   3.636  2.0816  0.3491 -3.2715
 3229SOL     OW14533   4.047   5.275   2.725 -0.3671  0.2435  0.2507
 3229SOL    HW114534   4.124   5.329   2.709 -0.3325  0.8706  2.3337
 3229SOL    HW214535   3.973   5.336   2.719 -0.3316  0.5917  2.5607
 3230SOL     OW14536   9.204   7.326   8.860 -0.0650  0.5809 -0.3366
 3230SOL    HW114537   9.279   7.302   8.915  1.2956  0.0147 -2.3239
 3230SOL    HW214538   9.158   7.244   8.846 -0.8289  0.8480  0.4817
 3231SOL     OW14539   9.459   2.252   3.411  0.8308  0.0370  0.0543
 3231SOL    HW114540   9.440   2.288   3.324  1.9792  1.6613  0.4358
 3231SOL    HW214541   9.540   2.202   3.398  0.2727 -0.8597 -0.0688
 3232SOL     OW14542   7.413   8.595   7.116 -0.3963 -0.1536  0.1247
 3232SOL    HW114543   7.506   8.610   7.097 -0.4859  0.6218  0.2952
 3232SOL    HW214544   7.401   8.627   7.205 -1.3823  2.1845 -0.7766
 3233SOL     OW14545   8.472   8.611   5.145 -0.3439 -0.4260  0.1810
 3233SOL    HW114546   8.461   8.577   5.234  0.6577 -1.0186  0.1016
 3233SOL    HW214547   8.394   8.663   5.129 -0.1158  0.4624  1.7545
 3234SOL     OW14548   5.189   5.577   1.442  0.3725  0.1115  0.2084
 3234SOL    HW114549   5.146   5.532   1.369 -0.5140 -0.6835  1.1742
 3234SOL    HW214550   5.259   5.517   1.468 -0.8655 -0.8301  1.5543
 3235SOL     OW14551   5.726   4.282   4.073 -0.0370 -0.2508  0.4967
 3235SOL    HW114552   5.670   4.235   4.135  0.9033 -1.0165  0.7870
 3235SOL    HW214553   5.810   4.236   4.077  0.6058  0.8542  0.0523
 3236SOL     OW14554   3.220   2.538   4.597 -0.0882 -0.4360 -0.3480
 3236SOL    HW114555   3.125   2.535   4.587 -0.2540  2.0130 -0.2446
 3236SOL    HW214556   3.238   2.484   4.674 -1.6142  0.3219  0.5968
 3237SOL     OW14557   0.764   8.979   5.149 -0.4359  0.6633  0.4165
 3237SOL    HW114558   0.728   8.974   5.061 -0.7863  2.2594  0.4494
 3237SOL    HW214559   0.693   9.011   5.203  0.2184  1.1950  0.9874
 3238SOL     OW14560   0.278   8.362   6.167 -0.5871  0.5427  0.0962
 3238SOL    HW114561   0.338   8.421   6.213 -1.5141 -0.1541  2.3305
 3238SOL    HW214562   0.335   8.305   6.116  0.5088  1.1325  0.6338
 3239SOL     OW14563   0.530   1.447   4.807  0.2900 -0.3112 -0.1697
 3239SOL    HW114564   0.504   1.467   4.717 -0.6731 -2.0386 -0.3172
 3239SOL    HW214565   0.510   1.527   4.855  0.7232  0.6079 -1.4584
 3240SOL     OW14566   4.809   9.284   5.562  0.1093 -0.2255  0.1724
 3240SOL    HW114567   4.722   9.314   5.588  0.1891  0.3282 -0.1816
 3240SOL    HW214568   4.851   9.257   5.643 -0.9646 -2.0541  0.1700
 3241SOL     OW14569   8.779   2.229   8.175  0.3918  0.2397  0.3425
 3241SOL    HW114570   8.735   2.292   8.119 -1.3717 -0.1252  1.2471
 3241SOL    HW214571   8.817   2.281   8.246 -0.0076  0.4017  0.4366
 3242SOL     OW14572   9.594   2.916   1.587  1.0062 -0.3497 -0.0146
 3242SOL    HW114573   9.545   2.964   1.653  0.1833 -1.9687  0.6110
 3242SOL    HW214574   9.546   2.931   1.506  1.6083  1.0512 -0.1437
 3243SOL     OW14575   1.494   9.504   6.598 -0.2549  0.0453 -0.1841
 3243SOL    HW114576   1.493   9.565   6.672 -0.7940 -0.0889 -0.0699
 3243SOL    HW214577   1.584   9.504   6.567  0.5425 -1.5866  1.9051
 3244SOL     OW14578   0.486   8.780   3.356 -0.1139 -0.9437  0.3567
 3244SOL    HW114579   0.534   8.799   3.276 -0.8150 -1.4151 -0.1895
 3244SOL    HW214580   0.528   8.833   3.423 -0.2213  0.3222 -0.5441
 3245SOL     OW14581   1.558   1.352   3.559  0.4978 -1.1033 -1.1579
 3245SOL    HW114582   1.653   1.344   3.570  0.3877 -0.5050  0.5576
 3245SOL    HW214583   1.546   1.436   3.514  0.7147  0.7828  1.9649
 3246SOL     OW14584   6.090   2.645   1.234  0.3110 -0.0412  0.2174
 3246SOL    HW114585   6.146   2.627   1.157  0.6712  1.0266  0.2156
 3246SOL    HW214586   6.114   2.577   1.297  0.2816 -0.7044 -0.4712
 3247SOL     OW14587   1.897   0.865   7.660 -0.0161 -0.2855  0.1478
 3247SOL    HW114588   1.841   0.836   7.733 -0.7216  0.3435 -0.1249
 3247SOL    HW214589   1.838   0.872   7.586  0.0252  1.9991  0.2363
 3248SOL     OW14590   7.269   7.909   9.078 -0.2555  0.5659  0.2247
 3248SOL    HW114591   7.257   8.004   9.078 -1.3404  0.4444  1.2079
 3248SOL    HW214592   7.286   7.887   9.169  0.2667 -0.1672 -0.0434
 3249SOL     OW14593   8.208   8.913   4.792  0.0561 -0.5505  0.7156
 3249SOL    HW114594   8.230   8.947   4.705  0.5484 -2.6031 -0.0208
 3249SOL    HW214595   8.137   8.971   4.823  1.6506  1.8644  0.1337
 3250SOL     OW14596   3.314   7.493   8.573 -0.2960  0.6991  0.0992
 3250SOL    HW114597   3.275   7.579   8.559 -2.4004 -0.4510 -1.8704
 3250SOL    HW214598   3.393   7.494   8.519 -0.5597  1.2482 -0.2887
 3251SOL     OW14599   7.902   6.062   1.724 -0.4518  0.5010  0.0511
 3251SOL    HW114600   7.858   6.001   1.665  0.5816  0.7028 -0.9681
 3251SOL    HW214601   7.992   6.067   1.691  0.7188 -0.7532  2.7214
 3252SOL     OW14602   8.465   3.082   4.733 -0.1662  0.1347  0.6022
 3252SOL    HW114603   8.398   3.150   4.726  0.3868  0.4683 -2.6553
 3252SOL    HW214604   8.430   3.022   4.800 -2.2331  1.8457  1.1776
 3253SOL     OW14605   7.371   8.942   8.285 -0.6223 -0.6654 -0.4368
 3253SOL    HW114606   7.419   9.014   8.327 -0.8764 -0.6024 -0.2464
 3253SOL    HW214607   7.397   8.946   8.193  1.8828 -2.3720  0.0975
 3254SOL     OW14608   5.180   7.898   7.529  0.6084  0.0893 -0.2761
 3254SOL    HW114609   5.225   7.882   7.612 -0.9837  1.0010  0.8330
 3254SOL    HW214610   5.239   7.864   7.462  2.1024 -0.3514  1.2016
 3255SOL     OW14611   6.626   6.779   6.042 -0.5175 -0.3067  0.1972
 3255SOL    HW114612   6.644   6.685   6.048  0.4962 -0.0879  0.8945
 3255SOL    HW214613   6.693   6.820   6.097 -1.9171  0.7307  1.2079
 3256SOL     OW14614   0.082   6.936   6.814  0.9196 -0.1797 -0.1925
 3256SOL    HW114615   0.017   6.999   6.844  0.7569 -1.6499  2.9381
 3256SOL    HW214616   0.159   6.989   6.793  0.0864  1.2207  0.1846
 3257SOL     OW14617   6.009   1.284   6.867 -0.5475 -0.0564 -0.2830
 3257SOL    HW114618   6.092   1.330   6.870  0.0800 -1.1555  2.9064
 3257SOL    HW214619   5.944   1.351   6.848  0.6067  1.6800  1.6077
 3258SOL     OW14620   1.022   3.346   2.741 -0.1496  0.3221  0.1868
 3258SOL    HW114621   1.004   3.326   2.833  1.8701 -0.5758  0.4437
 3258SOL    HW214622   1.087   3.281   2.715  0.4548  1.5181 -1.4332
 3259SOL     OW14623   2.261   7.665   1.104  0.4389 -0.1138  0.7101
 3259SOL    HW114624   2.277   7.636   1.194  0.7264  1.0545  1.0600
 3259SOL    HW214625   2.348   7.677   1.066  0.4487  2.3058  1.2939
 3260SOL     OW14626   4.770   3.430   6.499  0.0118 -0.4185 -0.3029
 3260SOL    HW114627   4.773   3.506   6.442  1.3988 -1.3828 -1.6020
 3260SOL    HW214628   4.840   3.373   6.466  0.4093 -1.3238  1.9476
 3261SOL     OW14629   5.660   8.321   3.675  0.0708 -0.2465  0.5790
 3261SOL    HW114630   5.672   8.408   3.715 -1.9693  1.0301 -1.3666
 3261SOL    HW214631   5.749   8.295   3.650  0.5804  2.2552 -0.5943
 3262SOL     OW14632   6.991   1.404   8.541  0.0257  0.3963  0.2891
 3262SOL    HW114633   6.910   1.380   8.498  0.5026 -0.4697 -0.1584
 3262SOL    HW214634   7.031   1.469   8.484 -0.8940  1.7283  1.1056
 3263SOL     OW14635   1.763   6.891   5.349  0.1886  0.1882 -0.1685
 3263SOL    HW114636   1.811   6.878   5.267 -0.7045 -1.9689 -0.4221
 3263SOL    HW214637   1.809   6.835   5.413 -1.5048 -1.3786 -0.2515
 3264SOL     OW14638   1.144   6.442   0.356 -0.0225 -0.1035  0.1340
 3264SOL    HW114639   1.082   6.473   0.291  0.1259 -0.1972 -0.0535
 3264SOL    HW214640   1.124   6.493   0.435 -0.8011 -0.6370  0.2899
 3265SOL     OW14641   3.202   2.200   2.487  0.2230  0.2348  0.1498
 3265SOL    HW114642   3.115   2.240   2.489  0.5614  1.1858 -1.5851
 3265SOL    HW214643   3.186   2.109   2.461 -0.2540  0.4528 -0.3530
 3266SOL     OW14644   7.006   5.210   5.979 -0.5462  0.2936  0.7491
 3266SOL    HW114645   7.074   5.264   5.941 -1.3372  2.8945  2.7212
 3266SOL    HW214646   6.935   5.212   5.915 -0.3695  1.1967  0.5666
 3267SOL     OW14647   1.833   1.887   1.178 -0.1527 -0.3060  0.6513
 3267SOL    HW114648   1.754   1.924   1.215 -0.3680 -2.2736  2.3881
 3267SOL    HW214649   1.883   1.962   1.145 -2.2061  1.0589  0.5169
 3268SOL     OW14650   1.843   5.995   8.544  0.2686 -0.2164 -0.2431
 3268SOL    HW114651   1.910   6.058   8.518  1.2643 -0.5341  1.3937
 3268SOL    HW214652   1.834   6.008   8.638 -1.2170 -0.9168 -0.2721
 3269SOL     OW14653   1.179   5.295   0.167  0.1402  0.1031  0.1382
 3269SOL    HW114654   1.257   5.299   0.111 -1.4379 -0.6883 -2.2959
 3269SOL    HW214655   1.111   5.339   0.116 -2.0844 -3.0555  0.0620
 3270SOL     OW14656   9.121   9.662   6.335  0.2480 -0.0485  0.3663
 3270SOL    HW114657   9.150   9.628   6.251 -0.9684 -2.5859  0.8951
 3270SOL    HW214658   9.159   9.750   6.339  0.3488  0.1519 -2.7757
 3271SOL     OW14659   2.096   5.858   3.059  0.0259  0.3154  0.2923
 3271SOL    HW114660   2.097   5.845   2.964 -0.1043  0.0804  0.3233
 3271SOL    HW214661   2.013   5.903   3.076  0.8779  2.0329  0.0783
 3272SOL     OW14662   5.495   3.894   0.940 -0.5364  0.4176 -0.1631
 3272SOL    HW114663   5.429   3.913   0.873 -0.4065 -1.2792 -0.8316
 3272SOL    HW214664   5.447   3.851   1.010 -0.4078  0.7126  0.1078
 3273SOL     OW14665   3.034   9.601   1.395  0.3522  1.2986  0.1579
 3273SOL    HW114666   3.074   9.566   1.315  0.0993 -0.7458  0.8680
 3273SOL    HW214667   2.944   9.567   1.394  0.5172  0.7489  1.5612
 3274SOL     OW14668   3.855   7.847   8.797  0.0603 -0.2936  0.1113
 3274SOL    HW114669   3.831   7.938   8.808  2.6100  0.3580  1.0795
 3274SOL    HW214670   3.879   7.840   8.704  1.6803  0.5827  0.4209
 3275SOL     OW14671   7.963   3.809   3.480  0.6884  0.7610 -0.5913
 3275SOL    HW114672   7.884   3.852   3.515  1.5869  0.4806  1.9814
 3275SOL    HW214673   8.035   3.861   3.515  1.7103 -0.1029 -1.3627
 3276SOL     OW14674   8.744   6.411   7.858  0.1375 -0.2039 -0.0489
 3276SOL    HW114675   8.686   6.337   7.840  0.2088 -0.1507 -0.5050
 3276SOL    HW214676   8.695   6.488   7.829  0.5012 -0.1743 -0.5993
 3277SOL     OW14677   6.901   4.546   4.848 -0.0665 -0.0633  0.3740
 3277SOL    HW114678   6.888   4.456   4.818 -0.1792 -0.1960  0.8161
 3277SOL    HW214679   6.902   4.599   4.768  2.0035 -0.6877 -0.0661
 3278SOL     OW14680   8.824   4.417   5.961 -0.2250 -0.1240  0.0162
 3278SOL    HW114681   8.802   4.328   5.931  0.5968 -0.4807  0.4235
 3278SOL    HW214682   8.865   4.403   6.047 -0.8173  0.7228  0.4484
 3279SOL     OW14683   6.450   1.198   4.651  0.0359 -0.3764 -0.0513
 3279SOL    HW114684   6.425   1.281   4.692 -2.1435 -0.9474 -0.0722
 3279SOL    HW214685   6.471   1.221   4.561 -1.9928  0.0175 -0.4664
 3280SOL     OW14686   3.501   0.172   8.126  0.5157  0.3928  0.5464
 3280SOL    HW114687   3.416   0.159   8.085  0.4464 -3.9017  1.5249
 3280SOL    HW214688   3.483   0.227   8.202 -1.2498  0.2589  0.2625
 3281SOL     OW14689   7.074   6.587   8.801 -0.1603  0.6265 -0.0580
 3281SOL    HW114690   6.991   6.582   8.754 -0.4453 -0.2512  0.5100
 3281SOL    HW214691   7.125   6.513   8.767 -0.0249  0.5217  0.3690
 3282SOL     OW14692   0.103   2.880   8.857  0.6687 -0.2687  0.3242
 3282SOL    HW114693   0.042   2.833   8.914 -3.2148  1.9336 -1.6152
 3282SOL    HW214694   0.142   2.812   8.802  2.0213 -2.0390  3.2199
 3283SOL     OW14695   5.457   4.665   3.474  0.7805 -0.5689  0.1598
 3283SOL    HW114696   5.524   4.674   3.542  0.8102  1.1035 -0.0593
 3283SOL    HW214697   5.426   4.754   3.459 -1.3489 -1.2802  0.0912
 3284SOL     OW14698   2.472   7.641   5.686  0.1251 -0.2099  0.0902
 3284SOL    HW114699   2.465   7.587   5.607 -0.3564  1.0267 -0.7411
 3284SOL    HW214700   2.451   7.730   5.657  1.5747  0.5700  1.2799
 3285SOL     OW14701   9.141   3.307   5.419  0.4639  0.6245 -0.0262
 3285SOL    HW114702   9.079   3.341   5.484 -0.7077  0.4449 -1.0137
 3285SOL    HW214703   9.096   3.233   5.380  2.1058 -0.7212  0.5466
 3286SOL     OW14704   3.499   1.524   7.518 -0.6990  0.1122  0.2146
 3286SOL    HW114705   3.418   1.555   7.560 -0.9750 -0.1154 -0.1410
 3286SOL    HW214706   3.564   1.525   7.588 -0.8295  1.0004  0.3293
 3287SOL     OW14707   3.144   9.626   5.144 -0.2975  0.2039 -0.0622
 3287SOL    HW114708   3.231   9.663   5.133 -0.0767 -0.8261 -2.9117
 3287SOL    HW214709   3.118   9.650   5.232  2.1663  1.9902  0.2937
 3288SOL     OW14710   3.080   4.814   9.002  0.4132 -0.0976 -0.1794
 3288SOL    HW114711   3.091   4.723   8.975 -0.1016 -0.3556  0.4546
 3288SOL    HW214712   3.153   4.830   9.062 -0.0519 -0.3981  0.4721
 3289SOL     OW14713   1.350   9.317   1.380  0.0676 -0.2522 -0.5996
 3289SOL    HW114714   1.441   9.344   1.395 -0.5083  1.2110  0.6553
 3289SOL    HW214715   1.306   9.340   1.462 -2.1432  2.4530 -2.3918
 3290SOL     OW14716   8.020   3.954   1.225  0.3925 -0.0067 -0.1562
 3290SOL    HW114717   7.938   3.965   1.177  0.1603 -1.3376 -0.1246
 3290SOL    HW214718   8.087   3.944   1.158  0.5415  1.0999 -0.1823
 3291SOL     OW14719   3.239   9.547   6.769 -0.5557 -0.1600  0.5404
 3291SOL    HW114720   3.177   9.620   6.766  0.2857  0.5733 -2.2547
 3291SOL    HW214721   3.302   9.567   6.700 -1.2637 -4.3526 -1.6622
 3292SOL     OW14722   9.012   9.750   7.017  0.0862  0.3138 -0.2314
 3292SOL    HW114723   9.044   9.787   7.099  0.6387  0.1923 -0.3909
 3292SOL    HW214724   9.054   9.802   6.949  1.6830 -1.2158 -0.4844
 3293SOL     OW14725   2.178   6.293   6.020  0.2822  0.8955 -0.0997
 3293SOL    HW114726   2.238   6.360   5.986  0.6530  1.6247  1.8748
 3293SOL    HW214727   2.148   6.327   6.104 -1.9697 -0.0286 -0.4314
 3294SOL     OW14728   0.179   4.061   9.158  1.3354  0.1094  0.2063
 3294SOL    HW114729   0.097   4.107   9.137  1.4844  0.8353  1.1759
 3294SOL    HW214730   0.182   3.989   9.095 -0.5085 -0.4915  0.7322
 3295SOL     OW14731   4.252   2.376   9.635 -0.3202  0.2523  0.3763
 3295SOL    HW114732   4.234   2.352   9.725  0.4632 -2.0428 -0.0006
 3295SOL    HW214733   4.275   2.469   9.638 -0.7321  0.3171  2.4501
 3296SOL     OW14734   2.813   1.579   4.387 -0.4357 -0.2968 -0.2826
 3296SOL    HW114735   2.734   1.623   4.420  0.1731  1.3223 -0.8831
 3296SOL    HW214736   2.797   1.568   4.294 -0.5820 -1.3867 -0.1350
 3297SOL     OW14737   1.165   3.687   3.500  0.0267  0.4141 -0.1457
 3297SOL    HW114738   1.155   3.669   3.406 -1.4778 -1.2535  0.2838
 3297SOL    HW214739   1.119   3.770   3.513 -1.7113 -0.4244 -0.5684
 3298SOL     OW14740   2.260   3.264   4.694 -0.1017  0.0713  0.3721
 3298SOL    HW114741   2.175   3.237   4.730 -1.1374  1.0787 -1.1959
 3298SOL    HW214742   2.268   3.356   4.720  1.8385 -0.6728  2.8173
 3299SOL     OW14743   5.088   6.321   2.783 -0.1713 -0.0609  0.1151
 3299SOL    HW114744   5.152   6.392   2.791 -1.0226  0.8897 -1.1380
 3299SOL    HW214745   5.129   6.247   2.827  1.6035  0.6495 -0.2559
 3300SOL     OW14746   3.322   8.491   5.063 -0.0561 -0.3177  0.4736
 3300SOL    HW114747   3.299   8.580   5.037 -0.5046 -0.5188  0.1688
 3300SOL    HW214748   3.367   8.502   5.147  1.0569  0.3032 -0.1793
 3301SOL     OW14749   9.315   8.184   8.767  0.0692  0.0306  0.6061
 3301SOL    HW114750   9.333   8.159   8.677 -1.3188  1.7477 -0.2156
 3301SOL    HW214751   9.265   8.110   8.803 -0.2767 -0.2221 -0.3740
 3302SOL     OW14752   9.625   5.281   5.376 -0.0101 -0.6750 -0.0782
 3302SOL    HW114753   9.598   5.367   5.407  1.2751  0.2561 -1.4186
 3302SOL    HW214754   9.612   5.223   5.451 -3.0844  0.1815  0.1914
 3303SOL     OW14755   1.938   5.890   3.498  0.3610  0.4083 -0.2132
 3303SOL    HW114756   1.877   5.903   3.426  0.9958 -1.4316 -1.1593
 3303SOL    HW214757   1.888   5.845   3.566  0.2531  0.4345 -0.2763
 3304SOL     OW14758   1.701   0.172   2.511  0.1076 -0.1313  0.0179
 3304SOL    HW114759   1.770   0.204   2.569 -2.0266  1.3473  1.9874
 3304SOL    HW214760   1.663   0.252   2.473 -1.8271 -0.6579  0.7048
 3305SOL     OW14761   5.916   9.627   8.857  0.2561  0.1963  0.0897
 3305SOL    HW114762   5.920   9.587   8.771 -0.3286 -0.4943  0.3693
 3305SOL    HW214763   5.979   9.699   8.854  1.3943 -0.8047 -0.3978
 3306SOL     OW14764   8.202   3.347   1.680 -0.4574  0.5423  0.0052
 3306SOL    HW114765   8.219   3.436   1.710 -1.1836  0.6055  0.2521
 3306SOL    HW214766   8.252   3.292   1.741 -0.5517  0.7507  0.2742
 3307SOL     OW14767   5.301   4.659   9.444  0.3282  0.0388  0.5003
 3307SOL    HW114768   5.350   4.630   9.522  2.4070  1.1487 -0.3053
 3307SOL    HW214769   5.323   4.752   9.435 -0.2784  0.0600 -1.1058
 3308SOL     OW14770   5.137   0.522   4.436  0.4095 -0.0662  0.5710
 3308SOL    HW114771   5.161   0.430   4.424 -2.3977 -0.6687 -1.5783
 3308SOL    HW214772   5.116   0.553   4.347 -2.5551  1.4304  1.6654
 3309SOL     OW14773   0.743   3.917   3.304 -0.0255  0.4657 -0.0317
 3309SOL    HW114774   0.801   3.927   3.228  0.5303  0.5037  0.3962
 3309SOL    HW214775   0.759   3.995   3.357  0.5218 -0.1611  0.7478
 3310SOL     OW14776   2.824   4.959   7.400 -0.3745 -0.5059 -0.0154
 3310SOL    HW114777   2.898   4.900   7.389 -0.4905 -0.2925 -2.5456
 3310SOL    HW214778   2.748   4.902   7.410  0.0579 -0.7421  3.2559
 3311SOL     OW14779   7.805   8.220   8.473 -0.3598 -0.5540 -0.1821
 3311SOL    HW114780   7.841   8.267   8.398  1.0977 -2.2619 -0.6060
 3311SOL    HW214781   7.881   8.197   8.526 -1.1808 -1.1751  0.7598
 3312SOL     OW14782   5.251   5.943   0.260 -0.5112  0.0354 -0.1658
 3312SOL    HW114783   5.206   6.018   0.298 -1.0860 -0.9124  1.0783
 3312SOL    HW214784   5.282   5.892   0.335 -4.3047 -3.5311 -0.6572
 3313SOL     OW14785   2.235   8.874   3.097 -0.0469 -0.1929  0.0515
 3313SOL    HW114786   2.171   8.861   3.167  0.9698  0.4871  1.1338
 3313SOL    HW214787   2.245   8.969   3.090  0.3925 -0.2760 -0.5398
 3314SOL     OW14788   1.092   7.091   6.924 -0.7009 -0.0748 -0.0407
 3314SOL    HW114789   1.037   7.124   6.853 -2.7994 -1.6872  0.7029
 3314SOL    HW214790   1.104   6.998   6.904  1.4827  0.1499  0.0502
 3315SOL     OW14791   5.635   7.943   9.497 -0.3573 -0.0782 -0.0179
 3315SOL    HW114792   5.551   7.963   9.457 -0.1095  0.4549 -0.2774
 3315SOL    HW214793   5.626   7.853   9.528 -0.9819 -0.0626 -0.1439
 3316SOL     OW14794   3.234   1.132   8.870  0.2403 -0.2727  0.3567
 3316SOL    HW114795   3.286   1.061   8.908  0.5668 -0.1121  0.2141
 3316SOL    HW214796   3.237   1.202   8.934  0.4626 -0.1467  0.2079
 3317SOL     OW14797   6.550   5.035   0.932  1.1147 -0.0727  0.4364
 3317SOL    HW114798   6.524   5.039   1.024 -1.3238 -0.6230 -0.1459
 3317SOL    HW214799   6.517   5.117   0.895  0.4301 -0.6573 -0.2858
 3318SOL     OW14800   3.523   5.068   6.018  0.5458 -0.0472 -0.0479
 3318SOL    HW114801   3.496   5.028   5.935 -0.5460  0.5587 -0.0022
 3318SOL    HW214802   3.526   5.162   6.000 -2.6296  0.4472  1.2925
 3319SOL     OW14803   7.536   0.811   7.704  0.1422  0.1603 -0.3979
 3319SOL    HW114804   7.546   0.735   7.646  0.8356 -0.3026  0.3096
 3319SOL    HW214805   7.601   0.798   7.772  1.3150  2.1406 -1.0539
 3320SOL     OW14806   9.215   3.053   7.485  0.4034  0.3832  0.4655
 3320SOL    HW114807   9.170   3.135   7.505  0.0923  0.1994  0.5348
 3320SOL    HW214808   9.159   2.985   7.523 -1.3028 -0.1726 -2.7214
 3321SOL     OW14809   5.105   1.136   5.724  0.1717 -0.2905  0.2117
 3321SOL    HW114810   5.093   1.148   5.630 -0.7376  0.4398  0.4066
 3321SOL    HW214811   5.076   1.047   5.741 -1.6672  0.2402  0.0927
 3322SOL     OW14812   5.874   2.799   1.858 -0.1457 -0.0084  0.2334
 3322SOL    HW114813   5.967   2.777   1.851 -0.5334 -1.8619  0.3740
 3322SOL    HW214814   5.839   2.735   1.920 -1.5581  0.5557  0.0532
 3323SOL     OW14815   5.622   6.666   6.044  0.3434 -0.4331  0.2882
 3323SOL    HW114816   5.635   6.669   5.949  3.1789  0.2654  0.6318
 3323SOL    HW214817   5.541   6.716   6.058 -0.4821 -1.0855 -1.7666
 3324SOL     OW14818   2.624   7.974   1.257  0.1460  0.8502  0.0658
 3324SOL    HW114819   2.668   8.010   1.334 -0.1336  1.9646 -0.2767
 3324SOL    HW214820   2.652   8.031   1.185  0.3912 -0.1667 -0.6681
 3325SOL     OW14821   5.046   7.911   5.166  0.2153  0.2112 -0.1734
 3325SOL    HW114822   4.985   7.965   5.217 -0.4327  0.3049 -1.0419
 3325SOL    HW214823   5.005   7.824   5.163  0.6715 -0.0245  0.1855
 3326SOL     OW14824   7.476   4.377   8.262 -0.3039 -0.0284  0.1613
 3326SOL    HW114825   7.426   4.395   8.183  1.0051  1.6999 -0.3429
 3326SOL    HW214826   7.539   4.310   8.236  0.5702  1.0043 -0.5243
 3327SOL     OW14827   1.291   6.229   8.418  0.2649 -0.1774 -0.5910
 3327SOL    HW114828   1.335   6.271   8.343 -0.0663 -1.3120 -1.4424
 3327SOL    HW214829   1.294   6.136   8.398 -1.7391 -0.3575 -0.2340
 3328SOL     OW14830   0.013   1.029   4.830  0.2424 -0.6476 -0.6244
 3328SOL    HW114831  -0.060   0.969   4.817  1.1947 -2.3339  1.3206
 3328SOL    HW214832   0.080   0.999   4.769  0.2943 -0.8180 -0.4830
 3329SOL     OW14833   6.881   6.973   5.864  0.1284  0.5885  0.0765
 3329SOL    HW114834   6.848   7.063   5.864  2.1693  1.3859  0.6889
 3329SOL    HW214835   6.833   6.931   5.935  0.7814  1.8740  1.3318
 3330SOL     OW14836   6.020   2.678   5.799  0.1764 -0.1428 -0.0281
 3330SOL    HW114837   5.967   2.675   5.719  2.9082 -0.5936 -1.9763
 3330SOL    HW214838   6.110   2.666   5.768  1.4944  0.9188  3.0332
 3331SOL     OW14839   0.170   8.631   2.919 -0.1488  0.3675  0.1243
 3331SOL    HW114840   0.209   8.716   2.901 -0.1189  0.5163  0.8840
 3331SOL    HW214841   0.172   8.622   3.014 -0.1583 -0.4800  0.0582
 3332SOL     OW14842   0.095   3.833   4.975 -0.0964  0.3780 -0.3093
 3332SOL    HW114843   0.187   3.810   4.977  0.2660  1.7566  0.4742
 3332SOL    HW214844   0.051   3.756   4.938  1.5853  0.5991 -3.0139
 3333SOL     OW14845   9.724   7.820   9.650  0.3220 -0.6471  0.2688
 3333SOL    HW114846   9.799   7.848   9.596  0.4704 -1.4632  0.0491
 3333SOL    HW214847   9.729   7.877   9.727  0.2827  0.3270 -0.4323
 3334SOL     OW14848   9.205   9.453   9.356 -0.1685  0.6219 -0.2937
 3334SOL    HW114849   9.245   9.515   9.294  1.9448 -0.1393  0.2464
 3334SOL    HW214850   9.246   9.369   9.336  0.5740  0.3537  2.1166
 3335SOL     OW14851   0.067   2.232   7.954 -0.3766 -0.3397  0.0889
 3335SOL    HW114852   0.077   2.306   8.014  0.9153 -1.7025  1.6581
 3335SOL    HW214853   0.042   2.158   8.010  1.4347 -1.8117 -0.9107
 3336SOL     OW14854   1.540   4.809   9.619  0.0935  0.5828  0.3539
 3336SOL    HW114855   1.535   4.873   9.691  1.5507 -0.1873  1.1743
 3336SOL    HW214856   1.499   4.730   9.655 -1.4950  0.9316 -0.5813
 3337SOL     OW14857   7.546   9.098   3.067  0.6023 -0.4864  0.8160
 3337SOL    HW114858   7.566   9.024   3.010  0.8415 -1.1180  1.6966
 3337SOL    HW214859   7.629   9.122   3.106  0.3775 -0.3169  1.1991
 3338SOL     OW14860   4.397   4.389   3.138 -0.0043 -0.1921  0.2719
 3338SOL    HW114861   4.349   4.449   3.196  0.2395  2.0605 -1.7008
 3338SOL    HW214862   4.489   4.410   3.152  0.3775 -2.4543  1.8687
 3339SOL     OW14863   5.489   4.458   3.305  0.3545 -0.8172 -0.0755
 3339SOL    HW114864   5.483   4.533   3.364 -0.3647 -0.8806 -0.0522
 3339SOL    HW214865   5.411   4.465   3.250  0.2702 -1.5594 -0.0611
 3340SOL     OW14866   4.373   6.933   5.835 -0.6767  0.4012  0.7735
 3340SOL    HW114867   4.395   6.864   5.897 -1.2964  0.5296  1.1384
 3340SOL    HW214868   4.436   6.922   5.764 -0.3088 -0.0849  1.1683
 3341SOL     OW14869   1.795   6.466   6.559 -0.4464  0.0169  0.1927
 3341SOL    HW114870   1.890   6.453   6.552 -0.4924  0.1219 -0.6043
 3341SOL    HW214871   1.769   6.503   6.475 -0.8907  1.9522  1.1313
 3342SOL     OW14872   6.034   2.824   6.189 -0.2024 -0.4512 -0.2033
 3342SOL    HW114873   5.991   2.876   6.121 -0.5233  0.2818  0.5387
 3342SOL    HW214874   6.098   2.771   6.142  0.4102  0.9029 -0.9412
 3343SOL     OW14875   2.715   3.239   6.741  0.6763  0.2596  0.0332
 3343SOL    HW114876   2.797   3.198   6.713  0.3826  0.6647 -1.4804
 3343SOL    HW214877   2.646   3.186   6.700  0.2409  1.1506 -0.4155
 3344SOL     OW14878   8.256   3.749   7.007 -0.0255 -0.4050  0.6321
 3344SOL    HW114879   8.255   3.739   7.102 -0.6776  0.9000  0.7932
 3344SOL    HW214880   8.348   3.745   6.983  0.2759  0.6182  1.5087
 3345SOL     OW14881   5.066   8.567   2.494 -0.4386  0.4091 -0.3786
 3345SOL    HW114882   5.007   8.492   2.504 -0.0424  0.2008  0.5262
 3345SOL    HW214883   5.023   8.637   2.543 -1.0814  0.9641 -1.6715
 3346SOL     OW14884   3.723   9.119   3.797 -0.1813  0.0067  0.3663
 3346SOL    HW114885   3.704   9.162   3.713  0.4321  0.2428  0.3400
 3346SOL    HW214886   3.694   9.182   3.863  1.8891  1.0984  0.3474
 3347SOL     OW14887   6.381   2.085   7.333 -0.3323 -0.0325 -0.1591
 3347SOL    HW114888   6.410   2.016   7.274  1.1361  1.0283 -0.7522
 3347SOL    HW214889   6.287   2.072   7.342 -0.8042  0.3390 -3.5202
 3348SOL     OW14890   5.505   6.701   1.872  0.5774 -0.6636 -0.7211
 3348SOL    HW114891   5.455   6.753   1.809  1.1026  0.3393 -0.3173
 3348SOL    HW214892   5.446   6.629   1.895 -0.2936 -0.0628 -1.0305
 3349SOL     OW14893   3.746   2.389   5.545  0.0560  0.1928  0.2346
 3349SOL    HW114894   3.725   2.462   5.486  0.3525 -0.7118 -1.0471
 3349SOL    HW214895   3.684   2.397   5.617 -0.9284  0.8388 -0.6572
 3350SOL     OW14896   6.934   8.806   4.787  0.0693  0.1970 -0.3614
 3350SOL    HW114897   6.882   8.868   4.838 -0.2299  0.2762 -0.7557
 3350SOL    HW214898   6.930   8.840   4.697  1.3663  0.5868 -0.2920
 3351SOL     OW14899   2.049   7.851   1.075 -0.5641 -0.5854  0.1853
 3351SOL    HW114900   2.078   7.886   0.990 -1.5228 -0.1803  0.0097
 3351SOL    HW214901   2.109   7.778   1.092  0.2476 -0.0780 -0.3799
 3352SOL     OW14902   9.306   5.765   3.811  0.0100  0.0148 -0.3463
 3352SOL    HW114903   9.259   5.806   3.738  0.6379  0.1629 -0.6715
 3352SOL    HW214904   9.377   5.717   3.770  0.2007 -0.1374  0.1534
 3353SOL     OW14905   3.836   1.046   7.028  0.2746 -0.0142 -0.0412
 3353SOL    HW114906   3.882   1.120   7.067  2.9673 -1.7487  0.3323
 3353SOL    HW214907   3.837   0.979   7.097 -0.7606 -0.9231 -0.8737
 3354SOL     OW14908   4.289   8.631   7.378 -0.0692  0.0461  0.1154
 3354SOL    HW114909   4.283   8.725   7.361  0.7073  0.0882  0.0548
 3354SOL    HW214910   4.211   8.594   7.336 -0.6702  0.7165  0.6045
 3355SOL     OW14911   0.741   6.259   4.864  0.0596 -0.6391  0.0837
 3355SOL    HW114912   0.679   6.258   4.791 -1.8714  1.2699  1.5733
 3355SOL    HW214913   0.708   6.327   4.922  3.0434 -0.2242  1.4623
 3356SOL     OW14914   9.198   6.319   4.230  0.2791 -0.2330  0.1771
 3356SOL    HW114915   9.203   6.269   4.148  0.7893  0.8936 -0.5049
 3356SOL    HW214916   9.286   6.313   4.267  0.3082  0.0591  0.1538
 3357SOL     OW14917   6.484   2.357   7.322  0.3365  0.0657 -0.0098
 3357SOL    HW114918   6.547   2.369   7.252  0.2825 -0.5712 -0.1742
 3357SOL    HW214919   6.495   2.266   7.350  0.2789  0.2722  0.7258
 3358SOL     OW14920   9.663   5.927   0.194  0.0573  0.5495 -0.2243
 3358SOL    HW114921   9.734   5.883   0.241  1.1871  0.7852 -1.6239
 3358SOL    HW214922   9.626   5.987   0.258 -0.1530 -0.9258  1.1047
 3359SOL     OW14923   0.187   6.821   3.367 -0.4459 -0.1213  0.1077
 3359SOL    HW114924   0.135   6.764   3.311 -1.8732  0.8681  0.3533
 3359SOL    HW214925   0.273   6.779   3.372 -0.6733 -0.8906 -1.7576
 3360SOL     OW14926   3.112   8.906   3.830  0.0385 -0.3050  0.5037
 3360SOL    HW114927   3.185   8.965   3.845  0.5208 -0.8499  0.3429
 3360SOL    HW214928   3.080   8.884   3.917 -0.7170  0.8783  0.5467
 3361SOL     OW14929   7.866   5.694   0.511 -0.4796  0.0509 -0.1930
 3361SOL    HW114930   7.818   5.764   0.557 -1.4496 -0.0069 -1.0767
 3361SOL    HW214931   7.808   5.618   0.515  1.3850 -1.3945  2.5087
 3362SOL     OW14932   5.683   0.798   1.532 -0.1866  0.5593 -0.2118
 3362SOL    HW114933   5.729   0.754   1.603 -1.0304  1.1341  0.7214
 3362SOL    HW214934   5.602   0.749   1.522 -0.8277  1.4570  0.3823
 3363SOL     OW14935   3.542   3.929   5.958  0.1417 -0.0447 -0.0511
 3363SOL    HW114936   3.630   3.944   5.992  0.6039 -0.7937 -0.8932
 3363SOL    HW214937   3.529   3.999   5.893 -0.3494  0.7672  0.8919
 3364SOL     OW14938   3.582   2.371   9.322  0.3070 -0.5031 -0.2002
 3364SOL    HW114939   3.644   2.421   9.268 -0.1849  0.1573 -0.1733
 3364SOL    HW214940   3.626   2.361   9.406 -0.2899  1.4912  0.4029
 3365SOL     OW14941   3.365   2.183   0.211  0.4585  0.0611  0.3445
 3365SOL    HW114942   3.326   2.135   0.137  1.0110 -0.1353  0.1721
 3365SOL    HW214943   3.344   2.131   0.288 -1.6257  1.1557  0.5796
 3366SOL     OW14944   5.615   4.253   1.650 -0.1449 -0.0071 -0.2037
 3366SOL    HW114945   5.590   4.181   1.591 -0.5594 -0.3511  0.3862
 3366SOL    HW214946   5.532   4.284   1.687  0.2591 -1.1349  1.7473
 3367SOL     OW14947   3.937   9.268   6.796  0.0861 -0.2436  0.2828
 3367SOL    HW114948   3.939   9.174   6.816  0.0794 -0.6964 -1.6512
 3367SOL    HW214949   4.027   9.290   6.773 -0.1988 -0.1540 -0.7843
 3368SOL     OW14950   9.422   7.110   9.609  0.3816 -0.2456  0.1926
 3368SOL    HW114951   9.414   7.075   9.520 -2.7381  0.3367  0.1336
 3368SOL    HW214952   9.399   7.202   9.600  0.9170  0.0266  1.4823
 3369SOL     OW14953   6.200   4.884   8.170  0.3441 -0.0526 -0.0201
 3369SOL    HW114954   6.239   4.888   8.082  1.5591  2.0056  0.5421
 3369SOL    HW214955   6.130   4.950   8.168  0.3530 -0.0200  0.5432
 3370SOL     OW14956   1.764   7.250   1.815  0.0684  0.0713  0.1349
 3370SOL    HW114957   1.829   7.192   1.855 -0.3920 -1.3172 -1.0322
 3370SOL    HW214958   1.774   7.333   1.861  3.1017  0.1173 -0.4073
 3371SOL     OW14959   7.309   4.835   9.231 -0.0388 -0.4704 -0.2171
 3371SOL    HW114960   7.290   4.896   9.160 -1.3212  0.5996  1.0013
 3371SOL    HW214961   7.404   4.824   9.228  0.1255  0.9182 -0.9929
 3372SOL     OW14962   0.924   0.971   2.675 -0.3757  0.5900 -0.0391
 3372SOL    HW114963   0.915   0.919   2.754  0.6213  0.7299  0.1815
 3372SOL    HW214964   0.867   0.929   2.611 -1.1098  0.4178  0.7171
 3373SOL     OW14965   9.734   9.402   7.825  0.2429  0.4286  0.6586
 3373SOL    HW114966   9.814   9.407   7.877  0.8908  1.1370 -0.3686
 3373SOL    HW214967   9.683   9.479   7.852  0.2068  0.3452  0.8320
 3374SOL     OW14968   8.693   4.669   2.350  0.4575 -0.1687 -0.2988
 3374SOL    HW114969   8.659   4.640   2.265  0.0022  1.3010 -0.6561
 3374SOL    HW214970   8.750   4.598   2.379  0.8333 -0.5778 -1.9561
 3375SOL     OW14971   0.175   3.793   1.646  0.1654  0.2833  0.1685
 3375SOL    HW114972   0.248   3.742   1.614 -0.7347  0.1981 -1.9351
 3375SOL    HW214973   0.157   3.856   1.575 -1.3875  0.6961  0.8871
 3376SOL     OW14974   9.473   1.771   6.610  0.3164 -0.0712  0.2983
 3376SOL    HW114975   9.465   1.676   6.616 -0.7289 -0.2962 -2.8078
 3376SOL    HW214976   9.392   1.805   6.649 -2.1506 -0.8773 -3.6173
 3377SOL     OW14977   5.567   4.830   8.898 -0.1533  0.3714  0.4723
 3377SOL    HW114978   5.560   4.735   8.893 -1.9702  0.5125 -0.6940
 3377SOL    HW214979   5.639   4.852   8.839  0.7959 -0.2994  1.3455
 3378SOL     OW14980   4.652   8.085   5.519 -0.4149  0.4489  0.5515
 3378SOL    HW114981   4.672   8.175   5.496  1.4270  0.1543  0.8577
 3378SOL    HW214982   4.557   8.082   5.525 -0.5637  2.0863 -0.5708
 3379SOL     OW14983   7.134   3.730   4.811 -0.0399 -0.0914  0.2151
 3379SOL    HW114984   7.135   3.672   4.735 -0.8169 -1.9981  1.5910
 3379SOL    HW214985   7.129   3.818   4.773  0.9003 -0.8901 -1.9402
 3380SOL     OW14986   0.681   1.773   7.030 -0.0604 -0.2901  0.1685
 3380SOL    HW114987   0.729   1.844   7.074 -1.2618  1.4771 -1.2594
 3380SOL    HW214988   0.593   1.807   7.018 -0.7497 -2.1443 -0.3635
 3381SOL     OW14989   8.524   8.766   4.280 -0.2738 -0.3188 -0.1843
 3381SOL    HW114990   8.577   8.715   4.219 -0.3184 -1.1075  0.4219
 3381SOL    HW214991   8.587   8.824   4.324 -0.4124  1.1847 -1.8458
 3382SOL     OW14992   2.085   8.011   2.761  0.2622 -0.4790  0.6774
 3382SOL    HW114993   2.150   8.058   2.709  1.0872  0.1618  2.1925
 3382SOL    HW214994   2.043   7.952   2.700  3.0678 -1.7536 -0.1911
 3383SOL     OW14995   2.194   2.676   2.486  0.1534 -0.0944 -0.5661
 3383SOL    HW114996   2.146   2.613   2.540 -0.2165 -0.7604 -1.6399
 3383SOL    HW214997   2.128   2.742   2.463 -0.0467 -0.5303 -1.2942
 3384SOL     OW14998   0.511   1.829   5.049  0.1986  0.4569 -0.7441
 3384SOL    HW114999   0.577   1.898   5.044  0.2594  0.5169  0.5492
 3384SOL    HW215000   0.446   1.854   4.983  0.6482  1.2770 -0.8955
 3385SOL     OW15001   5.905   0.422   6.897 -0.1521  0.4427  0.3736
 3385SOL    HW115002   5.829   0.410   6.953  0.2578  1.8380  1.2823
 3385SOL    HW215003   5.968   0.357   6.929 -0.7425 -0.3442 -0.0258
 3386SOL     OW15004   7.167   5.185   8.819 -0.1003  0.3355 -0.2489
 3386SOL    HW115005   7.089   5.239   8.814 -1.1808 -1.1414  0.1478
 3386SOL    HW215006   7.203   5.187   8.730 -2.8829 -2.1947 -1.6029
 3387SOL     OW15007   3.613   2.710   2.085 -0.1303  0.4641  0.1925
 3387SOL    HW115008   3.622   2.730   2.179  0.3971 -1.8033  0.6871
 3387SOL    HW215009   3.545   2.643   2.081  0.6048 -0.2454 -0.9167
 3388SOL     OW15010   3.766   2.383   4.478 -0.6249 -0.5737 -0.6599
 3388SOL    HW115011   3.811   2.400   4.560  0.1663 -1.0841 -0.9706
 3388SOL    HW215012   3.675   2.409   4.494 -0.3779 -0.2142  0.2125
 3389SOL     OW15013   1.028   1.696   7.124 -0.3374 -0.2186 -0.2202
 3389SOL    HW115014   1.083   1.771   7.147 -1.8543  0.8744 -0.0422
 3389SOL    HW215015   0.939   1.730   7.124 -0.8657 -1.2687 -3.0591
 3390SOL     OW15016   9.267   5.988   6.006  0.0791 -0.3703 -0.0685
 3390SOL    HW115017   9.359   6.001   5.982 -0.0428 -0.7853 -0.7815
 3390SOL    HW215018   9.227   6.074   5.993 -0.0582 -0.6587 -1.7378
 3391SOL     OW15019   6.773   6.750   2.941 -0.5519  0.1334 -0.2598
 3391SOL    HW115020   6.760   6.689   2.868 -1.1946 -0.9990  0.7695
 3391SOL    HW215021   6.688   6.753   2.985 -0.4084  1.4563 -0.0257
 3392SOL     OW15022   2.776   2.285   5.522 -0.7535  0.2404 -0.0726
 3392SOL    HW115023   2.827   2.345   5.469  0.6697  0.4489  1.4312
 3392SOL    HW215024   2.705   2.339   5.558 -0.0002  0.8232  0.5672
 3393SOL     OW15025   1.556   2.264   4.197  0.1216 -0.3211 -0.2913
 3393SOL    HW115026   1.534   2.194   4.135 -0.3450 -1.8805  1.5211
 3393SOL    HW215027   1.483   2.264   4.260 -0.1301  2.1616 -0.4705
 3394SOL     OW15028   2.060   3.880   8.944 -0.5857 -0.4349  0.1064
 3394SOL    HW115029   1.978   3.925   8.965 -0.2173 -0.3019  1.3633
 3394SOL    HW215030   2.093   3.850   9.029  0.5626 -0.6749 -0.4057
 3395SOL     OW15031   6.230   7.143   7.291 -0.1924  0.5143  0.1190
 3395SOL    HW115032   6.262   7.107   7.208 -0.4927 -1.6424  0.8631
 3395SOL    HW215033   6.135   7.144   7.281 -0.2771 -0.5822  0.7296
 3396SOL     OW15034   2.507   4.472   2.393 -0.0215 -0.1066  0.5360
 3396SOL    HW115035   2.549   4.396   2.351 -0.8269 -0.9509  1.2084
 3396SOL    HW215036   2.469   4.521   2.321 -2.9530 -2.4814  0.2590
 3397SOL     OW15037   0.240   5.274   9.713  0.0516 -0.1821  0.2079
 3397SOL    HW115038   0.272   5.335   9.780 -1.0948 -0.9056  1.4582
 3397SOL    HW215039   0.259   5.187   9.748  0.1722 -0.5697 -0.7923
 3398SOL     OW15040   5.926   1.819   6.484 -0.4481  0.1530 -0.1359
 3398SOL    HW115041   5.866   1.880   6.443 -1.6595 -1.5666 -1.0543
 3398SOL    HW215042   5.976   1.782   6.411  1.5132  1.2672  0.5706
 3399SOL     OW15043   0.019   4.249   5.010 -0.0772 -0.1815 -0.3544
 3399SOL    HW115044  -0.076   4.243   5.020  0.1941 -3.2700  1.7351
 3399SOL    HW215045   0.052   4.265   5.098  1.3923  0.3933 -0.9705
 3400SOL     OW15046   8.849   1.183   3.332  0.1224  0.8541  0.5974
 3400SOL    HW115047   8.937   1.212   3.358  0.2644 -0.3496  1.5557
 3400SOL    HW215048   8.790   1.233   3.388  0.2951  0.4612  1.1465
 3401SOL     OW15049   2.768   4.725   1.989  0.0319 -0.1235 -0.1126
 3401SOL    HW115050   2.683   4.731   2.034  0.2204 -1.1316  0.4149
 3401SOL    HW215051   2.805   4.812   1.998 -0.2557 -0.1001  1.0900
 3402SOL     OW15052   6.371   0.559   2.230  0.7510  0.3517  0.0863
 3402SOL    HW115053   6.378   0.492   2.162 -1.3078  0.9329 -0.7884
 3402SOL    HW215054   6.365   0.641   2.182 -0.1226  0.8404  0.9909
 3403SOL     OW15055   6.627   2.998   2.479  0.4139 -0.2952  0.3350
 3403SOL    HW115056   6.623   3.024   2.387 -0.4161 -2.5862 -0.3411
 3403SOL    HW215057   6.616   2.903   2.478  1.3586 -0.5124  2.7497
 3404SOL     OW15058   6.853   3.030   8.170 -0.1763 -1.0649  0.1430
 3404SOL    HW115059   6.801   3.014   8.091 -0.2835 -0.4932  0.0934
 3404SOL    HW215060   6.942   3.043   8.139 -0.2626 -0.5884  0.0895
 3405SOL     OW15061   7.953   3.418   5.357 -0.2709  0.2546 -0.0827
 3405SOL    HW115062   7.944   3.507   5.391  2.1871  0.9415 -1.0189
 3405SOL    HW215063   8.025   3.380   5.407 -0.4963 -0.7847 -0.5151
 3406SOL     OW15064   6.304   6.214   1.746  0.2727  0.0497 -0.0346
 3406SOL    HW115065   6.254   6.136   1.771  0.5069  0.4245  1.7523
 3406SOL    HW215066   6.244   6.287   1.763  0.5599  0.3441 -0.2747
 3407SOL     OW15067   0.546   1.054   3.997 -0.1950 -0.1116 -0.0195
 3407SOL    HW115068   0.597   1.123   3.955 -0.7958 -0.3728 -1.2249
 3407SOL    HW215069   0.594   1.035   4.078  0.5985  0.9140 -0.2268
 3408SOL     OW15070   1.993   5.997   5.502  0.2587 -0.6699  0.0407
 3408SOL    HW115071   1.966   5.985   5.592 -0.1248  1.1230  0.2112
 3408SOL    HW215072   2.080   6.037   5.508 -0.7661  1.7672 -0.2669
 3409SOL     OW15073   9.229   3.390   5.175 -0.1215 -0.1649 -0.3750
 3409SOL    HW115074   9.241   3.366   5.267 -2.7527  1.8578  0.6218
 3409SOL    HW215075   9.259   3.480   5.169  0.2186 -0.3437 -1.5780
 3410SOL     OW15076   6.405   8.348   9.210 -0.0812 -0.5515  0.1783
 3410SOL    HW115077   6.481   8.324   9.263  1.6761 -1.0200 -2.3572
 3410SOL    HW215078   6.340   8.281   9.228  0.8888 -1.3286  0.8722
 3411SOL     OW15079   3.540   1.283   4.769 -0.0433 -0.6252  0.6391
 3411SOL    HW115080   3.534   1.226   4.692 -2.0131 -0.8823  0.9244
 3411SOL    HW215081   3.488   1.238   4.836  2.3207 -0.8429  2.4562
 3412SOL     OW15082   8.312   0.894   0.545  0.2490 -0.7731  0.1756
 3412SOL    HW115083   8.239   0.929   0.494  1.5859  3.2717  0.6645
 3412SOL    HW215084   8.271   0.855   0.623 -1.4383 -0.6841 -0.6308
 3413SOL     OW15085   7.080   6.857   7.423  0.0597  0.2452 -0.4868
 3413SOL    HW115086   6.987   6.874   7.407 -0.0631  0.1061  0.0517
 3413SOL    HW215087   7.095   6.769   7.389 -0.5959 -0.7279  1.6277
 3414SOL     OW15088   3.105   8.942   5.367 -0.1941 -0.0088 -0.0722
 3414SOL    HW115089   3.022   8.941   5.414 -0.4734 -0.2969 -0.5627
 3414SOL    HW215090   3.157   9.009   5.411 -0.7021  0.1987  0.2153
 3415SOL     OW15091   7.383   1.410   5.716  0.1870  0.3969 -0.1418
 3415SOL    HW115092   7.322   1.479   5.744 -1.4516 -0.7050 -0.8006
 3415SOL    HW215093   7.388   1.350   5.790 -1.5531 -0.7956 -0.9086
 3416SOL     OW15094   2.288   4.289   2.345  0.2855 -0.4796 -0.0164
 3416SOL    HW115095   2.316   4.228   2.413  0.8520 -0.2995 -0.0859
 3416SOL    HW215096   2.336   4.370   2.363  1.5268 -0.8667 -1.4442
 3417SOL     OW15097   7.995   1.609   6.839  0.1839  0.5234 -0.4833
 3417SOL    HW115098   8.032   1.668   6.905 -0.7452  0.2002  0.3508
 3417SOL    HW215099   7.941   1.665   6.784 -0.6882  0.4694  0.3014
 3418SOL     OW15100   4.088   4.724   1.362 -0.4454  0.2768  0.4075
 3418SOL    HW115101   4.179   4.727   1.393 -0.4463 -0.6149  0.5301
 3418SOL    HW215102   4.083   4.793   1.296  0.5847 -0.2842 -0.2918
 3419SOL     OW15103   2.681   0.822   8.565 -0.2478  0.3836 -0.3652
 3419SOL    HW115104   2.760   0.873   8.581 -0.5571  0.7075  0.1595
 3419SOL    HW215105   2.646   0.857   8.483  0.5034 -0.2224 -0.9747
 3420SOL     OW15106   1.756   4.353   0.212 -0.3990 -0.7018 -0.3044
 3420SOL    HW115107   1.837   4.391   0.245  0.2920 -1.5800 -0.9355
 3420SOL    HW215108   1.688   4.386   0.271  0.2597  0.8742 -0.3696
 3421SOL     OW15109   9.745   5.261   0.876  0.1147  0.5744  0.2489
 3421SOL    HW115110   9.687   5.337   0.881 -1.2667 -0.4521  0.3830
 3421SOL    HW215111   9.689   5.186   0.894  0.9005 -0.7282 -2.1789
 3422SOL     OW15112   2.716   8.318   1.436  0.2626  0.2086 -0.0502
 3422SOL    HW115113   2.663   8.285   1.509 -0.2615  0.6711 -0.2091
 3422SOL    HW215114   2.758   8.396   1.472  4.2006 -2.3062  1.4361
 3423SOL     OW15115   1.892   6.084   8.807 -0.7073 -0.1901 -0.3552
 3423SOL    HW115116   1.815   6.139   8.790 -0.3825  0.7097  0.9022
 3423SOL    HW215117   1.955   6.143   8.849  0.4923 -1.0289 -0.9157
 3424SOL     OW15118   7.648   1.711   6.927 -0.0600  0.4034 -0.1196
 3424SOL    HW115119   7.695   1.764   6.862  1.5493 -1.8290 -0.8999
 3424SOL    HW215120   7.716   1.685   6.990 -0.8085 -0.6543  0.2809
 3425SOL     OW15121   3.188   0.662   9.050 -0.0179 -0.2325 -0.5574
 3425SOL    HW115122   3.113   0.720   9.062 -0.2995 -0.8393  0.8660
 3425SOL    HW215123   3.241   0.704   8.983 -1.1433  0.7047 -0.8836
 3426SOL     OW15124   8.305   3.030   6.938  0.0325 -0.0429 -0.2523
 3426SOL    HW115125   8.279   2.945   6.903 -0.0186  0.5463 -1.7125
 3426SOL    HW215126   8.227   3.084   6.930  0.5040  0.5688 -0.7909
 3427SOL     OW15127   5.745   4.286   3.033  0.1487 -0.0048  0.2909
 3427SOL    HW115128   5.687   4.332   2.972 -0.1080  0.6504  1.0074
 3427SOL    HW215129   5.734   4.194   3.011 -1.7501  0.0285  0.8640
 3428SOL     OW15130   8.321   0.199   0.338  0.2836 -0.5943  0.1690
 3428SOL    HW115131   8.245   0.155   0.375  0.9807  0.2933  2.9080
 3428SOL    HW215132   8.390   0.133   0.338  0.3639 -0.5098  0.7665
 3429SOL     OW15133   0.947   4.857   1.269  0.2743 -0.3214  0.2260
 3429SOL    HW115134   0.950   4.924   1.200 -0.9347 -0.4212  0.0395
 3429SOL    HW215135   0.887   4.790   1.234  3.2929 -2.7808 -0.6854
 3430SOL     OW15136   2.596   5.614   1.100 -0.4612 -0.0921 -0.0466
 3430SOL    HW115137   2.543   5.690   1.077  1.1175  0.9419 -0.4150
 3430SOL    HW215138   2.588   5.607   1.195 -0.7729  0.4366 -0.0302
 3431SOL     OW15139   7.931   9.325   3.440  0.5242  0.7877  0.2654
 3431SOL    HW115140   7.987   9.367   3.375 -1.6615 -0.7037 -2.8193
 3431SOL    HW215141   7.989   9.263   3.485  1.8986  1.0164 -1.1125
 3432SOL     OW15142   8.487   0.926   5.938  0.4231  0.2698 -0.0724
 3432SOL    HW115143   8.582   0.932   5.945  0.5607 -0.6635 -0.9339
 3432SOL    HW215144   8.457   0.912   6.028  1.2933 -1.7045 -0.0396
 3433SOL     OW15145   7.405   0.270   4.162 -0.4043 -0.1171 -0.0728
 3433SOL    HW115146   7.404   0.304   4.073  1.3184 -1.0812 -0.5133
 3433SOL    HW215147   7.495   0.285   4.192  0.0247 -2.7910  0.2499
 3434SOL     OW15148   2.615   1.528   3.758 -0.0874 -0.4242  0.5629
 3434SOL    HW115149   2.666   1.448   3.747 -0.3118 -0.2328 -2.9504
 3434SOL    HW215150   2.667   1.595   3.713 -0.6472  1.1144  2.1010
 3435SOL     OW15151   4.083   6.949   5.873  0.0315 -0.2758  0.2185
 3435SOL    HW115152   4.031   6.950   5.954  0.1119  0.3241  0.2679
 3435SOL    HW215153   4.173   6.960   5.903  0.0982 -0.4354  0.0727
 3436SOL     OW15154   8.075   1.667   7.925 -0.1382 -0.2972 -0.1918
 3436SOL    HW115155   8.146   1.602   7.927 -0.6989 -0.9621  2.4518
 3436SOL    HW215156   8.004   1.623   7.879  0.1546 -0.8155 -0.1607
 3437SOL     OW15157   4.032   0.233   3.927  0.6222  0.1334 -0.2670
 3437SOL    HW115158   4.089   0.295   3.973  0.8418 -0.3429  0.1193
 3437SOL    HW215159   4.088   0.196   3.859  0.8445 -0.4807  0.2386
 3438SOL     OW15160   2.926   1.655   5.819 -0.5106  0.6448 -0.2331
 3438SOL    HW115161   2.915   1.566   5.852 -0.7352  1.5031  2.2210
 3438SOL    HW215162   3.021   1.670   5.822 -0.3659  0.1467 -1.7155
 3439SOL     OW15163   9.109   1.315   7.835 -0.1779 -0.1549  0.1969
 3439SOL    HW115164   9.097   1.339   7.927  0.5970  0.0497  0.2573
 3439SOL    HW215165   9.154   1.230   7.838  0.7168  0.2977  0.0314
 3440SOL     OW15166   5.614   9.548   5.344  0.1583  0.0470 -0.1025
 3440SOL    HW115167   5.573   9.479   5.396  2.3647  0.0219  1.7636
 3440SOL    HW215168   5.561   9.626   5.361 -0.5700 -0.5199  0.2569
 3441SOL     OW15169   5.550   4.586   2.461 -0.3023  0.3984 -0.1496
 3441SOL    HW115170   5.571   4.653   2.525 -1.9662 -1.2440  2.2641
 3441SOL    HW215171   5.635   4.547   2.438  0.2279 -0.1465  2.4855
 3442SOL     OW15172   9.328   6.540   1.838  0.6712  0.4914 -0.6096
 3442SOL    HW115173   9.350   6.580   1.923  1.7860  0.7410 -0.9974
 3442SOL    HW215174   9.264   6.600   1.799 -0.4712 -0.0395  0.3832
 3443SOL     OW15175   3.599   5.269   5.228  0.8350 -0.0693 -0.0892
 3443SOL    HW115176   3.609   5.273   5.133  1.5563 -0.1757 -0.0170
 3443SOL    HW215177   3.684   5.242   5.261  0.2931 -1.1276  0.5121
 3444SOL     OW15178   6.354   1.199   0.560 -0.2762  0.3635 -0.1846
 3444SOL    HW115179   6.311   1.282   0.538  0.5158  0.6261 -0.7954
 3444SOL    HW215180   6.410   1.221   0.634 -0.4127  0.2671 -0.0531
 3445SOL     OW15181   2.982   5.589   6.718  0.4699  0.4079 -0.1832
 3445SOL    HW115182   2.900   5.619   6.678  1.9181  2.9839 -1.4761
 3445SOL    HW215183   2.961   5.580   6.811 -1.4955  0.0679 -0.6057
 3446SOL     OW15184   3.758   0.545   1.742 -0.0926  0.1715  0.1752
 3446SOL    HW115185   3.713   0.625   1.769  1.5307  0.9445  0.7286
 3446SOL    HW215186   3.705   0.474   1.779 -0.9103  1.0300  0.7049
 3447SOL     OW15187   7.384   4.922   6.192 -0.2780 -0.2166  0.1444
 3447SOL    HW115188   7.316   4.989   6.199 -0.5754 -0.1689 -2.3616
 3447SOL    HW215189   7.340   4.840   6.212 -0.3826  0.0775  1.2183
 3448SOL     OW15190   8.915   5.577   5.814  0.2489 -0.4559 -0.4311
 3448SOL    HW115191   8.845   5.560   5.751 -1.5327 -0.1655  1.3546
 3448SOL    HW215192   8.909   5.505   5.877  1.4776 -0.3247 -0.1306
 3449SOL     OW15193   3.192   6.138   0.435  0.2960 -0.1969  0.2042
 3449SOL    HW115194   3.162   6.228   0.440  1.1197  0.1203 -0.2964
 3449SOL    HW215195   3.278   6.144   0.393  0.1314 -1.2672 -0.3146
 3450SOL     OW15196   2.979   2.572   2.879  0.2241  0.2561  0.0024
 3450SOL    HW115197   2.918   2.614   2.819  0.3264  0.0051 -0.2797
 3450SOL    HW215198   3.065   2.605   2.853  0.1135  1.5301  1.1558
 3451SOL     OW15199   7.154   0.349   6.329  0.5748 -0.1771 -0.2341
 3451SOL    HW115200   7.245   0.360   6.357 -0.0663  0.6079  1.7454
 3451SOL    HW215201   7.111   0.431   6.355 -1.1489 -1.3854  0.9291
 3452SOL     OW15202   0.277   6.212   2.226 -0.7644 -0.2384  0.1779
 3452SOL    HW115203   0.242   6.154   2.159  1.5408 -2.2486  0.5906
 3452SOL    HW215204   0.346   6.261   2.182 -1.5684  1.0147  0.2597
 3453SOL     OW15205   1.685   2.495   5.317 -0.3011 -0.2775 -0.1623
 3453SOL    HW115206   1.735   2.421   5.350 -1.2127 -1.6088 -1.5974
 3453SOL    HW215207   1.751   2.559   5.291  0.5509 -0.9978  0.1636
 3454SOL     OW15208   5.593   4.130   4.719 -0.0381  0.2869  0.1481
 3454SOL    HW115209   5.625   4.041   4.733  0.5212  0.6218  1.0661
 3454SOL    HW215210   5.671   4.185   4.719 -0.4534  0.9010  0.6723
 3455SOL     OW15211   5.483   7.501   4.137  0.2213  0.2871  0.1117
 3455SOL    HW115212   5.555   7.483   4.076 -0.5923 -3.0986 -0.0349
 3455SOL    HW215213   5.405   7.469   4.092 -1.1377  2.1332  1.0424
 3456SOL     OW15214   2.288   2.600   7.528 -0.6695 -0.6309  0.1924
 3456SOL    HW115215   2.267   2.545   7.603 -1.1686 -0.8519 -0.1037
 3456SOL    HW215216   2.211   2.595   7.471 -0.0891 -0.9208 -0.5967
 3457SOL     OW15217   8.933   0.156   3.970  0.5041 -0.4203  0.7723
 3457SOL    HW115218   8.886   0.083   3.930  1.5229 -0.1971 -0.9217
 3457SOL    HW215219   8.918   0.230   3.910 -0.8754  0.9368  2.6659
 3458SOL     OW15220   1.093   8.510   8.805  0.2778 -0.4177  0.6790
 3458SOL    HW115221   1.187   8.516   8.819  0.7005 -0.2383 -1.7631
 3458SOL    HW215222   1.079   8.421   8.773 -0.2840 -0.2440  0.4276
 3459SOL     OW15223   1.728   3.666   7.779 -0.1697  0.0508  0.2357
 3459SOL    HW115224   1.683   3.587   7.809 -0.2392  0.2678  0.7103
 3459SOL    HW215225   1.796   3.681   7.845 -0.2711  0.4922  0.2403
 3460SOL     OW15226   6.544   4.932   8.081  0.1138  0.3767 -0.4287
 3460SOL    HW115227   6.597   4.864   8.040  0.4547  0.0269  0.5632
 3460SOL    HW215228   6.464   4.935   8.029  0.1289 -0.7347 -0.5370
 3461SOL     OW15229   3.253   0.556   4.039 -0.1916  0.1789 -0.1844
 3461SOL    HW115230   3.323   0.522   3.984 -0.1733  0.9730 -0.6643
 3461SOL    HW215231   3.213   0.625   3.987 -1.0832 -0.0021  0.2415
 3462SOL     OW15232   5.733   2.342   4.062  0.3297  0.5381  0.2024
 3462SOL    HW115233   5.733   2.433   4.091  0.5463  0.3725  0.7411
 3462SOL    HW215234   5.666   2.338   3.994 -0.1210  0.9639  0.6176
 3463SOL     OW15235   9.471   4.339   5.632 -0.3580  0.5255 -0.4208
 3463SOL    HW115236   9.392   4.332   5.579 -0.9654 -1.8922  0.6870
 3463SOL    HW215237   9.465   4.426   5.671 -2.3958  0.4818 -0.5117
 3464SOL     OW15238   5.645   2.010   8.226  0.2278 -0.4715 -0.4403
 3464SOL    HW115239   5.598   1.963   8.157  0.4481 -3.6772  1.4343
 3464SOL    HW215240   5.696   1.943   8.271  1.4031  1.7742  1.8165
 3465SOL     OW15241   6.464   5.328   1.747 -0.0631 -0.7167  0.5108
 3465SOL    HW115242   6.456   5.416   1.783  1.5350  0.1116 -1.0058
 3465SOL    HW215243   6.379   5.310   1.706 -0.2442  0.3360  0.4196
 3466SOL     OW15244   7.551   9.010   0.115  0.2268 -0.4253  0.5082
 3466SOL    HW115245   7.620   8.972   0.060 -1.4848 -0.8997 -1.4437
 3466SOL    HW215246   7.509   8.935   0.155 -0.4464 -0.3067  0.0415
 3467SOL     OW15247   8.746   8.472   5.795 -0.4337  0.6418  0.5856
 3467SOL    HW115248   8.762   8.546   5.854  0.7250 -0.4141  1.6573
 3467SOL    HW215249   8.832   8.436   5.778 -0.6851  1.1214 -2.1290
 3468SOL     OW15250   3.337   0.151   5.732  0.4509  0.1114 -0.1743
 3468SOL    HW115251   3.317   0.183   5.644 -0.4518  0.8840  0.2909
 3468SOL    HW215252   3.337   0.056   5.724 -1.5219  0.1096 -0.6336
 3469SOL     OW15253   3.663   5.329   2.258  0.3137  0.0564  0.1481
 3469SOL    HW115254   3.757   5.311   2.254  0.5136  0.8251  1.0487
 3469SOL    HW215255   3.651   5.406   2.203  0.4497  0.8239  1.1794
 3470SOL     OW15256   8.120   0.605   7.396  0.4003 -0.1120 -0.0202
 3470SOL    HW115257   8.038   0.611   7.444  0.6783 -2.3212  0.8372
 3470SOL    HW215258   8.179   0.666   7.441 -0.4694  0.7881 -0.0710
 3471SOL     OW15259   8.251   5.497   1.074  0.3083 -0.3634  0.4135
 3471SOL    HW115260   8.163   5.535   1.076 -0.0229 -1.0075 -0.8486
 3471SOL    HW215261   8.310   5.572   1.078 -0.2914  0.1004  0.8562
 3472SOL     OW15262   2.300   9.339   1.546  0.0046  0.2429 -0.5805
 3472SOL    HW115263   2.283   9.345   1.452 -2.4503  0.6769 -0.1818
 3472SOL    HW215264   2.216   9.310   1.584  0.4618  1.5549  1.6093
 3473SOL     OW15265   1.935   8.949   0.587 -0.4444 -0.2368 -0.3976
 3473SOL    HW115266   1.853   8.959   0.539 -0.5493  0.2080 -0.1392
 3473SOL    HW215267   1.973   8.867   0.555 -0.2670  0.2882 -1.6055
 3474SOL     OW15268   3.576   4.609   8.028  0.7400 -0.3302  0.5256
 3474SOL    HW115269   3.558   4.521   7.997  0.0616 -0.5708  1.5566
 3474SOL    HW215270   3.604   4.598   8.119  1.1275  0.4750  0.5180
 3475SOL     OW15271   7.878   5.721   2.918  0.2319 -0.2176  0.0286
 3475SOL    HW115272   7.798   5.673   2.942  0.7489 -0.8342  0.5662
 3475SOL    HW215273   7.869   5.805   2.963  0.0924 -0.4589  0.4592
 3476SOL     OW15274   6.577   9.396   5.849 -0.1124  0.1111 -0.1725
 3476SOL    HW115275   6.521   9.319   5.846  0.4397 -0.2714 -2.7089
 3476SOL    HW215276   6.607   9.400   5.940 -0.6002 -2.3467  0.1739
 3477SOL     OW15277   5.806   6.199   9.005  0.9170 -0.1587 -0.5262
 3477SOL    HW115278   5.881   6.146   8.976  1.9710  1.2969 -0.5933
 3477SOL    HW215279   5.772   6.153   9.081 -0.1711 -2.5717 -2.3619
 3478SOL     OW15280   4.117   0.874   7.561  0.2974  0.3661  0.5355
 3478SOL    HW115281   4.141   0.939   7.495  1.5583  0.9842  1.5593
 3478SOL    HW215282   4.038   0.910   7.601 -0.4791 -0.0140 -0.6078
 3479SOL     OW15283   9.365   8.673   6.372 -0.4256  0.1047 -0.4930
 3479SOL    HW115284   9.333   8.717   6.451 -0.6112  0.4776 -0.7753
 3479SOL    HW215285   9.454   8.645   6.395 -1.1600 -1.5297  0.5334
 3480SOL     OW15286   8.815   0.844   8.652 -0.4192  0.1080  0.1103
 3480SOL    HW115287   8.834   0.917   8.711  0.4594  0.3559 -0.4566
 3480SOL    HW215288   8.849   0.872   8.567  0.3632 -1.1252 -0.0182
 3481SOL     OW15289   7.285   9.141   0.172  0.4758 -0.2242  0.0742
 3481SOL    HW115290   7.361   9.110   0.221  0.6538  0.4030  0.2079
 3481SOL    HW215291   7.273   9.076   0.103 -0.0400 -1.3501  1.1913
 3482SOL     OW15292   9.350   7.076   8.631 -0.0085 -0.3204 -0.4192
 3482SOL    HW115293   9.347   6.998   8.686 -0.7505 -0.8241 -1.1577
 3482SOL    HW215294   9.423   7.127   8.667  1.0596 -1.7453 -0.4361
 3483SOL     OW15295   4.757   0.569   2.657  0.1259  0.0674  0.0403
 3483SOL    HW115296   4.682   0.627   2.669  0.7468  0.8089  0.4135
 3483SOL    HW215297   4.720   0.489   2.619 -0.5307  1.2713 -1.9574
 3484SOL     OW15298   7.876   4.158   8.960 -0.2149 -0.2243 -0.2444
 3484SOL    HW115299   7.829   4.119   9.034 -0.3896 -0.4873 -0.4921
 3484SOL    HW215300   7.952   4.201   9.000  0.8425 -2.1124 -0.0882
 3485SOL     OW15301   5.952   0.892   3.082  0.2313 -0.0451 -0.4450
 3485SOL    HW115302   5.991   0.871   2.998 -0.6288  0.3215 -0.9458
 3485SOL    HW215303   5.905   0.813   3.109  0.7424 -0.2589 -0.1629
 3486SOL     OW15304   1.811   7.505   1.342  0.1159 -0.2092  0.7927
 3486SOL    HW115305   1.732   7.555   1.363 -0.3067 -0.7090  0.4070
 3486SOL    HW215306   1.872   7.570   1.307 -0.5951 -0.0226 -0.1415
 3487SOL     OW15307   4.896   2.322   7.642  0.3143  0.6523 -0.4815
 3487SOL    HW115308   4.829   2.278   7.694  0.8080  0.3819 -0.0585
 3487SOL    HW215309   4.858   2.331   7.555 -0.9930  2.1205  0.1910
 3488SOL     OW15310   3.890   5.514   9.165 -0.2534  0.2970 -0.4007
 3488SOL    HW115311   3.833   5.590   9.176 -0.9668 -0.3441  0.4027
 3488SOL    HW215312   3.835   5.439   9.187  0.5194 -0.4446 -0.9249
 3489SOL     OW15313   8.272   2.120   6.311 -0.2650  0.3281  0.1791
 3489SOL    HW115314   8.305   2.209   6.296  3.2571 -0.9896 -0.8930
 3489SOL    HW215315   8.349   2.070   6.337 -1.7289 -2.8130 -1.0013
 3490SOL     OW15316   8.090   2.456   5.796  0.0935 -0.4114 -0.6745
 3490SOL    HW115317   8.049   2.503   5.869 -0.1781  0.8906 -1.6220
 3490SOL    HW215318   8.019   2.446   5.732  0.7695  0.1271 -1.5258
 3491SOL     OW15319   4.211   8.683   2.282 -0.3435 -0.1535  0.1410
 3491SOL    HW115320   4.144   8.714   2.344 -0.0024  2.0510 -0.4884
 3491SOL    HW215321   4.167   8.617   2.229 -1.1796 -0.7380  1.5210
 3492SOL     OW15322   6.598   0.558   6.336  0.5070  0.3107  0.2188
 3492SOL    HW115323   6.507   0.549   6.362  0.1497  0.7077 -0.8681
 3492SOL    HW215324   6.648   0.523   6.410 -0.5462 -0.7372  0.4483
 3493SOL     OW15325   6.790   4.208   5.129 -0.4415  0.1094  0.0408
 3493SOL    HW115326   6.778   4.116   5.154 -0.3559  0.4410  1.4213
 3493SOL    HW215327   6.701   4.240   5.114 -0.4905 -0.1367 -0.2036
 3494SOL     OW15328   1.443   9.239   7.234 -0.3691  0.4358  0.6003
 3494SOL    HW115329   1.387   9.260   7.159  1.0507 -0.5036 -0.7770
 3494SOL    HW215330   1.389   9.180   7.288 -0.1827 -1.9481 -1.6166
 3495SOL     OW15331   1.505   6.732   2.188 -0.7009 -0.3095  0.4544
 3495SOL    HW115332   1.525   6.729   2.281 -2.1943  0.8116  0.8446
 3495SOL    HW215333   1.412   6.752   2.184 -0.3444  1.3622 -1.2676
 3496SOL     OW15334   2.311   4.900   0.345  0.3780 -0.0476 -0.5810
 3496SOL    HW115335   2.271   4.853   0.418  0.7184  1.0421  0.3326
 3496SOL    HW215336   2.238   4.918   0.285 -0.1352  0.1278  0.0876
 3497SOL     OW15337   5.422   1.579   4.146 -0.3375 -0.0080  0.2201
 3497SOL    HW115338   5.343   1.632   4.155 -0.3497  0.4255 -1.9273
 3497SOL    HW215339   5.421   1.549   4.055  2.5140  0.9339 -0.2153
 3498SOL     OW15340   4.737   8.883   4.684 -0.6266  0.2913  0.0474
 3498SOL    HW115341   4.747   8.965   4.637 -2.2173  0.2447 -0.4249
 3498SOL    HW215342   4.657   8.844   4.649  1.0268 -2.3856 -1.1173
 3499SOL     OW15343   3.923   5.226   9.718  0.1831 -0.2904 -0.2652
 3499SOL    HW115344   3.900   5.319   9.713  2.2796  0.4359  1.4392
 3499SOL    HW215345   3.849   5.185   9.763 -0.0805  0.9032  0.4467
 3500SOL     OW15346   2.440   8.143   7.215 -0.0464  0.4635 -0.6534
 3500SOL    HW115347   2.446   8.078   7.145 -0.0684 -1.7282  1.2638
 3500SOL    HW215348   2.367   8.113   7.270  0.1774  1.9102  0.5045
 3501SOL     OW15349   0.082   5.261   8.254  0.3655  0.3265 -0.1738
 3501SOL    HW115350  -0.009   5.290   8.253 -0.0326 -0.8532  0.0397
 3501SOL    HW215351   0.094   5.217   8.170  0.2956 -0.7788  0.3773
 3502SOL     OW15352   8.686   5.080   0.644  0.1332  0.0360 -0.4262
 3502SOL    HW115353   8.715   5.164   0.678 -2.7786  0.3401  1.6945
 3502SOL    HW215354   8.724   5.015   0.702  0.2320  0.0857 -0.4355
 3503SOL     OW15355   8.145   5.764   0.542  0.6721  0.0027  0.0792
 3503SOL    HW115356   8.056   5.741   0.515  0.6800 -0.7586  0.6832
 3503SOL    HW215357   8.170   5.835   0.483  0.1202 -0.6054 -0.9130
 3504SOL     OW15358   6.207   6.761   2.522  0.7991 -0.5890  0.0141
 3504SOL    HW115359   6.153   6.768   2.444  1.6267 -0.7539 -0.5869
 3504SOL    HW215360   6.152   6.796   2.593  0.5003  0.7880 -0.8569
 3505SOL     OW15361   7.829   2.057   6.271 -0.3392 -0.3086 -0.5121
 3505SOL    HW115362   7.822   2.047   6.176 -2.7769  0.0249 -0.4506
 3505SOL    HW215363   7.832   2.151   6.285  1.1933 -0.3737 -0.2724
 3506SOL     OW15364   9.055   9.579   2.503  0.0710 -0.0700  0.6816
 3506SOL    HW115365   9.135   9.588   2.451  0.6117  0.6801  1.6120
 3506SOL    HW215366   9.033   9.486   2.497  0.4149 -0.0842 -0.4474
 3507SOL     OW15367   3.410   9.731   5.399  0.0809  0.1737  0.0162
 3507SOL    HW115368   3.322   9.765   5.384  0.3115  0.4066 -0.8960
 3507SOL    HW215369   3.416   9.655   5.341 -0.2463 -1.1668  1.6484
 3508SOL     OW15370   4.996   7.900   9.305 -0.0094  0.0229  0.4743
 3508SOL    HW115371   5.054   7.969   9.334  1.4219 -0.5490 -0.8962
 3508SOL    HW215372   4.927   7.945   9.256  0.5480  0.5415  0.1554
 3509SOL     OW15373   6.789   1.692   2.628 -0.0114 -0.6135  0.5316
 3509SOL    HW115374   6.881   1.674   2.649  0.2159 -2.1528 -1.5492
 3509SOL    HW215375   6.753   1.608   2.602 -1.4373  0.3336 -0.7609
 3510SOL     OW15376   2.844   2.040   4.794  0.7240  0.1217 -0.6446
 3510SOL    HW115377   2.751   2.058   4.803  0.6660  0.5413 -1.8520
 3510SOL    HW215378   2.849   1.976   4.723  1.2590 -1.1690  0.5049
 3511SOL     OW15379   1.021   5.689   1.578  0.4580  0.5941 -0.5412
 3511SOL    HW115380   0.959   5.672   1.648  1.4561 -0.9484  0.0133
 3511SOL    HW215381   0.970   5.678   1.497 -0.7204  2.4786 -0.1073
 3512SOL     OW15382   8.322   9.287   1.525  0.3158  0.2486  0.4231
 3512SOL    HW115383   8.255   9.351   1.500 -1.0253 -1.2221  0.1055
 3512SOL    HW215384   8.274   9.216   1.567  1.7450 -0.6410  0.6417
 3513SOL     OW15385   7.365   8.321   8.511 -0.2829 -0.6735  0.2116
 3513SOL    HW115386   7.454   8.349   8.530 -0.6662  0.9956 -0.3086
 3513SOL    HW215387   7.352   8.244   8.567  1.6523 -1.2931 -0.1342
 3514SOL     OW15388   3.373   6.230   2.497 -0.6998  0.0539 -0.2936
 3514SOL    HW115389   3.293   6.283   2.494 -1.4096 -0.8173  1.7872
 3514SOL    HW215390   3.348   6.148   2.454  0.1863  1.0278 -2.8523
 3515SOL     OW15391   2.687   1.745   2.530 -0.2387 -0.0540  0.4296
 3515SOL    HW115392   2.605   1.732   2.578 -0.3726  1.3155  0.5924
 3515SOL    HW215393   2.733   1.662   2.540 -2.7891 -1.9894 -2.0528
 3516SOL     OW15394   0.889   2.216   8.530  0.0290  0.3281  0.0042
 3516SOL    HW115395   0.819   2.153   8.518 -0.5219  0.5110  1.8625
 3516SOL    HW215396   0.961   2.166   8.568  0.1642  0.5125 -0.0044
 3517SOL     OW15397   1.186   0.509   3.409  0.3772  0.1818 -0.2960
 3517SOL    HW115398   1.106   0.554   3.381 -0.9104  0.0116  2.7929
 3517SOL    HW215399   1.169   0.417   3.388 -0.9465 -0.0741  1.6620
 3518SOL     OW15400   6.259   0.925   3.155 -0.0474  0.0897 -0.4153
 3518SOL    HW115401   6.166   0.924   3.131 -0.4589 -1.2158  1.0433
 3518SOL    HW215402   6.281   0.833   3.169  1.8482  0.2318 -1.9550
 3519SOL     OW15403   2.338   3.623   1.508  0.9934 -0.2866  0.1451
 3519SOL    HW115404   2.306   3.580   1.428  3.0373 -0.4656 -0.6238
 3519SOL    HW215405   2.332   3.717   1.489  0.0828 -0.2893  0.3746
 3520SOL     OW15406   2.250   7.857   2.961 -0.2766 -0.1516 -0.1363
 3520SOL    HW115407   2.268   7.834   2.870 -0.4530 -0.6442 -0.0515
 3520SOL    HW215408   2.313   7.806   3.012  1.7432  2.2046 -0.0796
 3521SOL     OW15409   3.075   1.291   7.658 -0.2983  0.1234  0.1507
 3521SOL    HW115410   2.997   1.254   7.699 -0.5839 -0.1353 -0.5942
 3521SOL    HW215411   3.048   1.379   7.632  0.3150  0.8029  1.7345
 3522SOL     OW15412   1.851   6.581   8.387 -0.2165 -0.3059  0.1352
 3522SOL    HW115413   1.886   6.616   8.305 -1.6695  0.6439 -0.1186
 3522SOL    HW215414   1.863   6.652   8.450 -1.6895  0.0606  0.0273
 3523SOL     OW15415   4.991   7.565   2.264 -0.0464 -0.5337  0.1655
 3523SOL    HW115416   5.009   7.475   2.235 -1.0130 -1.4705  2.2117
 3523SOL    HW215417   5.070   7.589   2.313 -0.2233 -0.7034  0.5387
 3524SOL     OW15418   5.365   2.001   8.349 -0.1020  0.2201  0.1593
 3524SOL    HW115419   5.349   2.095   8.357 -2.2745 -0.2703  3.2018
 3524SOL    HW215420   5.459   1.994   8.332 -0.3009  2.9266 -3.2171
 3525SOL     OW15421   1.488   3.100   9.516  0.2860  0.3205  0.4152
 3525SOL    HW115422   1.512   3.012   9.486  0.0640 -0.1432  1.5269
 3525SOL    HW215423   1.479   3.091   9.611 -0.7582  1.3050  0.4362
 3526SOL     OW15424   2.538   1.139   8.147 -0.0319  0.0430 -0.4573
 3526SOL    HW115425   2.474   1.081   8.107  0.3865  0.6948 -2.1528
 3526SOL    HW215426   2.492   1.223   8.155 -0.7029 -0.4765  2.1608
 3527SOL     OW15427   6.571   4.588   6.729 -0.5301  0.4540 -0.5647
 3527SOL    HW115428   6.590   4.508   6.778 -0.8250 -0.0382 -1.2294
 3527SOL    HW215429   6.482   4.575   6.695 -0.5622  1.0463 -0.7236
 3528SOL     OW15430   7.695   5.412   5.910 -0.0855 -0.1051 -0.0942
 3528SOL    HW115431   7.751   5.334   5.910  0.5790  0.3535 -0.7115
 3528SOL    HW215432   7.722   5.461   5.988  0.3560  0.0928 -0.3655
 3529SOL     OW15433   2.587   9.488   9.723 -0.6728  0.0862  0.2853
 3529SOL    HW115434   2.496   9.485   9.692 -1.1681 -0.7429  1.7235
 3529SOL    HW215435   2.590   9.565   9.780 -0.6345 -0.2088  0.6878
 3530SOL     OW15436   2.823   4.696   2.951 -0.0576 -0.0261  0.0719
 3530SOL    HW115437   2.878   4.700   2.873  0.1098  0.4893  0.2133
 3530SOL    HW215438   2.803   4.603   2.962  2.8645 -0.6086  1.4438
 3531SOL     OW15439   0.399   2.574   8.166  0.0110  0.9517 -0.0335
 3531SOL    HW115440   0.439   2.651   8.127  0.2697  1.5466  1.3250
 3531SOL    HW215441   0.465   2.505   8.157 -0.2083  0.8796 -1.2218
 3532SOL     OW15442   0.988   2.659   4.833  0.0126 -0.1864 -0.1406
 3532SOL    HW115443   0.973   2.604   4.756  0.5754  0.2166 -0.5549
 3532SOL    HW215444   0.977   2.748   4.801  0.3465 -0.0100  0.2215
 3533SOL     OW15445   7.079   7.773   5.901 -0.0536 -0.1615 -0.3033
 3533SOL    HW115446   7.112   7.714   5.969 -0.0499 -0.2076 -0.3448
 3533SOL    HW215447   6.999   7.810   5.937 -0.9661 -1.4497 -0.9236
 3534SOL     OW15448   4.514   2.442   6.672 -0.3368 -0.1597 -0.3503
 3534SOL    HW115449   4.597   2.455   6.716 -1.1825  1.3382  0.9065
 3534SOL    HW215450   4.529   2.472   6.582  0.6105 -0.4175 -0.2852
 3535SOL     OW15451   8.474   4.262   4.631 -0.2667  0.5566  0.2642
 3535SOL    HW115452   8.503   4.268   4.540  1.2527  1.5149  0.7702
 3535SOL    HW215453   8.390   4.216   4.627  0.2407 -0.3087 -1.5240
 3536SOL     OW15454   5.078   5.298   3.536  0.3795 -0.3023 -0.0043
 3536SOL    HW115455   5.044   5.360   3.601  2.0764 -0.4485  1.1049
 3536SOL    HW215456   5.003   5.242   3.515 -0.2822 -0.1581  1.7422
 3537SOL     OW15457   2.455   2.784   2.566 -0.7008 -0.4229  0.4306
 3537SOL    HW115458   2.452   2.830   2.482  0.2112  0.1247  0.6850
 3537SOL    HW215459   2.380   2.725   2.564 -1.0493  0.0401 -0.5077
 3538SOL     OW15460   8.869   8.206   8.811 -0.1687 -0.3197 -0.5289
 3538SOL    HW115461   8.775   8.191   8.799  0.0283 -0.8716 -1.4828
 3538SOL    HW215462   8.900   8.126   8.855  0.0325 -0.6127 -1.1894
 3539SOL     OW15463   1.086   9.528   7.167  0.6524  0.0574 -0.7810
 3539SOL    HW115464   1.095   9.623   7.160  2.4072 -0.0717 -0.8765
 3539SOL    HW215465   1.112   9.509   7.258 -0.1547 -0.2864 -0.6204
 3540SOL     OW15466   7.231   1.311   3.554  0.2082 -0.2044  0.0191
 3540SOL    HW115467   7.149   1.299   3.506  1.5119 -1.8154 -2.0260
 3540SOL    HW215468   7.236   1.405   3.571 -1.3605  0.1222 -1.1175
 3541SOL     OW15469   0.992   6.486   8.419 -0.4252  0.3553 -0.2139
 3541SOL    HW115470   0.914   6.451   8.378  0.0810  0.2428 -1.0949
 3541SOL    HW215471   1.056   6.495   8.348  0.9985 -1.3303  0.7688
 3542SOL     OW15472   2.801   1.741   3.440 -0.0474 -0.0929  0.0304
 3542SOL    HW115473   2.768   1.829   3.459  0.6437  0.3339 -0.7045
 3542SOL    HW215474   2.849   1.716   3.519 -0.0328  0.2903  0.1449
 3543SOL     OW15475   6.398   0.006   5.164 -0.7686 -0.0789  0.0763
 3543SOL    HW115476   6.412   0.101   5.164 -0.0412 -0.1787  1.0214
 3543SOL    HW215477   6.302  -0.003   5.164 -0.8733  0.6834  1.4789
 3544SOL     OW15478   3.543   7.891   8.135  0.1918 -0.4822 -0.2371
 3544SOL    HW115479   3.597   7.934   8.202  1.7959  0.9663 -2.3275
 3544SOL    HW215480   3.473   7.849   8.185  0.4083  1.7867  2.2613
 3545SOL     OW15481   6.494   3.811   0.441  0.0647 -0.1211  0.2515
 3545SOL    HW115482   6.438   3.835   0.367  1.2958 -0.3545 -0.7949
 3545SOL    HW215483   6.582   3.810   0.405  0.5720 -1.4904  1.4166
 3546SOL     OW15484   8.729   0.185   6.866  0.1530  0.1974  0.4947
 3546SOL    HW115485   8.807   0.212   6.817  1.4057  0.6369  2.5925
 3546SOL    HW215486   8.723   0.091   6.851  1.1865  0.1283  0.4369
 3547SOL     OW15487   7.612   5.376   6.797  0.6747 -0.2871  0.2283
 3547SOL    HW115488   7.539   5.429   6.829  0.7479 -0.7397  1.1752
 3547SOL    HW215489   7.598   5.290   6.835  1.2958 -0.5902 -0.2044
 3548SOL     OW15490   7.080   6.696   9.227  0.1074 -0.3822  0.4846
 3548SOL    HW115491   7.127   6.691   9.144  1.0267  2.0732  0.7800
 3548SOL    HW215492   7.148   6.705   9.293 -0.6479 -1.5043  1.4486
 3549SOL     OW15493   5.432   1.915   9.063  0.5235  0.1740  0.4626
 3549SOL    HW115494   5.503   1.979   9.056  0.1718  0.4452 -0.8056
 3549SOL    HW215495   5.432   1.870   8.979  0.2906 -1.0065  1.0788
 3550SOL     OW15496   0.241   3.296   8.702 -0.1115 -0.3852 -0.5973
 3550SOL    HW115497   0.303   3.283   8.630 -0.2204 -0.2987 -0.7069
 3550SOL    HW215498   0.158   3.316   8.659 -0.0788  0.1113 -0.4458
 3551SOL     OW15499   9.286   0.812   1.804 -0.1490  0.4479  0.2142
 3551SOL    HW115500   9.293   0.718   1.821  1.7430  0.7768  1.6567
 3551SOL    HW215501   9.258   0.819   1.713 -2.0409 -1.4920  0.5823
 3552SOL     OW15502   0.554   5.179   5.342 -0.4497 -0.3225  0.1389
 3552SOL    HW115503   0.528   5.117   5.409  0.4762 -1.5585 -0.6012
 3552SOL    HW215504   0.587   5.254   5.391 -1.4032 -0.4775  1.0473
 3553SOL     OW15505   9.715   8.609   6.671  0.1567  0.3022  0.8612
 3553SOL    HW115506   9.685   8.583   6.583 -2.2914  0.6909  1.5015
 3553SOL    HW215507   9.686   8.538   6.728  1.3975  0.2365  1.4418
 3554SOL     OW15508   5.726   3.845   5.752  0.0955  0.5047  0.0482
 3554SOL    HW115509   5.725   3.837   5.847 -1.8529 -0.7821 -0.0315
 3554SOL    HW215510   5.699   3.759   5.720  0.4573  0.9906 -1.6737
 3555SOL     OW15511   3.165   0.269   3.704  0.1304 -0.3499  0.1365
 3555SOL    HW115512   3.115   0.351   3.703 -1.4389 -1.2635  0.5623
 3555SOL    HW215513   3.135   0.222   3.626  1.9773  0.0016 -0.8225
 3556SOL     OW15514   3.027   5.804   8.854  0.1025 -0.2528  0.2818
 3556SOL    HW115515   3.072   5.783   8.772  0.0740  0.1483  0.1603
 3556SOL    HW215516   3.098   5.814   8.917  0.0852 -1.3102  0.4896
 3557SOL     OW15517   7.680   2.319   4.003  0.0977  0.3158  0.2881
 3557SOL    HW115518   7.658   2.408   3.975  1.2389  0.8325  0.9918
 3557SOL    HW215519   7.596   2.282   4.030 -0.4156  1.1227 -0.1504
 3558SOL     OW15520   2.404   7.181   3.895  1.0904  0.2123 -0.0008
 3558SOL    HW115521   2.446   7.097   3.879  0.3812 -0.2581  0.5807
 3558SOL    HW215522   2.327   7.161   3.948  1.1439  1.2693  0.5248
 3559SOL     OW15523   2.659   5.880   0.339 -0.1686  0.5800  0.0728
 3559SOL    HW115524   2.739   5.929   0.359  0.4251 -0.3770  0.0841
 3559SOL    HW215525   2.588   5.938   0.367  0.5270  1.2466  0.4963
 3560SOL     OW15526   5.021   6.525   8.299 -0.1717 -1.0593 -0.0484
 3560SOL    HW115527   5.114   6.514   8.279 -0.1224 -0.8643  0.0718
 3560SOL    HW215528   4.977   6.455   8.250 -0.0836 -0.3910 -1.1139
 3561SOL     OW15529   2.091   2.254   7.484  0.1654  0.2185 -0.0018
 3561SOL    HW115530   2.098   2.242   7.389 -3.1054  1.2633 -0.5225
 3561SOL    HW215531   2.131   2.176   7.521  0.8435 -0.6007 -2.2832
 3562SOL     OW15532   3.521   1.459   1.313  0.5232  0.0777 -0.5124
 3562SOL    HW115533   3.570   1.380   1.292  0.6054 -0.4249  1.3840
 3562SOL    HW215534   3.449   1.461   1.250 -0.4443 -2.4048  0.4119
 3563SOL     OW15535   0.991   3.464   9.664  0.0889  0.1269 -0.0008
 3563SOL    HW115536   1.017   3.482   9.754 -0.9178  0.8325  0.1692
 3563SOL    HW215537   0.906   3.508   9.654  0.0631 -0.1521 -1.2133
 3564SOL     OW15538   6.952   8.974   6.930  0.3830 -0.2985  0.1200
 3564SOL    HW115539   6.955   8.890   6.975  1.3187  0.6547  1.9964
 3564SOL    HW215540   6.921   9.036   6.997  1.3981  1.1239 -0.6591
 3565SOL     OW15541   3.475   4.529   2.269  0.0038  0.4783 -0.4258
 3565SOL    HW115542   3.400   4.548   2.326  0.9892  1.2061  0.6911
 3565SOL    HW215543   3.483   4.605   2.212  0.2843  0.7059 -0.0880
 3566SOL     OW15544   0.760   9.613   6.988  0.1198 -0.5855  0.5613
 3566SOL    HW115545   0.818   9.649   7.055  0.4736  1.2127 -0.6185
 3566SOL    HW215546   0.794   9.525   6.971  1.4302 -0.2086  1.1274
 3567SOL     OW15547   1.723   0.783   5.103 -0.3743 -0.1068 -0.4183
 3567SOL    HW115548   1.780   0.707   5.092 -0.3778 -0.5822  2.2958
 3567SOL    HW215549   1.783   0.855   5.124 -0.4757  0.4478 -1.8613
 3568SOL     OW15550   1.516   6.240   4.331 -0.5017  0.3048 -0.4879
 3568SOL    HW115551   1.559   6.316   4.292  0.7642  0.6413  1.4420
 3568SOL    HW215552   1.495   6.267   4.421  0.6151 -1.8233  0.4975
 3569SOL     OW15553   2.332   7.891   0.070  0.1289 -0.0250  0.1172
 3569SOL    HW115554   2.251   7.935   0.096  0.0161 -1.7873  3.2191
 3569SOL    HW215555   2.402   7.946   0.106  0.1502 -0.1986  0.3463
 3570SOL     OW15556   8.254   8.285   8.393  0.4681  0.0862  0.2597
 3570SOL    HW115557   8.203   8.353   8.437 -0.3865 -0.3212 -0.0819
 3570SOL    HW215558   8.257   8.312   8.302 -3.8948 -2.5282 -0.9448
 3571SOL     OW15559   5.852   5.141   9.455 -0.4209  0.4391  0.9637
 3571SOL    HW115560   5.889   5.226   9.480 -0.9498  1.2344 -0.8449
 3571SOL    HW215561   5.919   5.102   9.398 -1.4954  1.0674 -0.7960
 3572SOL     OW15562   4.290   7.901   2.125 -0.0523 -0.3477 -0.0790
 3572SOL    HW115563   4.378   7.864   2.134  0.2715  0.6859  1.3733
 3572SOL    HW215564   4.304   7.986   2.082 -0.4453 -0.5253 -0.5712
 3573SOL     OW15565   7.064   2.608   7.446  0.5223  0.3980 -0.2723
 3573SOL    HW115566   7.056   2.605   7.350 -1.7146 -2.4521 -0.1225
 3573SOL    HW215567   7.153   2.577   7.462  0.7655  0.4415 -1.4083
 3574SOL     OW15568   6.594   6.868   4.995  0.2608  0.6872 -0.3539
 3574SOL    HW115569   6.587   6.859   4.900 -1.0927  2.8516 -0.5125
 3574SOL    HW215570   6.554   6.788   5.029  0.8807 -0.1854 -1.5794
 3575SOL     OW15571   5.603   6.263   4.422 -0.3890 -0.1354 -0.0167
 3575SOL    HW115572   5.591   6.346   4.469  0.9219  1.1816 -1.8837
 3575SOL    HW215573   5.562   6.198   4.479  1.6382  1.2060  3.3110
 3576SOL     OW15574   1.957   5.236   8.855  0.3479  0.2765 -0.4282
 3576SOL    HW115575   1.922   5.325   8.855  2.4091  1.2418  2.7048
 3576SOL    HW215576   2.014   5.233   8.777 -0.7834  1.1869 -1.3300
 3577SOL     OW15577   0.163   1.403   0.802  0.5062  0.5193  0.2209
 3577SOL    HW115578   0.078   1.359   0.797  1.7452 -2.1316  1.0668
 3577SOL    HW215579   0.214   1.351   0.863  3.1273  1.4263 -1.0512
 3578SOL     OW15580   9.170   8.549   0.814  0.9551 -0.4192 -0.0781
 3578SOL    HW115581   9.157   8.644   0.818 -1.4283 -0.7322  3.6137
 3578SOL    HW215582   9.092   8.516   0.770  0.9767 -0.7636  0.1401
 3579SOL     OW15583   0.235   3.072   8.342  0.5315 -0.3260 -0.3238
 3579SOL    HW115584   0.299   3.088   8.411 -0.2480  1.1564  0.0974
 3579SOL    HW215585   0.260   3.132   8.272 -0.1600  0.0053 -0.2985
 3580SOL     OW15586   4.299   2.676   9.501 -0.2387 -0.2950 -0.1792
 3580SOL    HW115587   4.383   2.711   9.532  0.2614 -2.6248  1.3968
 3580SOL    HW215588   4.233   2.735   9.538  0.5530 -0.8903  2.4024
 3581SOL     OW15589   9.413   8.446   0.688  0.1622  0.4074 -0.0356
 3581SOL    HW115590   9.339   8.466   0.745  0.0634 -0.0975  0.0194
 3581SOL    HW215591   9.383   8.374   0.633  0.9807 -0.5813  0.7661
 3582SOL     OW15592   7.098   3.845   0.598 -0.6524  0.7570  0.0763
 3582SOL    HW115593   7.187   3.810   0.594 -0.4676  1.3168 -1.2395
 3582SOL    HW215594   7.097   3.899   0.676  0.5770  1.7882 -0.5814
 3583SOL     OW15595   2.997   9.338   5.594  0.4452  0.5155  0.4537
 3583SOL    HW115596   2.996   9.303   5.683 -2.0916 -0.2231  0.2080
 3583SOL    HW215597   2.931   9.408   5.594  2.1911  2.2617 -0.2527
 3584SOL     OW15598   2.138   5.049   1.246 -0.1352  0.4747 -0.6681
 3584SOL    HW115599   2.142   4.955   1.263 -0.3939  0.6753  0.6878
 3584SOL    HW215600   2.202   5.087   1.306 -0.5447  1.2066 -0.6730
 3585SOL     OW15601   6.905   1.348   3.096  0.2293 -0.3692  0.1116
 3585SOL    HW115602   6.847   1.411   3.138  2.1082  1.9792 -0.5799
 3585SOL    HW215603   6.847   1.289   3.048 -1.6113  1.4312  0.0032
 3586SOL     OW15604   9.637   5.209   4.688 -0.0664 -0.2433 -0.2212
 3586SOL    HW115605   9.543   5.221   4.698 -0.2158 -1.7157  0.3427
 3586SOL    HW215606   9.672   5.218   4.776  0.4517  1.1002 -0.5357
 3587SOL     OW15607   5.926   1.263   0.209 -0.3630  0.5210  0.5127
 3587SOL    HW115608   5.945   1.297   0.121 -0.3701 -0.4835  0.1162
 3587SOL    HW215609   5.847   1.210   0.197 -0.3556  0.3685  1.1263
 3588SOL     OW15610   6.898   2.090   7.931  0.0182 -0.0242  0.3973
 3588SOL    HW115611   6.898   2.000   7.897 -2.9321 -0.2314  0.6613
 3588SOL    HW215612   6.820   2.094   7.987 -0.0490  2.7490  0.2353
 3589SOL     OW15613   7.776   1.633   8.263 -0.4869  0.0326 -0.0453
 3589SOL    HW115614   7.732   1.560   8.306 -0.8997  0.0575 -0.4153
 3589SOL    HW215615   7.739   1.711   8.305  0.8507  0.0226  1.2143
 3590SOL     OW15616   4.231   0.778   0.432  0.1588  0.2002  0.7390
 3590SOL    HW115617   4.296   0.849   0.435 -0.2590  0.5642  1.5308
 3590SOL    HW215618   4.191   0.779   0.519 -0.8249 -0.1003  0.3034
 3591SOL     OW15619   4.816   0.930   1.000  0.2613  0.2577 -0.1699
 3591SOL    HW115620   4.812   1.009   1.053  0.2607 -1.1159  2.0334
 3591SOL    HW215621   4.775   0.863   1.055  1.1461 -1.4887 -1.5412
 3592SOL     OW15622   5.327   5.068   8.208  0.5156 -0.2324 -0.0663
 3592SOL    HW115623   5.384   5.136   8.243 -0.5177  0.8315 -0.3943
 3592SOL    HW215624   5.334   4.996   8.271  0.0552  0.9613  1.3990
 3593SOL     OW15625   5.069   5.991   5.263 -0.4793 -0.0256 -0.0072
 3593SOL    HW115626   5.078   5.995   5.358  1.0590  1.4471 -0.1618
 3593SOL    HW215627   5.021   5.910   5.246 -3.0364  0.8804  2.1434
 3594SOL     OW15628   3.236   6.484   7.308 -0.5033  0.4441  0.3846
 3594SOL    HW115629   3.216   6.396   7.278  0.4313  0.7791 -1.3454
 3594SOL    HW215630   3.267   6.473   7.398  1.5248 -1.2363 -0.4480
 3595SOL     OW15631   7.051   7.336   0.673  0.2885  0.2354  0.3071
 3595SOL    HW115632   7.126   7.394   0.690  0.2861  0.1857  0.4925
 3595SOL    HW215633   7.042   7.336   0.578 -0.6919  1.7919  0.3582
 3596SOL     OW15634   0.356   9.010   4.264  0.1957  0.0634  0.6804
 3596SOL    HW115635   0.425   8.983   4.203  0.0299 -0.7262  0.8303
 3596SOL    HW215636   0.274   8.994   4.216  0.0605 -0.6346  1.1215
 3597SOL     OW15637   7.317   4.142   9.562  0.1050 -0.0835  0.0891
 3597SOL    HW115638   7.234   4.125   9.516 -0.2409  0.0072  0.6661
 3597SOL    HW215639   7.361   4.208   9.509 -0.0597 -0.3501 -0.3813
 3598SOL     OW15640   0.637   9.586   0.337  0.2590  1.1111  0.1667
 3598SOL    HW115641   0.670   9.654   0.278 -0.5676  0.1861 -1.4434
 3598SOL    HW215642   0.559   9.552   0.292  0.8343 -1.1141  0.7429
 3599SOL     OW15643   4.249   2.717   9.186 -0.1889  0.2959 -0.0048
 3599SOL    HW115644   4.172   2.774   9.182 -0.0785  0.4459 -0.0221
 3599SOL    HW215645   4.290   2.739   9.270  0.0166  0.4517 -0.1487
 3600SOL     OW15646   9.703   2.147   2.048  0.7984 -0.2015  0.1625
 3600SOL    HW115647   9.612   2.152   2.021  0.9943 -1.0896 -0.7231
 3600SOL    HW215648   9.753   2.157   1.967  1.5372  1.4230  0.7816
 3601SOL     OW15649   9.022   6.407   1.893  0.8196  0.4675 -0.0450
 3601SOL    HW115650   8.943   6.458   1.873  0.3102  0.1868  1.1286
 3601SOL    HW215651   9.042   6.431   1.984  1.9798  0.3827 -0.2731
 3602SOL     OW15652   3.537   3.456   6.443  0.0892  0.2691  0.3493
 3602SOL    HW115653   3.458   3.406   6.420  0.3569 -0.1088  0.2332
 3602SOL    HW215654   3.609   3.395   6.425  0.3353  0.1061  1.7924
 3603SOL     OW15655   3.039   8.643   0.456  0.2135 -0.3989  0.1648
 3603SOL    HW115656   3.060   8.660   0.364  0.5556 -0.4922  0.2239
 3603SOL    HW215657   3.093   8.568   0.479  0.4896 -0.0820  0.5751
 3604SOL     OW15658   7.509   5.734   1.102  0.0310  0.4753 -0.2055
 3604SOL    HW115659   7.503   5.663   1.038 -1.2469  0.0230  0.3865
 3604SOL    HW215660   7.577   5.791   1.068  0.0163 -0.2396 -1.4929
 3605SOL     OW15661   9.704   8.437   7.822  0.0195  0.3571  0.1745
 3605SOL    HW115662   9.702   8.439   7.918  0.0256 -1.7438  0.2687
 3605SOL    HW215663   9.796   8.452   7.800  0.4687 -1.4088  0.6540
 3606SOL     OW15664   4.784   7.674   5.267  0.4808  0.2799  0.4564
 3606SOL    HW115665   4.854   7.615   5.296 -0.5237 -1.1765  0.0343
 3606SOL    HW215666   4.783   7.664   5.172  0.3540  1.0581  0.3753
 3607SOL     OW15667   6.493   8.206   1.285 -0.3563 -0.0512 -0.0913
 3607SOL    HW115668   6.526   8.148   1.216 -0.5831  1.0503 -1.1599
 3607SOL    HW215669   6.545   8.183   1.362 -0.1622 -1.3794 -0.5836
 3608SOL     OW15670   7.043   2.923   0.671 -0.3662 -0.4324 -0.6593
 3608SOL    HW115671   6.996   2.857   0.721 -0.4079  1.1336  1.4825
 3608SOL    HW215672   6.975   2.982   0.637 -0.1484  0.4520  0.3890
 3609SOL     OW15673   5.088   5.827   6.959 -0.6847  0.3678 -0.0541
 3609SOL    HW115674   5.051   5.788   6.879  1.1343 -0.8906 -0.3458
 3609SOL    HW215675   5.055   5.772   7.030 -0.7203  0.2893 -0.1315
 3610SOL     OW15676   3.404   9.004   1.035 -0.1542 -0.3100  0.4715
 3610SOL    HW115677   3.328   8.962   0.995  0.2105 -0.4944 -0.0316
 3610SOL    HW215678   3.410   9.089   0.991 -1.1775  0.5120  1.8137
 3611SOL     OW15679   8.280   9.282   5.275 -0.2754  0.4313  0.1715
 3611SOL    HW115680   8.234   9.286   5.191  0.7447 -2.6253 -0.6693
 3611SOL    HW215681   8.371   9.298   5.253 -0.0324 -0.1522  0.7385
 3612SOL     OW15682   6.962   6.405   1.686  0.4917 -0.1408 -0.3235
 3612SOL    HW115683   7.006   6.473   1.738 -1.0941  3.2179 -2.9947
 3612SOL    HW215684   6.999   6.414   1.598 -1.8952 -0.6361 -1.4586
 3613SOL     OW15685   8.882   8.095   2.352 -0.2777 -0.1637 -0.2201
 3613SOL    HW115686   8.961   8.043   2.368 -0.7970 -0.9262 -0.0925
 3613SOL    HW215687   8.868   8.088   2.257 -0.5252 -0.5412 -0.1617
 3614SOL     OW15688   6.984   3.424   0.329  0.3646  0.5140  0.0721
 3614SOL    HW115689   7.029   3.504   0.355  0.0153  0.7208  0.0474
 3614SOL    HW215690   7.032   3.393   0.252  1.5488 -0.2254  1.0815
 3615SOL     OW15691   2.965   5.761   3.298 -0.1648 -0.2061 -0.2100
 3615SOL    HW115692   3.004   5.681   3.263  1.7047  0.7351 -0.3778
 3615SOL    HW215693   2.871   5.749   3.284  0.2203 -1.4155 -2.2964
 3616SOL     OW15694   7.998   6.170   3.282 -0.0457 -0.3305  0.0055
 3616SOL    HW115695   7.930   6.130   3.227 -1.4743  0.4547  1.1308
 3616SOL    HW215696   8.071   6.184   3.222 -1.0597 -0.7078 -1.3892
 3617SOL     OW15697   1.295   3.684   9.162 -0.0809  0.3733  0.1651
 3617SOL    HW115698   1.292   3.669   9.257  0.8486 -1.8518 -0.0971
 3617SOL    HW215699   1.381   3.722   9.146  0.4652 -0.8242  0.0833
 3618SOL     OW15700   0.691   7.147   5.250  0.1517 -0.2608  0.6141
 3618SOL    HW115701   0.683   7.196   5.332  1.8663  0.4433  0.4005
 3618SOL    HW215702   0.780   7.111   5.251  0.8705  1.1893 -1.6566
 3619SOL     OW15703   3.792   6.650   1.683 -0.4178 -0.8258 -0.2439
 3619SOL    HW115704   3.795   6.633   1.589 -2.4338  0.6180 -0.6231
 3619SOL    HW215705   3.884   6.662   1.708  0.1507 -1.2533 -2.0078
 3620SOL     OW15706   2.576   4.481   4.362  0.0783  0.5860  0.1750
 3620SOL    HW115707   2.665   4.454   4.340 -0.6757 -0.1373 -2.2626
 3620SOL    HW215708   2.585   4.530   4.444  2.5219 -0.5303  0.6395
 3621SOL     OW15709   7.250   3.462   9.352  0.0609  0.0732  0.3202
 3621SOL    HW115710   7.270   3.382   9.303 -0.5441  0.7338 -1.0433
 3621SOL    HW215711   7.163   3.488   9.320  0.7936  1.9931 -0.2190
 3622SOL     OW15712   1.065   5.029   4.954  0.4502  0.2339 -0.8280
 3622SOL    HW115713   1.084   5.024   4.860  0.1870 -0.7975 -0.8306
 3622SOL    HW215714   1.057   4.938   4.983  1.0982  0.5257  0.3258
 3623SOL     OW15715   2.046   4.781   1.120 -0.4977  0.3158  0.2599
 3623SOL    HW115716   1.950   4.784   1.126 -0.5064  0.9491 -0.1101
 3623SOL    HW215717   2.071   4.712   1.182 -1.2149 -0.1202  0.0851
 3624SOL     OW15718   1.216   5.876   7.745  0.2722 -0.7545  0.0926
 3624SOL    HW115719   1.263   5.832   7.816 -0.1149 -1.6923 -0.2187
 3624SOL    HW215720   1.153   5.932   7.789  1.9285  0.8558  0.5284
 3625SOL     OW15721   5.731   6.516   7.746  0.5813  0.2466 -1.1484
 3625SOL    HW115722   5.730   6.548   7.836  1.5556 -1.0172 -0.6703
 3625SOL    HW215723   5.672   6.441   7.746  1.2860 -0.3176 -1.3301
 3626SOL     OW15724   6.336   5.197   2.308  0.7656 -0.2294  0.1855
 3626SOL    HW115725   6.390   5.132   2.354  1.0342 -0.2760 -0.1970
 3626SOL    HW215726   6.394   5.272   2.294  1.4592 -1.1475 -2.2873
 3627SOL     OW15727   9.606   7.717   1.366 -0.1406  0.2008  0.4825
 3627SOL    HW115728   9.649   7.653   1.309  1.1179  1.5695 -0.1522
 3627SOL    HW215729   9.518   7.726   1.329  0.8085  1.4460 -1.6329
 3628SOL     OW15730   9.267   5.517   1.926  0.5550  0.3803 -0.1810
 3628SOL    HW115731   9.254   5.502   2.020  1.6343  1.3226  0.1428
 3628SOL    HW215732   9.180   5.540   1.893  0.2459  0.4828  0.6750
 3629SOL     OW15733   6.721   6.592   1.438  0.8122 -0.2517  0.2828
 3629SOL    HW115734   6.764   6.581   1.523 -0.3493 -1.8054  0.7388
 3629SOL    HW215735   6.662   6.666   1.450  0.0511 -0.9624  1.1510
 3630SOL     OW15736   9.342   8.200   9.354 -0.0114  0.5052 -0.3694
 3630SOL    HW115737   9.399   8.125   9.370 -2.9213 -1.9092 -0.3381
 3630SOL    HW215738   9.294   8.212   9.436 -1.5692  0.5309 -1.2375
 3631SOL     OW15739   1.507   4.630   1.224  0.2178  0.2925  0.4472
 3631SOL    HW115740   1.414   4.645   1.244  0.4348  2.6454  0.0695
 3631SOL    HW215741   1.551   4.638   1.308  0.1477 -0.0490  0.5158
 3632SOL     OW15742   1.005   2.033   2.452 -0.1130 -0.3316  0.3003
 3632SOL    HW115743   1.088   2.077   2.430  0.0303 -0.4752  0.5515
 3632SOL    HW215744   0.964   2.090   2.516 -1.1936  0.8140 -1.3329
 3633SOL     OW15745   1.562   6.232   0.764  0.1012 -0.1450  0.3458
 3633SOL    HW115746   1.472   6.251   0.739  0.6415  0.6787 -1.1481
 3633SOL    HW215747   1.562   6.233   0.860 -1.3643  0.3731  0.3549
 3634SOL     OW15748   6.988   1.823   3.554 -0.0537 -0.1079 -0.2361
 3634SOL    HW115749   6.947   1.746   3.515  1.2582 -0.4221 -1.0440
 3634SOL    HW215750   7.063   1.842   3.498 -0.0565  1.4777  0.2290
 3635SOL     OW15751   8.182   1.833   2.325  0.2465 -0.2807  0.1606
 3635SOL    HW115752   8.258   1.890   2.339  1.5223 -1.8998  0.0921
 3635SOL    HW215753   8.150   1.814   2.414  1.2184 -1.2349  0.3343
 3636SOL     OW15754   6.027   2.111   7.488 -0.5763  0.3614 -0.2584
 3636SOL    HW115755   6.061   2.070   7.409 -0.3455 -1.1142  0.5605
 3636SOL    HW215756   6.082   2.188   7.502  0.6401 -0.4521 -0.4611
 3637SOL     OW15757   4.879   8.451   4.269 -0.4011 -0.5385  0.2603
 3637SOL    HW115758   4.867   8.403   4.350  0.6004  0.1399  0.8357
 3637SOL    HW215759   4.793   8.450   4.227 -0.4249 -2.7286  0.2853
 3638SOL     OW15760   2.736   4.155   5.710 -0.1312  0.0890  0.2552
 3638SOL    HW115761   2.786   4.102   5.772 -1.0972 -2.1228 -0.7227
 3638SOL    HW215762   2.651   4.169   5.753  0.4654  1.7790  0.9319
 3639SOL     OW15763   1.135   1.543   2.504  0.2833  0.2763 -0.1163
 3639SOL    HW115764   1.059   1.527   2.559  0.3494 -1.5701 -0.4971
 3639SOL    HW215765   1.189   1.603   2.555 -0.5460  0.1209  0.9805
 3640SOL     OW15766   2.839   2.061   6.562  0.0716  0.3918  0.4402
 3640SOL    HW115767   2.906   2.006   6.522 -0.8280 -0.4340  0.0506
 3640SOL    HW215768   2.843   2.143   6.513  1.7314  0.8803  1.3227
 3641SOL     OW15769   0.245   2.492   5.092 -0.3540 -0.1642  0.5087
 3641SOL    HW115770   0.311   2.468   5.157 -0.7925 -0.8119  0.7175
 3641SOL    HW215771   0.296   2.524   5.017  0.1872 -0.4619  0.7460
 3642SOL     OW15772   2.546   4.176   1.550  0.0239  0.0492 -0.0211
 3642SOL    HW115773   2.510   4.208   1.467  1.3057  0.8226 -0.3045
 3642SOL    HW215774   2.639   4.166   1.534  0.4638  1.0889  1.5697
 3643SOL     OW15775   8.998   1.704   2.759 -0.0161  0.3191  0.1113
 3643SOL    HW115776   9.073   1.760   2.780  1.0744 -0.5542 -1.2816
 3643SOL    HW215777   8.975   1.727   2.669 -0.9620  0.0585  0.2774
 3644SOL     OW15778   0.679   5.202   1.234  0.6521 -0.0006  0.3195
 3644SOL    HW115779   0.712   5.194   1.324  1.6760  1.0205  0.0681
 3644SOL    HW215780   0.585   5.219   1.244  0.5949 -0.7439  1.1544
 3645SOL     OW15781   7.434   1.204   6.214  0.1821 -0.2586 -0.0890
 3645SOL    HW115782   7.393   1.211   6.300 -2.3200  1.1014 -1.3036
 3645SOL    HW215783   7.527   1.224   6.230 -0.5887  2.1719  1.9856
 3646SOL     OW15784   6.181   1.798   0.719 -0.2106  0.0675  0.2003
 3646SOL    HW115785   6.187   1.889   0.692  0.6286  0.1122  0.4927
 3646SOL    HW215786   6.130   1.755   0.651 -0.3217  0.6894 -0.1114
 3647SOL     OW15787   2.523   0.031   3.381 -0.2263 -0.3723  0.3901
 3647SOL    HW115788   2.548  -0.061   3.381 -1.5470 -0.8115  2.4670
 3647SOL    HW215789   2.428   0.030   3.392 -0.0776  1.2017  2.3326
 3648SOL     OW15790   5.853   5.991   0.590 -0.1218  0.7299 -0.4419
 3648SOL    HW115791   5.848   5.896   0.580 -0.9639  0.6866  0.2466
 3648SOL    HW215792   5.782   6.025   0.535 -0.2137  0.9130 -0.2140
 3649SOL     OW15793   4.609   9.248   3.610  0.8217  0.2485  0.8701
 3649SOL    HW115794   4.587   9.177   3.550 -0.9747  1.9832 -0.6696
 3649SOL    HW215795   4.705   9.246   3.615  0.9260 -0.9646 -0.7852
 3650SOL     OW15796   9.021   5.811   0.999 -0.3654 -0.3269  0.1608
 3650SOL    HW115797   8.932   5.783   1.020 -0.5087 -0.1633 -0.2247
 3650SOL    HW215798   9.014   5.905   0.984 -0.5251 -0.6267 -1.9055
 3651SOL     OW15799   0.874   6.394   3.583 -0.4554  0.1626 -0.1115
 3651SOL    HW115800   0.922   6.470   3.615 -0.7248  1.3349 -2.3108
 3651SOL    HW215801   0.784   6.424   3.573 -0.5959 -0.4632 -0.8836
 3652SOL     OW15802   9.602   8.179   4.263  0.2214  0.5464 -0.0352
 3652SOL    HW115803   9.514   8.159   4.294  1.0549  0.0800  2.2504
 3652SOL    HW215804   9.626   8.104   4.208 -0.9910  0.9840 -1.2203
 3653SOL     OW15805   1.945   6.477   1.850  0.1203  0.3369  0.6934
 3653SOL    HW115806   1.945   6.432   1.934  1.4653  0.7131  0.9029
 3653SOL    HW215807   2.004   6.551   1.861  0.9422 -0.0429 -0.7972
 3654SOL     OW15808   4.371   1.434   0.115  0.2040 -0.2111  0.0560
 3654SOL    HW115809   4.334   1.480   0.190  0.5403 -1.4073  0.9795
 3654SOL    HW215810   4.466   1.449   0.122  0.2833 -0.7608  0.1723
 3655SOL     OW15811   3.299   2.834   4.049 -0.2149 -0.2497  0.4159
 3655SOL    HW115812   3.359   2.807   3.980 -1.9044  0.3555 -1.3519
 3655SOL    HW215813   3.344   2.907   4.093  0.3818  0.1477 -0.8204
 3656SOL     OW15814   9.637   1.991   6.685 -0.4244 -0.2613  0.2004
 3656SOL    HW115815   9.564   1.930   6.675  0.7405 -1.9995  1.6092
 3656SOL    HW215816   9.651   1.996   6.780  0.0323  1.6405  0.0880
 3657SOL     OW15817   7.551   2.665   3.419 -0.0255  0.1969 -0.5248
 3657SOL    HW115818   7.578   2.744   3.467 -2.2518  0.0766  1.0519
 3657SOL    HW215819   7.588   2.593   3.470 -1.9932  0.0906  0.8713
 3658SOL     OW15820   4.418   7.497   5.521 -0.8368 -0.5216 -0.4940
 3658SOL    HW115821   4.463   7.432   5.575  2.7083 -0.0023 -2.4584
 3658SOL    HW215822   4.346   7.449   5.480 -0.2006 -2.3883  0.4692
 3659SOL     OW15823   3.491   8.459   8.726 -0.1412 -0.3029 -0.2306
 3659SOL    HW115824   3.535   8.486   8.645  0.8270 -1.6130 -0.1662
 3659SOL    HW215825   3.409   8.419   8.696  0.0272 -0.4229 -0.5397
 3660SOL     OW15826   1.311   9.609   1.018 -0.5766  0.2828 -0.5473
 3660SOL    HW115827   1.232   9.661   1.033 -0.0569  0.5902  1.3284
 3660SOL    HW215828   1.370   9.668   0.971 -1.6655 -0.1783 -2.6144
 3661SOL     OW15829   5.848   6.560   2.710 -0.1100  0.1996 -1.0462
 3661SOL    HW115830   5.864   6.466   2.708  0.9325  0.3428 -0.2305
 3661SOL    HW215831   5.828   6.583   2.619 -2.5180 -1.1229 -0.9261
 3662SOL     OW15832   2.284   7.602   2.564  0.2289 -0.0408 -0.1786
 3662SOL    HW115833   2.344   7.625   2.493 -2.0106  1.8783 -1.6080
 3662SOL    HW215834   2.267   7.685   2.609 -1.7077 -0.3817 -0.1787
 3663SOL     OW15835   1.139   6.846   0.161 -0.3889  0.0372  0.7162
 3663SOL    HW115836   1.119   6.764   0.116 -1.6740  0.4041  0.5956
 3663SOL    HW215837   1.166   6.819   0.248 -1.3869 -0.4935  0.8737
 3664SOL     OW15838   4.606   1.184   1.498 -0.3599  0.3272  0.1437
 3664SOL    HW115839   4.523   1.222   1.469 -0.2380  0.2821 -0.2793
 3664SOL    HW215840   4.652   1.257   1.540 -0.2481  0.5822 -0.4102
 3665SOL     OW15841   6.597   1.015   9.093  0.6940  0.0824  0.3231
 3665SOL    HW115842   6.570   1.025   9.184  0.1976 -1.3458  0.3561
 3665SOL    HW215843   6.571   1.097   9.051 -0.5709  0.1098  1.1172
 3666SOL     OW15844   8.592   2.079   2.603  0.0440 -0.6240  0.1644
 3666SOL    HW115845   8.640   2.147   2.651 -0.0442 -0.4039 -0.0544
 3666SOL    HW215846   8.656   2.010   2.587 -0.3797 -1.5867  2.2816
 3667SOL     OW15847   3.775   6.180   1.481 -0.2677 -0.0004  0.1573
 3667SOL    HW115848   3.842   6.120   1.450 -1.0963 -0.3387 -1.0489
 3667SOL    HW215849   3.693   6.135   1.464 -0.8647 -1.0024  4.4541
 3668SOL     OW15850   8.468   6.853   1.331  0.3890 -0.3684  0.0262
 3668SOL    HW115851   8.425   6.867   1.247 -0.4089 -1.4245  0.2328
 3668SOL    HW215852   8.495   6.940   1.359  1.0714 -0.0497 -1.5125
 3669SOL     OW15853   6.941   2.461   2.108 -0.6435 -0.1753  0.0189
 3669SOL    HW115854   6.907   2.372   2.116 -0.7285 -0.1066  0.4384
 3669SOL    HW215855   7.032   2.453   2.137 -0.2160 -0.4029 -1.3062
 3670SOL     OW15856   8.438   6.941   0.473  0.0392 -0.2806  0.2682
 3670SOL    HW115857   8.436   6.966   0.381 -0.7260  1.1175  0.6341
 3670SOL    HW215858   8.526   6.904   0.487  0.8956  1.3550 -0.5573
 3671SOL     OW15859   4.014   6.552   5.262  0.5697 -0.1605  0.2736
 3671SOL    HW115860   4.083   6.577   5.324 -0.0836  0.3368  0.8149
 3671SOL    HW215861   4.048   6.579   5.177  1.1523 -0.1472  0.5031
 3672SOL     OW15862   4.287   9.256   3.792 -0.1765  0.6755 -0.2423
 3672SOL    HW115863   4.290   9.241   3.697 -0.8640 -1.3561 -0.0036
 3672SOL    HW215864   4.318   9.174   3.830 -1.3648  0.8889  1.2965
 3673SOL     OW15865   5.588   7.209   0.192 -0.1697 -0.4591  0.0192
 3673SOL    HW115866   5.591   7.146   0.264 -0.7277 -0.5295 -0.0184
 3673SOL    HW215867   5.529   7.170   0.128 -0.0987 -0.1447 -0.2447
 3674SOL     OW15868   5.014   4.235   3.472 -0.3446  0.4266 -0.0949
 3674SOL    HW115869   4.999   4.228   3.566 -1.1029 -1.6734 -0.3327
 3674SOL    HW215870   4.939   4.193   3.431 -0.3785  1.8987 -1.7010
 3675SOL     OW15871   3.424   3.713   5.819 -0.2932  0.2746 -0.3902
 3675SOL    HW115872   3.489   3.779   5.844  0.7068 -0.9089  0.2743
 3675SOL    HW215873   3.342   3.762   5.809  0.3766  1.5755  0.2579
 3676SOL     OW15874   6.069   0.433   0.617 -0.6515  0.1504  0.1669
 3676SOL    HW115875   6.142   0.444   0.555 -0.9204 -0.7905 -0.3361
 3676SOL    HW215876   5.994   0.412   0.561 -1.3072  1.0514  0.6845
 3677SOL     OW15877   8.107   4.228   3.143 -0.6921 -0.0596 -0.1740
 3677SOL    HW115878   8.048   4.303   3.143  0.0459  0.5777  1.8152
 3677SOL    HW215879   8.086   4.181   3.223  0.3757 -0.7590 -0.2819
 3678SOL     OW15880   2.471   5.028   3.793 -0.2496 -0.2840  0.3111
 3678SOL    HW115881   2.441   5.101   3.847 -0.5631 -0.1440 -0.0462
 3678SOL    HW215882   2.489   4.958   3.856 -1.2250 -0.3364  0.5619
 3679SOL     OW15883   8.074   3.167   8.792 -0.5574  0.0467  0.2538
 3679SOL    HW115884   8.097   3.078   8.820 -0.3254 -0.4656 -1.4383
 3679SOL    HW215885   8.137   3.187   8.722 -3.4417 -0.3223 -2.6645
 3680SOL     OW15886   0.417   5.099   7.053  0.1537  0.2008  0.3780
 3680SOL    HW115887   0.326   5.119   7.076  0.2571  0.5065  0.5228
 3680SOL    HW215888   0.425   5.005   7.069 -0.2370  0.1028  0.0253
 3681SOL     OW15889   4.357   2.444   2.544  0.2300 -0.3080  0.3099
 3681SOL    HW115890   4.335   2.396   2.624 -1.9330 -0.6235 -0.3960
 3681SOL    HW215891   4.426   2.392   2.503  0.0963 -1.1166  1.0752
 3682SOL     OW15892   6.988   0.931   8.513  0.3279 -0.1032  0.9106
 3682SOL    HW115893   6.971   0.960   8.423  1.6660 -0.6135  0.4566
 3682SOL    HW215894   6.906   0.946   8.560 -0.0470  1.2371 -0.1146
 3683SOL     OW15895   2.152   7.039   7.960 -0.1197  0.0178  0.3614
 3683SOL    HW115896   2.066   7.058   7.997  1.2829  1.8622  3.0386
 3683SOL    HW215897   2.155   7.090   7.879 -1.2811  0.5029  0.6038
 3684SOL     OW15898   9.670   8.210   3.235 -0.2554  0.3386  0.2835
 3684SOL    HW115899   9.602   8.278   3.236 -0.2165  0.3770  0.2818
 3684SOL    HW215900   9.705   8.210   3.324  0.4424  1.0118  0.0194
 3685SOL     OW15901   4.679   3.048   5.356  0.1252 -0.1480  0.4011
 3685SOL    HW115902   4.708   3.004   5.435  0.6913 -1.3164 -0.4266
 3685SOL    HW215903   4.756   3.097   5.326  0.2454 -0.5676  0.0093
 3686SOL     OW15904   0.984   4.730   8.200  0.3577  0.4527  0.0301
 3686SOL    HW115905   1.058   4.761   8.251  1.7283  0.0122 -1.6176
 3686SOL    HW215906   1.001   4.637   8.187  1.1388  0.9245 -2.8907
 3687SOL     OW15907   5.842   3.570   9.487 -0.5095  0.6366  0.2048
 3687SOL    HW115908   5.892   3.493   9.460 -0.7048  0.8241 -0.7192
 3687SOL    HW215909   5.793   3.541   9.564 -1.9150 -0.6992 -1.1314
 3688SOL     OW15910   1.884   1.420   5.183 -0.5963  0.3431  0.2428
 3688SOL    HW115911   1.914   1.371   5.261  0.5202  1.1812  0.3666
 3688SOL    HW215912   1.865   1.508   5.216  2.7427  1.6361 -0.8257
 3689SOL     OW15913   7.256   7.076   7.444 -0.5801 -0.3753  0.4746
 3689SOL    HW115914   7.186   7.139   7.429 -0.6995 -0.8532 -1.1578
 3689SOL    HW215915   7.214   6.991   7.434  0.6478 -0.6963 -3.1329
 3690SOL     OW15916   8.790   7.105   4.875 -0.2098  0.1957  0.3481
 3690SOL    HW115917   8.828   7.038   4.819  0.3743  0.2019  0.7226
 3690SOL    HW215918   8.746   7.056   4.945 -0.2855  0.1953  0.2996
 3691SOL     OW15919   4.981   2.067   5.332  0.2368  0.7551 -0.1125
 3691SOL    HW115920   4.885   2.069   5.339  0.1960  1.8762 -0.7606
 3691SOL    HW215921   5.003   1.975   5.342 -0.9730  0.3836 -0.5796
 3692SOL     OW15922   3.469   3.357   1.153  0.5717  0.3443 -0.0211
 3692SOL    HW115923   3.509   3.437   1.186  0.5578  0.3299  0.0306
 3692SOL    HW215924   3.534   3.289   1.168  0.0959  0.1120  1.0962
 3693SOL     OW15925   5.541   5.843   6.139 -0.7589 -1.0360  0.0692
 3693SOL    HW115926   5.534   5.747   6.137  0.0144 -1.2439  3.0140
 3693SOL    HW215927   5.611   5.864   6.077  2.0136 -2.8454  2.3460
 3694SOL     OW15928   6.265   7.214   3.780  0.2862  0.2900  0.3208
 3694SOL    HW115929   6.312   7.189   3.701 -0.7117  0.9824 -0.5101
 3694SOL    HW215930   6.242   7.306   3.766 -1.6980 -0.1463  0.5040
 3695SOL     OW15931   4.258   4.196   5.932 -0.0510  0.1514  0.3333
 3695SOL    HW115932   4.280   4.238   6.015 -1.7171 -0.4713  1.1536
 3695SOL    HW215933   4.337   4.201   5.880  0.9462  0.8444  1.8536
 3696SOL     OW15934   3.078   6.208   1.990  0.3900 -0.2131 -0.3828
 3696SOL    HW115935   3.121   6.204   1.904 -0.4789  0.2982 -0.8568
 3696SOL    HW215936   2.986   6.187   1.971  0.5420 -2.0839  0.7199
 3697SOL     OW15937   5.334   8.933   9.555  0.0520  0.1694  0.4546
 3697SOL    HW115938   5.387   9.011   9.564  2.0367 -1.0767  0.1169
 3697SOL    HW215939   5.263   8.958   9.495  0.8485  1.5900  0.0754
 3698SOL     OW15940   4.658   9.048   8.143 -0.0491  0.2758  0.4510
 3698SOL    HW115941   4.564   9.054   8.129 -0.1454 -2.7490 -0.8485
 3698SOL    HW215942   4.673   8.958   8.169  2.2970  1.2321  2.9183
 3699SOL     OW15943   0.189   0.557   8.646  0.8425  0.2195  0.1309
 3699SOL    HW115944   0.121   0.579   8.711  1.3730 -0.5713  0.9812
 3699SOL    HW215945   0.271   0.563   8.695  1.2830 -0.0545 -0.5645
 3700SOL     OW15946   2.366   5.913   3.163 -0.0946 -0.7934  0.6711
 3700SOL    HW115947   2.278   5.951   3.158  0.4400  0.4370  0.2639
 3700SOL    HW215948   2.384   5.883   3.074  0.2936 -0.0808  0.4978
 3701SOL     OW15949   0.290   3.946   8.356 -0.5543  0.0517  0.1550
 3701SOL    HW115950   0.265   3.858   8.386 -0.6444  0.0324  0.0208
 3701SOL    HW215951   0.336   3.931   8.274 -0.5285  0.1271  0.1565
 3702SOL     OW15952   0.304   1.675   9.430  0.4423  0.0901 -0.2633
 3702SOL    HW115953   0.318   1.720   9.513  0.5735  0.3969 -0.4502
 3702SOL    HW215954   0.386   1.630   9.413  0.1198 -0.6828  0.2025
 3703SOL     OW15955   9.352   2.421   6.357  0.1994  0.0022  0.2373
 3703SOL    HW115956   9.350   2.337   6.403  1.6072 -0.5455 -0.6202
 3703SOL    HW215957   9.267   2.461   6.375 -1.2893 -2.4149 -0.8471
 3704SOL     OW15958   4.592   8.302   2.579 -0.2100 -0.0367  0.4596
 3704SOL    HW115959   4.580   8.396   2.581 -0.6499 -0.1020  1.4334
 3704SOL    HW215960   4.549   8.274   2.498 -0.7565  0.5125  0.5517
 3705SOL     OW15961   4.297   1.945   4.621  0.3941  0.2802 -0.4052
 3705SOL    HW115962   4.386   1.919   4.646  0.4039  1.3830  0.8131
 3705SOL    HW215963   4.251   1.954   4.704 -0.2111  1.9314 -0.8810
 3706SOL     OW15964   3.320   1.780   1.757 -0.3863  0.2944  0.3480
 3706SOL    HW115965   3.256   1.843   1.722  0.4124  0.4593 -0.8621
 3706SOL    HW215966   3.376   1.759   1.682 -0.9485 -2.2865  0.5715
 3707SOL     OW15967   8.543   9.679   5.652  0.2159  0.2826 -0.1667
 3707SOL    HW115968   8.496   9.705   5.731 -0.6083  1.9880 -1.1667
 3707SOL    HW215969   8.475   9.654   5.590  0.9280 -3.2377  0.2905
 3708SOL     OW15970   3.672   3.296   1.455  0.0926 -0.3364 -0.1733
 3708SOL    HW115971   3.665   3.370   1.395 -1.8761 -1.8201 -1.9506
 3708SOL    HW215972   3.584   3.288   1.492  0.2028 -1.8748 -0.1877
 3709SOL     OW15973   9.211   2.006   6.444 -0.4307 -0.0217 -0.1461
 3709SOL    HW115974   9.123   2.027   6.476  0.0281 -1.0684  2.0406
 3709SOL    HW215975   9.254   1.964   6.519  0.8104 -2.6697 -2.1808
 3710SOL     OW15976   7.035   3.323   4.845 -0.5052 -0.0951  0.5105
 3710SOL    HW115977   6.967   3.307   4.780 -1.1053 -1.0122  1.3287
 3710SOL    HW215978   6.987   3.345   4.925  0.2087  0.6762  0.7477
 3711SOL     OW15979   5.809   8.342   5.460  0.1878 -0.0416  0.0014
 3711SOL    HW115980   5.903   8.355   5.453  0.1446  0.7069  0.6550
 3711SOL    HW215981   5.796   8.308   5.549 -0.1748  0.0081 -0.0312
 3712SOL     OW15982   8.288   6.424   6.768  0.1776 -0.0711 -0.0808
 3712SOL    HW115983   8.239   6.472   6.835 -1.6910 -1.5499 -0.2790
 3712SOL    HW215984   8.237   6.344   6.755  2.3947 -1.4556 -0.7603
 3713SOL     OW15985   7.058   3.787   9.050  0.0663 -0.0090 -0.4229
 3713SOL    HW115986   7.033   3.768   9.141  0.2213  0.2126 -0.3316
 3713SOL    HW215987   6.976   3.781   9.001 -0.0306 -0.0575 -0.2563
 3714SOL     OW15988   9.278   2.899   8.280  0.5209 -0.1647 -0.2669
 3714SOL    HW115989   9.216   2.968   8.303  0.1815 -0.4988 -0.1759
 3714SOL    HW215990   9.251   2.871   8.192  1.1993  0.4206 -0.6749
 3715SOL     OW15991   0.979   0.722   7.757  0.1754 -0.4204 -0.0092
 3715SOL    HW115992   1.012   0.692   7.842 -0.4534 -0.2640  0.2983
 3715SOL    HW215993   0.921   0.652   7.728 -1.2588  0.4264  0.6868
 3716SOL     OW15994   6.653   7.812   9.712 -0.1584  0.3102 -0.1788
 3716SOL    HW115995   6.721   7.758   9.751 -1.3791 -1.3510 -0.2604
 3716SOL    HW215996   6.647   7.889   9.769  3.6096  1.8995 -1.6450
 3717SOL     OW15997   4.071   4.812   0.518  0.2314  0.0231  0.1725
 3717SOL    HW115998   4.146   4.869   0.534  0.0068  0.7575 -1.2057
 3717SOL    HW215999   4.071   4.750   0.591  4.5422 -2.5875 -1.6487
 3718SOL     OW16000   1.215   8.996   1.797  0.4650  0.1657 -0.2596
 3718SOL    HW116001   1.229   8.969   1.887  0.0312 -1.5151 -0.6752
 3718SOL    HW216002   1.259   9.081   1.791 -0.5394  0.9020  1.8439
 3719SOL     OW16003   5.693   9.510   0.935 -0.6804 -0.5619  0.1604
 3719SOL    HW116004   5.630   9.568   0.893 -0.1824 -0.6220 -0.6927
 3719SOL    HW216005   5.738   9.567   0.998 -1.5118 -0.5033  0.7182
 3720SOL     OW16006   7.864   2.006   2.313  0.3708  0.4396  0.0708
 3720SOL    HW116007   7.869   1.960   2.397  2.8060 -0.2387 -0.3587
 3720SOL    HW216008   7.773   1.996   2.285  0.1762 -1.8363  1.2667
 3721SOL     OW16009   1.899   0.663   3.049 -0.3921  0.3606  0.2390
 3721SOL    HW116010   1.985   0.704   3.043  0.2740 -0.8026  1.3913
 3721SOL    HW216011   1.895   0.607   2.971 -0.5366  1.1801 -0.3517
 3722SOL     OW16012   0.464   1.033   5.323 -0.0862  0.1647  0.1581
 3722SOL    HW116013   0.526   0.999   5.259  0.2298 -0.5716  0.8430
 3722SOL    HW216014   0.416   0.957   5.354  1.1078  0.1833  2.2193
 3723SOL     OW16015   3.852   4.385   5.314 -0.2513  0.7148 -1.0147
 3723SOL    HW116016   3.790   4.458   5.314 -0.2202  0.8080  1.1583
 3723SOL    HW216017   3.908   4.401   5.390 -0.4115 -1.6857 -0.3043
 3724SOL     OW16018   5.050   1.792   7.352 -0.2117 -0.3551 -0.1113
 3724SOL    HW116019   5.122   1.778   7.413 -0.8765  1.3491  1.1673
 3724SOL    HW216020   5.088   1.777   7.266  1.4921 -0.1534  0.5662
 3725SOL     OW16021   9.395   1.114   6.399 -0.4397 -0.5968 -0.2346
 3725SOL    HW116022   9.364   1.098   6.488 -1.2557 -0.1557 -0.4336
 3725SOL    HW216023   9.325   1.163   6.357  1.3314  2.2130 -0.1321
 3726SOL     OW16024   9.476   5.171   6.864 -0.1145  0.1941 -0.0234
 3726SOL    HW116025   9.385   5.165   6.893  0.3426 -0.3256  1.3911
 3726SOL    HW216026   9.471   5.171   6.769 -1.7871  3.1935 -0.0705
 3727SOL     OW16027   9.173   0.867   7.741  0.0017  0.3535 -0.8021
 3727SOL    HW116028   9.222   0.854   7.660 -0.0389 -0.8008 -0.6616
 3727SOL    HW216029   9.212   0.944   7.781  1.7078 -0.4985 -0.7249
 3728SOL     OW16030   3.473   0.035   6.949  0.5883  0.0225 -0.4332
 3728SOL    HW116031   3.438  -0.001   7.030 -0.5712  0.3315 -0.7677
 3728SOL    HW216032   3.485   0.129   6.966 -0.5686  0.2699 -0.8903
 3729SOL     OW16033   5.008   4.279   4.236 -0.2966  0.0066 -0.2177
 3729SOL    HW116034   4.995   4.359   4.287 -0.7219 -0.5517  0.5716
 3729SOL    HW216035   5.100   4.258   4.246 -0.3179  0.0571  0.0951
 3730SOL     OW16036   6.238   0.370   2.403 -0.1331  0.5417  0.5051
 3730SOL    HW116037   6.164   0.404   2.453 -0.4056 -0.0224  0.4997
 3730SOL    HW216038   6.254   0.435   2.335 -0.9554  0.4240  0.1891
 3731SOL     OW16039   6.670   6.252   7.571 -0.1270  0.2541  0.2811
 3731SOL    HW116040   6.671   6.247   7.475 -1.6838 -1.7802  0.2961
 3731SOL    HW216041   6.660   6.161   7.600  1.8819  0.6242  2.4737
 3732SOL     OW16042   5.621   6.465   8.294 -0.9281  0.5101 -0.8324
 3732SOL    HW116043   5.567   6.448   8.371  0.2615  1.3374  0.2248
 3732SOL    HW216044   5.632   6.380   8.253 -1.7740  0.0918 -0.2262
 3733SOL     OW16045   3.551   6.392   3.469 -0.0245  0.2959 -0.1812
 3733SOL    HW116046   3.588   6.462   3.415  1.9310 -1.2322 -0.9358
 3733SOL    HW216047   3.621   6.369   3.529 -0.7322 -0.8316  0.2426
 3734SOL     OW16048   2.807   1.049   8.768  0.1747 -0.7146  0.0697
 3734SOL    HW116049   2.735   1.090   8.816  0.8246  0.9887 -0.3135
 3734SOL    HW216050   2.815   0.962   8.806  0.2497  0.3260  2.6643
 3735SOL     OW16051   6.658   7.902   9.449  0.2080 -0.2451 -0.4326
 3735SOL    HW116052   6.665   7.881   9.543 -2.3933  0.5652  0.0100
 3735SOL    HW216053   6.707   7.832   9.406  3.2999  0.4740  1.5533
 3736SOL     OW16054   0.314   2.980   9.525 -0.0616  0.3800 -0.6428
 3736SOL    HW116055   0.397   3.028   9.531  0.6586 -0.9998  2.0823
 3736SOL    HW216056   0.247   3.047   9.540  0.8083  0.9505  0.9509
 3737SOL     OW16057   1.912   6.881   7.359  0.2622 -0.6788  0.2919
 3737SOL    HW116058   1.865   6.959   7.389  1.3528 -0.2807  1.0109
 3737SOL    HW216059   2.000   6.912   7.340  0.1157 -1.3037 -1.6058
 3738SOL     OW16060   2.292   7.232   3.636  0.2269  0.6686 -0.0869
 3738SOL    HW116061   2.321   7.238   3.727 -0.0616  0.3398  0.0298
 3738SOL    HW216062   2.369   7.202   3.589 -0.2600 -1.6225  0.4442
 3739SOL     OW16063   0.034   6.892   3.593 -0.0430  0.9039  0.3591
 3739SOL    HW116064   0.095   6.870   3.522 -0.3587  0.3640  0.2544
 3739SOL    HW216065   0.006   6.981   3.573  0.5563  1.0876  0.3003
 3740SOL     OW16066   7.387   6.863   4.600  0.1219  0.4617  0.3420
 3740SOL    HW116067   7.398   6.931   4.533  0.4710 -0.0541 -0.1279
 3740SOL    HW216068   7.465   6.808   4.593  0.3026  0.5661  1.3743
 3741SOL     OW16069   8.599   0.923   2.745  0.5620 -0.3924 -0.0470
 3741SOL    HW116070   8.679   0.881   2.777  1.3029  0.1347 -1.1356
 3741SOL    HW216071   8.586   0.886   2.657  0.6027  0.7921 -0.5752
 3742SOL     OW16072   2.361   7.804   1.894  0.5522  0.0905 -0.2931
 3742SOL    HW116073   2.309   7.756   1.828 -2.5376  0.6578  1.5140
 3742SOL    HW216074   2.406   7.735   1.943 -2.1315 -1.0099  0.8814
 3743SOL     OW16075   1.375   1.586   1.579 -0.3017 -0.6750  0.6004
 3743SOL    HW116076   1.381   1.609   1.672 -0.2667 -0.5798  0.5745
 3743SOL    HW216077   1.466   1.590   1.548 -0.2198 -1.4164  0.7327
 3744SOL     OW16078   4.982   0.303   8.257 -0.3642  0.1242 -0.2252
 3744SOL    HW116079   4.915   0.277   8.195 -1.3410 -0.6191  1.0893
 3744SOL    HW216080   5.038   0.225   8.266  0.0579  0.3856 -0.4972
 3745SOL     OW16081   3.609   9.379   7.709  0.7032 -0.0226 -0.3880
 3745SOL    HW116082   3.554   9.438   7.658  0.9707  0.9154  0.3869
 3745SOL    HW216083   3.558   9.299   7.715 -0.0530  0.4245 -0.6986
 3746SOL     OW16084   2.778   1.729   0.620  0.1299  0.0123  0.3981
 3746SOL    HW116085   2.828   1.801   0.657 -1.4647  0.9638  0.8075
 3746SOL    HW216086   2.704   1.771   0.576 -1.4113 -1.3647  1.5228
 3747SOL     OW16087   2.227   1.697   8.749  0.3666 -0.0916  0.0353
 3747SOL    HW116088   2.323   1.697   8.754  0.3278 -0.3664  0.8819
 3747SOL    HW216089   2.198   1.683   8.839 -0.4673 -2.2089 -0.5052
 3748SOL     OW16090   2.017   3.503   0.117 -0.1575 -0.0804  0.2455
 3748SOL    HW116091   2.038   3.430   0.059 -0.2585  0.4944 -0.5348
 3748SOL    HW216092   1.935   3.539   0.082 -1.2254 -0.8162  1.8160
 3749SOL     OW16093   2.517   6.945   0.064  0.3634 -0.3133  0.3337
 3749SOL    HW116094   2.544   6.877   0.127  0.7029  0.2992  0.8576
 3749SOL    HW216095   2.583   6.941  -0.005  2.8631  2.2425  2.3658
 3750SOL     OW16096   4.666   3.431   8.957  0.3771 -0.2897  0.1058
 3750SOL    HW116097   4.656   3.389   8.871  0.3453 -0.8515  0.3747
 3750SOL    HW216098   4.761   3.435   8.971  0.3807 -0.2761  0.0773
 3751SOL     OW16099   5.506   9.047   0.285 -0.5712 -0.0003  0.1441
 3751SOL    HW116100   5.545   9.021   0.369 -2.2061 -3.3277  0.0524
 3751SOL    HW216101   5.429   9.099   0.310 -1.6955 -1.9045  0.8646
 3752SOL     OW16102   2.068   1.354   3.104 -0.5344 -0.4115 -0.4042
 3752SOL    HW116103   2.145   1.390   3.060  0.7383 -0.4941  1.6425
 3752SOL    HW216104   2.013   1.430   3.122  0.8467  0.2231  1.4156
 3753SOL     OW16105   8.127   1.501   3.488 -0.0754  0.1146 -0.0291
 3753SOL    HW116106   8.040   1.528   3.458 -0.8823 -1.0987  1.0781
 3753SOL    HW216107   8.109   1.432   3.552  1.6715  0.5813  1.0207
 3754SOL     OW16108   1.609   2.771   1.166 -0.2891 -0.5839 -0.1620
 3754SOL    HW116109   1.517   2.796   1.168 -1.1624 -3.3568 -0.7378
 3754SOL    HW216110   1.647   2.822   1.094 -1.9246 -0.9611 -1.3382
 3755SOL     OW16111   1.245   5.734   0.769 -0.2765 -0.4859  0.0939
 3755SOL    HW116112   1.329   5.733   0.816 -0.3369 -0.0676  0.2174
 3755SOL    HW216113   1.263   5.786   0.690 -0.7963  0.9146  0.8609
 3756SOL     OW16114   8.912   5.491   3.684  0.1302 -0.8593 -0.9446
 3756SOL    HW116115   8.964   5.571   3.673 -1.0903  0.0476 -0.4422
 3756SOL    HW216116   8.866   5.504   3.767 -1.1232 -1.4784 -1.5170
 3757SOL     OW16117   2.351   9.182   4.467 -0.0101  0.6167  0.0399
 3757SOL    HW116118   2.334   9.239   4.393  0.1032 -0.4663 -0.8551
 3757SOL    HW216119   2.429   9.220   4.509  1.8568 -0.4263 -2.2445
 3758SOL     OW16120   1.386   4.221   7.837  0.1888 -0.4501 -0.5522
 3758SOL    HW116121   1.394   4.126   7.825  1.2553 -0.3450 -0.7748
 3758SOL    HW216122   1.294   4.240   7.817 -0.3351 -1.5906  0.6343
 3759SOL     OW16123   1.372   7.451   1.470  0.5074 -0.2141 -0.0866
 3759SOL    HW116124   1.360   7.447   1.565  0.6653 -3.1962 -0.1032
 3759SOL    HW216125   1.294   7.408   1.435  0.0199  1.6270 -1.4191
 3760SOL     OW16126   9.357   9.381   3.389  0.1907  0.7318 -0.5045
 3760SOL    HW116127   9.298   9.402   3.317 -0.5861  0.5038  0.0540
 3760SOL    HW216128   9.394   9.296   3.365 -1.0750  0.0170 -0.0313
 3761SOL     OW16129   9.017   4.094   6.111 -0.4095 -0.0626  0.3062
 3761SOL    HW116130   9.086   4.099   6.045 -0.7618 -2.5686 -0.3451
 3761SOL    HW216131   9.062   4.072   6.192 -0.4123 -2.2857 -0.2347
 3762SOL     OW16132   6.993   2.902   4.696 -0.2754  0.3567 -0.0198
 3762SOL    HW116133   7.078   2.866   4.671 -1.0461 -2.8738  1.4105
 3762SOL    HW216134   7.012   2.955   4.773  0.6242  1.0165 -0.6746
 3763SOL     OW16135   1.842   9.727   7.044 -0.0823  0.2577  0.4947
 3763SOL    HW116136   1.801   9.664   7.104  0.1104 -0.2735  0.0804
 3763SOL    HW216137   1.898   9.673   6.988  0.2866  0.8358  0.3018
 3764SOL     OW16138   4.546   2.502   1.607  0.2613 -0.3826  0.2316
 3764SOL    HW116139   4.511   2.434   1.665  1.4905 -0.7146  0.6176
 3764SOL    HW216140   4.630   2.526   1.647  0.8844 -0.2441 -1.1219
 3765SOL     OW16141   8.303   3.234   8.638  0.3777 -0.3429  0.2126
 3765SOL    HW116142   8.314   3.286   8.559 -2.1745 -0.1039 -0.0824
 3765SOL    HW216143   8.339   3.148   8.615  0.9766  0.1321 -0.6841
 3766SOL     OW16144   5.549   4.479   6.873 -0.1777  0.4120 -0.0506
 3766SOL    HW116145   5.486   4.551   6.860 -0.4879  0.4477  1.4824
 3766SOL    HW216146   5.579   4.458   6.785 -0.4470  2.0952 -0.5843
 3767SOL     OW16147   6.775   3.197   3.218  0.0569  0.4949 -0.0714
 3767SOL    HW116148   6.807   3.199   3.308 -0.4908  0.6565  0.1193
 3767SOL    HW216149   6.832   3.259   3.171 -0.5496  1.4798  0.4597
 3768SOL     OW16150   5.115   8.186   4.217  0.3027 -0.3698  0.4384
 3768SOL    HW116151   5.188   8.240   4.248 -0.0185  0.3822 -0.0991
 3768SOL    HW216152   5.039   8.219   4.265  0.2679 -1.0107  0.8412
 3769SOL     OW16153   4.644   3.122   3.557 -0.0912 -0.2101 -0.4664
 3769SOL    HW116154   4.708   3.125   3.486  0.5141  0.1955  0.0846
 3769SOL    HW216155   4.668   3.196   3.614 -0.0678 -0.9962  0.5703
 3770SOL     OW16156   0.346   8.164   0.173  0.2680  0.1599  0.7545
 3770SOL    HW116157   0.384   8.251   0.161  0.5258 -0.1214 -0.6510
 3770SOL    HW216158   0.372   8.138   0.261  1.3190  0.9575  0.6945
 3771SOL     OW16159   2.349   2.446   2.641 -0.1609 -0.4908 -0.4646
 3771SOL    HW116160   2.313   2.459   2.554 -1.2516  0.9220  0.1542
 3771SOL    HW216161   2.440   2.477   2.635 -0.7025  1.1360 -0.7368
 3772SOL     OW16162   5.835   7.623   5.635  0.4592  0.1040 -0.3436
 3772SOL    HW116163   5.850   7.532   5.663 -1.2020  0.0917  0.7065
 3772SOL    HW216164   5.894   7.675   5.689 -1.6442 -0.0551  2.3082
 3773SOL     OW16165   9.336   3.676   1.450  0.3808 -0.7418 -0.3312
 3773SOL    HW116166   9.403   3.617   1.485  0.4385 -0.2198  0.4555
 3773SOL    HW216167   9.274   3.618   1.406 -0.3925 -1.5742  1.7364
 3774SOL     OW16168   6.232   9.222   3.821 -0.5149  0.5630  0.2443
 3774SOL    HW116169   6.144   9.222   3.860 -0.6946  0.4483 -0.1556
 3774SOL    HW216170   6.224   9.163   3.746  0.5059 -1.4194  1.5915
 3775SOL     OW16171   3.518   4.492   0.041 -0.1733  0.1239  0.2368
 3775SOL    HW116172   3.560   4.573   0.010 -1.6654  0.6799 -0.4844
 3775SOL    HW216173   3.433   4.491  -0.005 -0.0636 -2.0313 -0.0238
 3776SOL     OW16174   8.741   4.805   7.041  0.4491  0.0690 -0.4380
 3776SOL    HW116175   8.760   4.854   6.961 -0.1818  1.1012  0.0361
 3776SOL    HW216176   8.651   4.827   7.063 -0.2110 -2.0969 -0.7502
 3777SOL     OW16177   2.018   8.760   3.263 -1.0835 -0.1144 -0.1780
 3777SOL    HW116178   1.985   8.671   3.252 -2.1079  0.3520 -1.0416
 3777SOL    HW216179   1.957   8.814   3.214  1.5429  0.6922 -2.8491
 3778SOL     OW16180   0.375   0.270   4.904  0.1545 -0.5620  0.2840
 3778SOL    HW116181   0.377   0.207   4.976  1.9070 -0.6324  0.2154
 3778SOL    HW216182   0.288   0.258   4.865  0.3685 -2.8560  0.3575
 3779SOL     OW16183   6.167   2.361   8.984 -0.2266 -0.0238  0.3160
 3779SOL    HW116184   6.240   2.411   8.950 -0.9043  1.0914  0.4512
 3779SOL    HW216185   6.130   2.416   9.053 -1.2383 -0.5207  0.1980
 3780SOL     OW16186   2.254   6.747   4.474  0.4303  0.5705 -0.2832
 3780SOL    HW116187   2.227   6.756   4.383 -2.2661  1.1725  0.5033
 3780SOL    HW216188   2.173   6.733   4.522  1.4734  2.5630  2.2872
 3781SOL     OW16189   0.335   2.034   5.307 -0.3972  0.7691  0.0702
 3781SOL    HW116190   0.347   1.939   5.307  0.1613  0.8384 -0.4223
 3781SOL    HW216191   0.240   2.046   5.309 -0.4729  0.2107  2.2410
 3782SOL     OW16192   9.340   8.117   4.302 -0.1878  0.7176  0.2489
 3782SOL    HW116193   9.254   8.083   4.327 -0.3283 -0.1121 -1.2882
 3782SOL    HW216194   9.323   8.176   4.229  0.4630  1.2643  0.5263
 3783SOL     OW16195   8.408   2.408   8.667  0.3523 -0.0645  0.1718
 3783SOL    HW116196   8.419   2.490   8.620  1.5544  1.1534  2.4020
 3783SOL    HW216197   8.352   2.354   8.610  1.2339  1.4764 -2.2998
 3784SOL     OW16198   3.795   3.710   2.587 -0.2274 -0.5117 -0.3200
 3784SOL    HW116199   3.831   3.638   2.638  0.6890  0.0548 -0.1606
 3784SOL    HW216200   3.730   3.751   2.645 -1.3291 -1.6721 -0.6939
 3785SOL     OW16201   4.869   1.088   5.519 -0.0215 -0.2423 -0.6020
 3785SOL    HW116202   4.887   1.001   5.484  1.5040 -1.4840  2.8461
 3785SOL    HW216203   4.773   1.091   5.528 -0.0464 -2.0317  0.1568
 3786SOL     OW16204   3.578   4.590   0.809 -0.5904 -0.5757 -0.2688
 3786SOL    HW116205   3.488   4.580   0.840 -1.1572  0.2833 -1.5285
 3786SOL    HW216206   3.578   4.673   0.761  1.0687 -0.2027  0.3109
 3787SOL     OW16207   8.508   5.850   6.539  0.3185 -0.5973 -0.0078
 3787SOL    HW116208   8.582   5.792   6.556 -0.7083 -1.9220  0.0344
 3787SOL    HW216209   8.440   5.793   6.504 -0.7946  0.5519  0.2242
 3788SOL     OW16210   6.120   6.240   9.029  0.1160  0.3903 -0.4957
 3788SOL    HW116211   6.050   6.299   9.000  0.7895  0.6059 -1.7377
 3788SOL    HW216212   6.120   6.169   8.965  0.9067  0.2905 -0.3954
 3789SOL     OW16213   1.872   5.099   1.215 -0.2803 -0.2414  0.2544
 3789SOL    HW116214   1.940   5.040   1.249 -0.6532 -1.3665 -0.8695
 3789SOL    HW216215   1.858   5.162   1.285  0.6948 -1.0211  1.1941
 3790SOL     OW16216   5.494   4.147   6.151  0.3675  0.2185  0.2380
 3790SOL    HW116217   5.450   4.216   6.201 -1.0501 -0.1059 -0.4953
 3790SOL    HW216218   5.560   4.193   6.099  0.6990  0.7670  1.1367
 3791SOL     OW16219   7.431   5.265   5.308  0.4750  0.1706  0.0512
 3791SOL    HW116220   7.443   5.172   5.288  1.1412  0.4580 -0.9588
 3791SOL    HW216221   7.416   5.267   5.403 -1.6038 -1.1561 -0.1772
 3792SOL     OW16222   9.093   3.831   1.302  0.0262  0.2633 -0.1908
 3792SOL    HW116223   9.054   3.826   1.389  1.7126 -0.7659  0.5612
 3792SOL    HW216224   9.124   3.742   1.284 -0.5806  0.3699 -2.0124
 3793SOL     OW16225   2.352   7.770   9.567  0.0469 -0.4343 -0.0987
 3793SOL    HW116226   2.359   7.838   9.634 -0.5701  0.1298 -0.5908
 3793SOL    HW216227   2.263   7.736   9.577 -0.8833  1.1791 -2.0208
 3794SOL     OW16228   7.743   6.625   5.603 -0.8471 -0.2560  0.3247
 3794SOL    HW116229   7.822   6.571   5.599 -1.0127 -0.4101 -1.3490
 3794SOL    HW216230   7.695   6.590   5.678 -0.8433 -2.3287 -0.5712
 3795SOL     OW16231   9.145   1.944   2.480 -0.0691 -0.3833  0.0298
 3795SOL    HW116232   9.211   1.879   2.457 -0.1944 -0.0382 -1.3607
 3795SOL    HW216233   9.150   1.949   2.576  0.6191 -1.7076  0.0946
 3796SOL     OW16234   0.545   5.413   4.700  0.1676 -0.5936  0.0085
 3796SOL    HW116235   0.558   5.393   4.792 -1.1386 -0.7511  0.1770
 3796SOL    HW216236   0.585   5.499   4.688 -1.8160  0.5817  1.3263
 3797SOL     OW16237   0.533   0.126   5.874 -0.2069  0.5006  0.5351
 3797SOL    HW116238   0.569   0.073   5.945 -0.2062 -0.2874 -0.0433
 3797SOL    HW216239   0.466   0.071   5.833 -0.6224  1.1686  0.2898
 3798SOL     OW16240   8.677   5.900   8.592 -0.2951  0.5302 -0.3324
 3798SOL    HW116241   8.742   5.919   8.524  0.0759  0.5255  0.0135
 3798SOL    HW216242   8.607   5.964   8.577 -0.2175  0.5275 -0.7182
 3799SOL     OW16243   3.187   0.903   4.017 -0.3565 -0.1381  0.1807
 3799SOL    HW116244   3.138   0.982   4.038  0.3499  0.3977 -0.1529
 3799SOL    HW216245   3.278   0.931   4.013 -0.2247 -0.6696 -1.2937
 3800SOL     OW16246   1.651   4.936   4.136 -0.5888  0.0573 -0.0572
 3800SOL    HW116247   1.639   5.031   4.142 -2.4229 -0.1949  1.2196
 3800SOL    HW216248   1.646   4.917   4.043 -1.1601  1.1276 -0.2640
 3801SOL     OW16249   4.660   6.727   6.548 -0.3081 -0.3572  0.0246
 3801SOL    HW116250   4.712   6.683   6.481  4.2517  0.9808  2.2623
 3801SOL    HW216251   4.619   6.657   6.598  3.8907 -2.1061  1.3828
 3802SOL     OW16252   8.254   4.953   2.053  0.9938  0.4821 -0.0297
 3802SOL    HW116253   8.340   4.926   2.084  0.1263  0.7168  2.8390
 3802SOL    HW216254   8.234   5.032   2.104 -1.9254 -0.9763  1.2853
 3803SOL     OW16255   9.159   6.246   5.118  0.1934 -0.3911  0.0803
 3803SOL    HW116256   9.164   6.330   5.163 -1.3923 -0.8278  1.1554
 3803SOL    HW216257   9.233   6.195   5.152 -0.0613 -0.1526  1.0032
 3804SOL     OW16258   4.733   8.976   3.560 -0.1028  0.3214 -0.4481
 3804SOL    HW116259   4.745   8.881   3.551  0.5259  0.1364  1.8589
 3804SOL    HW216260   4.789   9.013   3.492 -0.0336 -0.9430 -1.1178
 3805SOL     OW16261   8.945   3.796   1.950  0.2258 -0.3789  0.4183
 3805SOL    HW116262   8.924   3.889   1.941 -0.9573 -0.3969  2.4285
 3805SOL    HW216263   9.024   3.794   2.004  0.5969 -0.5479 -0.1181
 3806SOL     OW16264   7.167   6.154   5.376  0.2661 -0.1927  0.2245
 3806SOL    HW116265   7.094   6.136   5.435  0.6264 -0.1786  0.6829
 3806SOL    HW216266   7.148   6.101   5.298  0.8602 -1.9183  1.1902
 3807SOL     OW16267   8.928   0.671   0.828 -0.0944  0.0906  0.3690
 3807SOL    HW116268   8.856   0.638   0.882 -0.9703  0.5838 -0.4764
 3807SOL    HW216269   8.896   0.662   0.738  0.2386  1.8571  0.0537
 3808SOL     OW16270   3.189   8.885   1.450 -0.3368  0.3024  0.1382
 3808SOL    HW116271   3.152   8.973   1.461 -0.5547  0.1301  0.8389
 3808SOL    HW216272   3.265   8.884   1.507  0.5557  0.5324 -1.0194
 3809SOL     OW16273   3.519   2.191   3.229  0.2073 -0.1503  0.5949
 3809SOL    HW116274   3.564   2.243   3.296  1.9371 -2.9765  1.8317
 3809SOL    HW216275   3.445   2.151   3.274 -0.9595  0.9483 -0.2736
 3810SOL     OW16276   4.527   0.205   3.305  0.0669 -0.1796  0.1570
 3810SOL    HW116277   4.468   0.230   3.234  1.7815 -0.4677 -1.4415
 3810SOL    HW216278   4.505   0.113   3.323 -1.0810  0.1900  0.7793
 3811SOL     OW16279   2.169   6.708   6.051  0.1421  0.2814  0.4437
 3811SOL    HW116280   2.239   6.753   6.004  0.7597 -0.0791  1.0007
 3811SOL    HW216281   2.163   6.622   6.008 -0.5783  0.6334 -0.1835
 3812SOL     OW16282   0.561   8.484   2.473 -0.1539  0.4821 -0.9059
 3812SOL    HW116283   0.476   8.501   2.514  0.3837 -0.7226  0.8243
 3812SOL    HW216284   0.565   8.389   2.465  1.8366  0.3220  0.9963
 3813SOL     OW16285   5.063   4.629   6.127  0.0921  0.4425 -0.1318
 3813SOL    HW116286   5.078   4.535   6.117 -1.0948  0.3213 -0.9585
 3813SOL    HW216287   5.151   4.668   6.121  0.6595 -0.6386  0.7657
 3814SOL     OW16288   1.459   6.079   8.205  0.2918  0.1974 -0.0140
 3814SOL    HW116289   1.458   6.173   8.224  0.5575  0.0013  1.0612
 3814SOL    HW216290   1.526   6.043   8.264  0.4417 -0.6175 -0.6577
 3815SOL     OW16291   3.480   2.181   6.330 -0.3964 -1.0776  0.7658
 3815SOL    HW116292   3.443   2.200   6.416 -0.0943  0.2879  0.6194
 3815SOL    HW216293   3.542   2.252   6.315 -2.9101  0.7053 -2.0533
 3816SOL     OW16294   0.609   7.254   2.225 -0.5520 -1.0614 -0.0484
 3816SOL    HW116295   0.526   7.287   2.260 -1.0687 -2.2730 -0.0951
 3816SOL    HW216296   0.596   7.255   2.130 -0.9220 -2.2200 -0.0286
 3817SOL     OW16297   5.191   3.690   2.670 -0.3607  0.1159  0.7952
 3817SOL    HW116298   5.114   3.663   2.720 -0.3126 -0.9076  0.3427
 3817SOL    HW216299   5.263   3.688   2.734 -0.5143  0.0153  0.9655
 3818SOL     OW16300   3.710   5.889   1.676  0.1827 -0.1426  0.0396
 3818SOL    HW116301   3.635   5.945   1.656 -0.5884 -0.7685  1.1002
 3818SOL    HW216302   3.677   5.826   1.740  1.2762 -1.2389 -0.4315
 3819SOL     OW16303   1.058   3.463   9.401 -0.0692 -0.2149  0.0420
 3819SOL    HW116304   0.994   3.434   9.336  1.1473  0.0984 -1.3437
 3819SOL    HW216305   1.009   3.466   9.483 -1.0081 -3.2319 -0.2737
 3820SOL     OW16306   1.764   1.236   8.094  0.1168 -0.6319 -1.0555
 3820SOL    HW116307   1.720   1.287   8.162 -2.7150 -2.7483 -1.1053
 3820SOL    HW216308   1.719   1.260   8.013 -0.3111 -2.0983 -1.2830
 3821SOL     OW16309   3.257   1.935   2.232  0.7290 -0.2461 -0.1267
 3821SOL    HW116310   3.277   1.857   2.180  0.7388 -0.0608 -0.4043
 3821SOL    HW216311   3.184   1.908   2.289 -0.6306  0.1098 -1.6277
 3822SOL     OW16312   1.056   2.839   5.827  0.6024  0.6967 -0.2073
 3822SOL    HW116313   1.145   2.871   5.818  0.9070 -0.4360 -1.9348
 3822SOL    HW216314   1.025   2.830   5.736 -0.4355 -1.0641  0.2653
 3823SOL     OW16315   0.631   8.628   4.035  0.1255  0.7964  0.1171
 3823SOL    HW116316   0.554   8.648   4.089 -1.0157 -0.6304 -0.9152
 3823SOL    HW216317   0.702   8.619   4.098 -0.8352  0.7480  1.2384
 3824SOL     OW16318   3.053   9.374   6.479  0.5508 -0.3109 -0.4394
 3824SOL    HW116319   2.975   9.391   6.532  0.0344 -0.3498 -1.1662
 3824SOL    HW216320   3.081   9.461   6.449 -0.2634 -0.4246 -1.6136
 3825SOL     OW16321   4.864   7.004   9.210 -0.9724 -0.2340 -0.2414
 3825SOL    HW116322   4.834   6.915   9.227 -1.3059 -0.0313  0.2904
 3825SOL    HW216323   4.872   7.043   9.297  1.9613 -0.6092 -0.2319
 3826SOL     OW16324   6.739   1.080   6.413 -0.1647 -0.0624 -0.4162
 3826SOL    HW116325   6.712   1.123   6.495  0.4410 -0.7433  0.1546
 3826SOL    HW216326   6.697   0.994   6.418 -0.0581 -0.1342 -0.7893
 3827SOL     OW16327   5.417   5.292   8.950 -0.1238 -0.3611  0.0444
 3827SOL    HW116328   5.497   5.249   8.919  1.2604  0.0102  2.8044
 3827SOL    HW216329   5.443   5.382   8.968 -1.8454  0.4763 -1.3367
 3828SOL     OW16330   8.318   9.149   2.267 -0.1219 -0.0633  0.0579
 3828SOL    HW116331   8.365   9.078   2.312 -2.4551 -0.8489  1.4026
 3828SOL    HW216332   8.271   9.195   2.336 -0.1095  1.7028 -1.0395
 3829SOL     OW16333   6.417   5.612   5.422 -0.6102 -0.4620  0.7284
 3829SOL    HW116334   6.441   5.650   5.506 -0.8686 -2.7043  1.8763
 3829SOL    HW216335   6.325   5.633   5.411 -0.9190 -1.2795  1.6665
 3830SOL     OW16336   7.048   8.881   6.356  0.4963 -0.2259 -0.3142
 3830SOL    HW116337   7.104   8.839   6.421  0.3924 -1.3543 -0.9256
 3830SOL    HW216338   7.028   8.811   6.293 -0.6346  0.4551 -0.7341
 3831SOL     OW16339   3.156   2.690   0.253  0.0024  0.2410 -0.0606
 3831SOL    HW116340   3.134   2.633   0.327  2.0942  0.7643  1.0317
 3831SOL    HW216341   3.188   2.630   0.185  0.4204 -0.0375  0.3818
 3832SOL     OW16342   3.629   7.976   9.754 -0.5398  0.3089  0.0924
 3832SOL    HW116343   3.709   8.015   9.718  0.4640 -0.8854  0.9374
 3832SOL    HW216344   3.583   8.049   9.795  1.1853  0.6856  1.4871
 3833SOL     OW16345   2.075   7.913   6.178  0.3314  0.1497  0.1918
 3833SOL    HW116346   2.037   7.970   6.245 -0.2482 -0.4920  0.4265
 3833SOL    HW216347   2.159   7.953   6.156 -1.1090  2.4513 -1.4192
 3834SOL     OW16348   2.914   2.308   0.179  0.0256  1.0231  0.0863
 3834SOL    HW116349   2.902   2.342   0.267 -1.8163 -0.0797  0.3097
 3834SOL    HW216350   2.943   2.383   0.128  0.9281  1.7294  1.5578
 3835SOL     OW16351   1.979   7.953   6.982 -0.0906  0.1107  0.4589
 3835SOL    HW116352   1.996   7.920   7.070 -0.1882  1.5353  1.0497
 3835SOL    HW216353   2.038   8.028   6.972 -1.4885  1.2195  0.1140
 3836SOL     OW16354   7.565   7.460   1.651  0.4081  0.2528  0.3925
 3836SOL    HW116355   7.491   7.421   1.696  0.3469 -1.3336 -0.9799
 3836SOL    HW216356   7.592   7.533   1.707 -1.8014  0.5125  1.2042
 3837SOL     OW16357   4.966   7.016   7.391 -0.7104  0.3999 -0.1621
 3837SOL    HW116358   5.022   7.057   7.325  0.0167 -1.9117 -1.0918
 3837SOL    HW216359   4.880   7.055   7.377  0.2626  2.8323  0.2080
 3838SOL     OW16360   4.982   2.021   2.124  0.2253  0.0101  0.4625
 3838SOL    HW116361   5.053   2.066   2.078  0.1533  0.8553  1.1423
 3838SOL    HW216362   5.026   1.955   2.177  0.5380  0.6045  0.9652
 3839SOL     OW16363   0.991   7.903   5.775  0.3668  0.4996  0.7485
 3839SOL    HW116364   0.908   7.886   5.822  0.6420  0.3761  1.1980
 3839SOL    HW216365   1.051   7.836   5.809  0.0474 -0.8383 -1.1855
 3840SOL     OW16366   7.672   8.941   8.356  0.1341  0.1225 -0.1737
 3840SOL    HW116367   7.719   8.945   8.439 -0.1463 -1.0949  0.0562
 3840SOL    HW216368   7.716   9.006   8.301  1.4573 -0.3021  0.3481
 3841SOL     OW16369   3.163   3.452   7.648 -0.1047  0.1401  0.1725
 3841SOL    HW116370   3.099   3.507   7.602 -0.2904 -0.4096 -0.2377
 3841SOL    HW216371   3.241   3.507   7.654  0.3901 -0.2013 -2.0190
 3842SOL     OW16372   7.298   9.606   0.205 -0.1667 -0.2415 -0.3245
 3842SOL    HW116373   7.343   9.608   0.289  0.0595  1.3517 -0.4623
 3842SOL    HW216374   7.259   9.518   0.201 -1.8836  0.2875  2.3288
 3843SOL     OW16375   6.393   8.428   0.746 -0.1953 -0.3054  0.7870
 3843SOL    HW116376   6.448   8.451   0.820 -0.2431 -0.0889  0.7544
 3843SOL    HW216377   6.423   8.483   0.674 -0.6013 -0.0231  0.8286
 3844SOL     OW16378   2.057   7.359   4.490  0.1160 -0.5057  0.3412
 3844SOL    HW116379   1.967   7.331   4.502  0.2899 -1.1967  0.1008
 3844SOL    HW216380   2.101   7.283   4.451  0.5075  0.2589 -0.7568
 3845SOL     OW16381   6.254   9.215   2.440  0.0555 -0.3427 -0.1456
 3845SOL    HW116382   6.168   9.176   2.457 -1.0929  2.0056 -0.2152
 3845SOL    HW216383   6.304   9.197   2.520 -0.2369 -2.2388 -0.3312
 3846SOL     OW16384   9.217   2.489   4.316  0.1227  0.4614 -0.1060
 3846SOL    HW116385   9.170   2.452   4.241 -1.3943 -1.6495  1.7564
 3846SOL    HW216386   9.305   2.451   4.310 -0.3434 -0.6445 -0.2032
 3847SOL     OW16387   3.239   8.324   7.289 -0.0876  0.3508 -0.7323
 3847SOL    HW116388   3.247   8.418   7.305  1.8746  0.0666  0.1563
 3847SOL    HW216389   3.308   8.304   7.226  0.2655 -0.6664 -0.0470
 3848SOL     OW16390   6.226   2.306   5.489 -0.0142  0.1311  0.7841
 3848SOL    HW116391   6.167   2.294   5.415  1.7977  2.1129 -1.1448
 3848SOL    HW216392   6.270   2.221   5.498 -0.5818 -0.2734 -0.1290
 3849SOL     OW16393   5.942   0.613   0.984  0.1565  0.2074 -0.0135
 3849SOL    HW116394   6.019   0.611   0.928 -2.1171  0.1059 -3.4515
 3849SOL    HW216395   5.920   0.706   0.991 -1.6781  0.0831 -2.7097
 3850SOL     OW16396   6.497   2.526   9.112 -0.0319  0.5397 -0.1569
 3850SOL    HW116397   6.448   2.520   9.030 -1.8475 -0.3897  0.9575
 3850SOL    HW216398   6.443   2.480   9.177  2.0786 -0.1283  1.2474
 3851SOL     OW16399   9.150   7.515   4.412 -0.2516  0.1268 -0.1804
 3851SOL    HW116400   9.244   7.496   4.406 -0.1184  0.0695  1.5526
 3851SOL    HW216401   9.123   7.476   4.495 -2.5000 -2.5526 -1.9883
 3852SOL     OW16402   0.345   5.574   5.579  0.8372 -0.4111  0.1876
 3852SOL    HW116403   0.273   5.554   5.638  0.9359 -1.4086 -0.0023
 3852SOL    HW216404   0.405   5.626   5.631 -0.6871  1.7460 -0.0885
 3853SOL     OW16405   0.719   6.820   2.789 -0.4644  0.0156  0.3807
 3853SOL    HW116406   0.814   6.826   2.779 -0.5812  3.2018  0.1079
 3853SOL    HW216407   0.689   6.781   2.707  0.6031 -1.7614  0.7861
 3854SOL     OW16408   8.168   3.314   3.373 -0.0968  0.5276 -0.7022
 3854SOL    HW116409   8.135   3.403   3.368  1.2447  1.0046 -1.3208
 3854SOL    HW216410   8.249   3.321   3.424 -0.4124 -0.4685 -0.0273
 3855SOL     OW16411   7.106   6.079   3.127  0.7608  0.7637  0.4425
 3855SOL    HW116412   7.017   6.080   3.163  0.3033 -1.1660 -0.5099
 3855SOL    HW216413   7.142   6.165   3.149 -0.9411  1.1713  1.8250
 3856SOL     OW16414   0.266   7.145   4.483 -0.5333 -0.2341 -0.1173
 3856SOL    HW116415   0.287   7.056   4.455  1.6595  0.0401  0.4431
 3856SOL    HW216416   0.194   7.134   4.545 -2.2789 -1.2788 -2.2263
 3857SOL     OW16417   6.698   4.168   1.424  0.2286  0.2266 -0.0528
 3857SOL    HW116418   6.683   4.232   1.495 -0.0524  0.9616 -0.7609
 3857SOL    HW216419   6.618   4.172   1.372 -0.2052 -1.4291  0.4232
 3858SOL     OW16420   5.819   6.357   2.969  0.1308  0.4142  0.3697
 3858SOL    HW116421   5.877   6.433   2.962 -0.2457  0.5664 -2.1445
 3858SOL    HW216422   5.738   6.385   2.924 -0.5772 -0.9583  0.7458
 3859SOL     OW16423   1.473   7.336   6.274 -0.7336 -0.4382 -0.8460
 3859SOL    HW116424   1.425   7.407   6.316  0.7019  0.0826 -0.0152
 3859SOL    HW216425   1.456   7.260   6.330  1.5715  0.3577  1.1147
 3860SOL     OW16426   1.788   6.983   2.818  0.0667 -0.1098 -0.1395
 3860SOL    HW116427   1.858   6.921   2.839  0.2411  0.1250 -0.0266
 3860SOL    HW216428   1.805   7.058   2.875  1.0620  0.9136 -1.7096
 3861SOL     OW16429   2.058   0.938   1.539 -0.4695 -0.6208  1.0228
 3861SOL    HW116430   2.070   1.012   1.599 -0.8283 -2.0305  2.9306
 3861SOL    HW216431   2.067   0.976   1.452  0.2000  1.5044  1.9551
 3862SOL     OW16432   0.024   7.270   1.536 -0.1234 -0.1090  0.3169
 3862SOL    HW116433  -0.045   7.296   1.475 -0.7011 -0.5148  0.7839
 3862SOL    HW216434   0.011   7.176   1.548 -0.0943 -0.0151  1.1457
 3863SOL     OW16435   5.970   3.582   7.595  0.1874 -0.1128 -0.9182
 3863SOL    HW116436   5.916   3.656   7.569  0.8346 -0.1165 -2.3666
 3863SOL    HW216437   6.049   3.590   7.542  0.9765 -0.9202  0.1034
 3864SOL     OW16438   2.277   5.087   9.081 -0.1712  0.0852  0.0482
 3864SOL    HW116439   2.240   5.127   9.160  1.1071 -0.9822  1.2399
 3864SOL    HW216440   2.349   5.145   9.057 -0.9597  0.7651 -0.7598
 3865SOL     OW16441   1.400   7.544   8.160 -0.2027 -0.3298  0.0693
 3865SOL    HW116442   1.385   7.461   8.114  2.0487 -0.6680 -0.1898
 3865SOL    HW216443   1.434   7.519   8.245  2.1895  0.2343 -0.6289
 3866SOL     OW16444   9.755   2.584   5.660 -0.5493  0.3900  0.5628
 3866SOL    HW116445   9.775   2.518   5.726  0.9892 -2.1041 -2.1538
 3866SOL    HW216446   9.831   2.642   5.659 -0.0991 -0.2013  0.2790
 3867SOL     OW16447   4.987   5.468   3.258 -0.5789  0.4434 -0.1520
 3867SOL    HW116448   4.907   5.420   3.238 -1.3939  1.6209  0.1575
 3867SOL    HW216449   5.058   5.410   3.231 -1.5355 -0.6309 -0.4105
 3868SOL     OW16450   4.398   1.020   5.254  0.0041  0.4979  0.4814
 3868SOL    HW116451   4.371   1.082   5.323 -1.8705  0.9972 -0.6332
 3868SOL    HW216452   4.363   0.936   5.283 -2.3029  1.0039 -0.5769
 3869SOL     OW16453   0.176   5.863   2.161  0.0150 -0.0802  0.0489
 3869SOL    HW116454   0.141   5.946   2.131 -0.2701 -0.3919 -0.4911
 3869SOL    HW216455   0.194   5.876   2.254  2.6348  1.5081 -0.5768
 3870SOL     OW16456   2.596   3.565   8.646 -0.2555 -0.2320 -0.7571
 3870SOL    HW116457   2.568   3.614   8.723  1.2026 -1.1315  0.3879
 3870SOL    HW216458   2.534   3.492   8.640  1.7477 -2.3229  1.8649
 3871SOL     OW16459   6.232   7.465   0.217 -0.0181 -0.1036  0.1402
 3871SOL    HW116460   6.219   7.476   0.311  1.1111  2.8861  0.0811
 3871SOL    HW216461   6.159   7.410   0.189 -0.8509 -0.4155  2.6197
 3872SOL     OW16462   8.803   1.440   3.567  0.0134  0.5784 -0.3640
 3872SOL    HW116463   8.819   1.530   3.540  0.3691  0.5541 -0.2393
 3872SOL    HW216464   8.821   1.439   3.661  0.6589  0.2294 -0.4866
 3873SOL     OW16465   1.286   2.469   4.402 -0.5023  0.3931  0.9044
 3873SOL    HW116466   1.268   2.384   4.443  0.5141 -0.7612 -0.9241
 3873SOL    HW216467   1.227   2.471   4.326 -0.6588  1.4232  1.0454
 3874SOL     OW16468   8.215   8.485   8.564  0.0475 -0.1044 -0.6740
 3874SOL    HW116469   8.169   8.569   8.559 -0.9087 -0.5826 -0.2170
 3874SOL    HW216470   8.184   8.446   8.645 -0.7042 -1.5707 -1.6380
 3875SOL     OW16471   8.314   4.390   4.953 -0.0201 -0.2158  0.3675
 3875SOL    HW116472   8.368   4.447   5.007  0.4114  1.5341 -1.7720
 3875SOL    HW216473   8.319   4.428   4.865 -2.6530 -1.4793 -0.4339
 3876SOL     OW16474   8.028   4.726   8.759  0.1272  0.4050  0.1459
 3876SOL    HW116475   8.058   4.635   8.759 -1.3628 -0.1396 -1.2285
 3876SOL    HW216476   7.935   4.721   8.784 -0.3045  1.3691 -1.1045
 3877SOL     OW16477   0.624   5.860   6.928  0.9132 -0.1639  0.0211
 3877SOL    HW116478   0.663   5.779   6.962 -0.4530 -0.1435  1.7916
 3877SOL    HW216479   0.532   5.837   6.914  0.5973  0.9742  0.1977
 3878SOL     OW16480   4.226   0.241   4.991  0.0116 -0.2512  0.0080
 3878SOL    HW116481   4.150   0.216   4.938  0.8072 -4.1970  0.4060
 3878SOL    HW216482   4.301   0.230   4.933  0.5371 -0.1643  0.6557
 3879SOL     OW16483   8.834   5.982   4.768  1.0979  0.4634  0.0969
 3879SOL    HW116484   8.776   6.006   4.841  1.1439  1.5153 -0.1949
 3879SOL    HW216485   8.774   5.963   4.696  1.0976  1.3793 -0.1544
 3880SOL     OW16486   4.547   2.111   1.587 -0.1376 -0.4494 -0.1238
 3880SOL    HW116487   4.574   2.061   1.510  0.8953 -2.3990  1.4182
 3880SOL    HW216488   4.609   2.184   1.591  0.1370 -0.6341 -0.8257
 3881SOL     OW16489   8.641   1.650   1.323 -0.2750  0.0318  0.6524
 3881SOL    HW116490   8.718   1.615   1.279 -0.4070 -2.0990  1.9561
 3881SOL    HW216491   8.670   1.668   1.412 -0.5439  2.2716  0.3643
 3882SOL     OW16492   2.291   3.557   6.497  0.0004 -0.0194  0.1253
 3882SOL    HW116493   2.218   3.508   6.536 -1.6060  1.7477 -0.5291
 3882SOL    HW216494   2.369   3.518   6.537 -1.2121 -2.4007  0.3912
 3883SOL     OW16495   1.196   3.194   0.844  0.2437 -0.5945 -0.1146
 3883SOL    HW116496   1.101   3.199   0.843  0.3180  1.7489 -0.3776
 3883SOL    HW216497   1.222   3.217   0.754  1.0586 -0.4793  0.1397
 3884SOL     OW16498   8.200   3.728   4.732 -0.5958 -0.3151  0.7525
 3884SOL    HW116499   8.233   3.702   4.646  0.6709  0.6182  0.9170
 3884SOL    HW216500   8.126   3.670   4.748 -0.2520 -1.1639 -0.5383
 3885SOL     OW16501   0.269   6.923   2.185  0.1458  0.1754 -0.1459
 3885SOL    HW116502   0.202   6.866   2.148 -2.0834  2.6451 -0.2615
 3885SOL    HW216503   0.313   6.960   2.109  0.6391 -0.3151 -0.1040
 3886SOL     OW16504   1.432   7.058   1.399 -0.4292  0.0706 -0.4543
 3886SOL    HW116505   1.398   7.120   1.335 -2.3394  1.5087  1.7946
 3886SOL    HW216506   1.452   7.111   1.476 -0.4133 -1.8513  0.9509
 3887SOL     OW16507   6.873   6.359   3.376 -0.1584 -0.0506  0.4270
 3887SOL    HW116508   6.842   6.441   3.415  1.7070  1.6134 -1.3537
 3887SOL    HW216509   6.961   6.348   3.413  0.9133  0.5842 -1.7922
 3888SOL     OW16510   0.999   4.993   9.132 -0.0532  0.2032 -0.4117
 3888SOL    HW116511   1.006   5.068   9.191 -0.7758 -0.6465  0.7904
 3888SOL    HW216512   1.064   4.931   9.165 -0.5491 -0.3322 -0.4304
 3889SOL     OW16513   2.015   3.137   8.805 -0.3564 -0.2646  0.6688
 3889SOL    HW116514   2.082   3.077   8.839  0.4160 -1.1743 -2.2458
 3889SOL    HW216515   1.935   3.111   8.851  0.0232 -3.3307 -0.1932
 3890SOL     OW16516   1.247   9.342   7.035  0.2470  0.6205  0.1214
 3890SOL    HW116517   1.220   9.433   7.050 -2.3032  0.4140 -2.4410
 3890SOL    HW216518   1.262   9.337   6.941  0.9723 -1.4943  0.3113
 3891SOL     OW16519   5.473   0.292   9.299  0.4336  0.1657  0.1956
 3891SOL    HW116520   5.505   0.253   9.217 -1.1407 -1.0306  0.1064
 3891SOL    HW216521   5.531   0.366   9.314  0.6838  0.5153 -2.0939
 3892SOL     OW16522   3.566   5.733   1.890  0.3200 -0.7736  0.1670
 3892SOL    HW116523   3.543   5.662   1.949 -0.6596 -0.3862  0.2736
 3892SOL    HW216524   3.496   5.734   1.825  0.2084  0.2153  0.2859
 3893SOL     OW16525   7.036   8.249   7.304 -0.2708 -0.2900 -0.7662
 3893SOL    HW116526   7.011   8.195   7.379 -1.8276  1.3901 -0.0018
 3893SOL    HW216527   7.120   8.286   7.328 -0.0635 -0.9183 -0.5047
 3894SOL     OW16528   0.871   7.618   7.760 -0.6661  0.3247  0.7868
 3894SOL    HW116529   0.915   7.671   7.694 -2.4280 -0.1357 -0.8495
 3894SOL    HW216530   0.907   7.530   7.748 -1.2145  0.1744  0.1881
 3895SOL     OW16531   0.160   2.695   8.199  0.6388  0.0359 -0.6865
 3895SOL    HW116532   0.235   2.637   8.207  0.7738  0.4113  1.3759
 3895SOL    HW216533   0.196   2.776   8.162  1.4722  0.4926  1.0053
 3896SOL     OW16534   6.039   1.173   2.662  0.0067 -0.3062 -0.2329
 3896SOL    HW116535   6.055   1.097   2.719  0.4639  0.1999  0.3170
 3896SOL    HW216536   5.944   1.174   2.650  0.1426 -2.6812 -2.6170
 3897SOL     OW16537   6.804   1.716   4.337  0.3690  0.2743  0.2656
 3897SOL    HW116538   6.834   1.676   4.256  0.1107 -2.4729  1.4225
 3897SOL    HW216539   6.884   1.735   4.386  0.5020  1.4436 -0.3803
 3898SOL     OW16540   3.266   1.518   0.882  0.2477  0.3773  0.4263
 3898SOL    HW116541   3.207   1.522   0.807  0.1544  2.4623  0.5521
 3898SOL    HW216542   3.353   1.532   0.845  0.4671 -0.8212  0.4629
 3899SOL     OW16543   8.154   4.240   8.355 -0.4888  0.2843  0.0537
 3899SOL    HW116544   8.120   4.154   8.380  0.9059 -1.1694 -2.7008
 3899SOL    HW216545   8.249   4.229   8.352 -0.3779  1.2649 -2.3287
 3900SOL     OW16546   4.475   6.051   8.779  0.2354 -0.0319  0.7688
 3900SOL    HW116547   4.448   6.107   8.706  1.5222 -0.4496 -0.0687
 3900SOL    HW216548   4.414   5.978   8.777  0.3489 -0.1201 -0.0173
 3901SOL     OW16549   6.187   6.951   7.932 -0.2004  0.7937  0.2089
 3901SOL    HW116550   6.187   7.042   7.964 -0.1500  0.7212  0.4125
 3901SOL    HW216551   6.242   6.954   7.853 -0.0397  0.9006  0.3238
 3902SOL     OW16552   1.282   8.202   8.088  0.7213 -0.1244 -0.1215
 3902SOL    HW116553   1.307   8.146   8.162  0.5388  0.3222  0.2868
 3902SOL    HW216554   1.349   8.185   8.021  0.9617 -0.4380  0.1953
 3903SOL     OW16555   6.953   5.894   3.686  0.0176  0.4345 -0.2550
 3903SOL    HW116556   6.992   5.821   3.734 -3.0963  0.0667  2.0126
 3903SOL    HW216557   6.993   5.972   3.724  0.9070 -0.0076 -0.2770
 3904SOL     OW16558   9.223   4.048   0.091  0.2657 -0.3930 -0.1944
 3904SOL    HW116559   9.134   4.033   0.122  0.4411  2.0470  1.8258
 3904SOL    HW216560   9.219   4.035  -0.004 -1.5613 -2.9755  0.1519
 3905SOL     OW16561   3.228   1.208   2.365  0.4035  0.2086 -0.1063
 3905SOL    HW116562   3.185   1.221   2.281  0.5138  0.6448 -0.0941
 3905SOL    HW216563   3.318   1.238   2.352  0.1113  1.4166  0.4978
 3906SOL     OW16564   8.497   4.415   6.855 -0.1353 -0.1914  0.2330
 3906SOL    HW116565   8.432   4.484   6.845 -0.2730 -0.4351 -0.6563
 3906SOL    HW216566   8.487   4.360   6.777  1.2563 -0.1229 -0.0292
 3907SOL     OW16567   9.563   4.814   1.838  0.0999 -0.5180  0.8618
 3907SOL    HW116568   9.480   4.774   1.812  0.1274  0.0287 -0.1377
 3907SOL    HW216569   9.599   4.849   1.756  0.3128  1.0988  1.6122
 3908SOL     OW16570   6.847   3.057   8.449 -0.1757 -0.8071  0.4255
 3908SOL    HW116571   6.847   3.153   8.449 -1.2856 -0.7813 -1.0352
 3908SOL    HW216572   6.838   3.033   8.357  0.1158 -2.3281  0.7722
 3909SOL     OW16573   9.434   3.578   5.177 -0.7300 -0.0458  0.1549
 3909SOL    HW116574   9.485   3.498   5.185  2.0883  1.6747  1.0332
 3909SOL    HW216575   9.482   3.642   5.229 -2.4145  2.4383 -1.1241
 3910SOL     OW16576   6.254   0.629   6.714 -0.5375 -0.3253  0.4598
 3910SOL    HW116577   6.168   0.663   6.735 -0.7933 -1.4569  1.4037
 3910SOL    HW216578   6.311   0.706   6.709 -1.7813  0.5569 -1.3399
 3911SOL     OW16579   2.377   5.589   6.210  0.1298  0.4985 -0.1861
 3911SOL    HW116580   2.325   5.643   6.151 -1.3323  0.2756  0.8544
 3911SOL    HW216581   2.323   5.512   6.227  1.6623 -0.7568 -0.6660
 3912SOL     OW16582   9.060   8.182   7.695 -0.2487  0.3542 -0.1737
 3912SOL    HW116583   8.968   8.158   7.683  0.0257 -0.3878 -0.8169
 3912SOL    HW216584   9.085   8.226   7.614  0.8569 -2.3297 -1.3870
 3913SOL     OW16585   5.944   2.147   2.217 -0.3652 -0.1934 -0.2451
 3913SOL    HW116586   5.984   2.137   2.303  0.8663  0.2866 -0.7497
 3913SOL    HW216587   5.919   2.058   2.192 -1.9937 -0.1946  1.1638
 3914SOL     OW16588   8.494   3.190   7.504  0.0488 -0.2837 -0.6905
 3914SOL    HW116589   8.446   3.272   7.513 -0.5146 -0.6252 -0.5481
 3914SOL    HW216590   8.453   3.147   7.429  1.1413  0.0993 -1.5353
 3915SOL     OW16591   8.296   6.412   5.160  0.1751  0.0950  0.2210
 3915SOL    HW116592   8.290   6.318   5.177  0.1869  0.1291  0.4156
 3915SOL    HW216593   8.267   6.422   5.070  0.5504 -0.1425  0.0708
 3916SOL     OW16594   5.702   5.970   4.718  0.0270  0.2725 -0.0180
 3916SOL    HW116595   5.792   5.996   4.739 -0.1372  0.1414  0.8708
 3916SOL    HW216596   5.656   5.971   4.802 -0.8960  0.6824 -0.5132
 3917SOL     OW16597   4.171   6.440   0.182 -0.4175 -1.1226 -0.0946
 3917SOL    HW116598   4.085   6.402   0.200  0.2881 -2.0241  1.5995
 3917SOL    HW216599   4.213   6.378   0.122 -1.0502 -0.4912 -1.2285
 3918SOL     OW16600   2.278   9.615   7.391  0.3152  0.3514  0.2512
 3918SOL    HW116601   2.340   9.545   7.372  0.8692  1.2278 -1.4447
 3918SOL    HW216602   2.213   9.609   7.321 -0.1516  0.9416  0.6209
 3919SOL     OW16603   0.333   4.425   5.885 -0.1816  0.3103  0.5069
 3919SOL    HW116604   0.331   4.334   5.913  0.2217  0.0130 -0.4025
 3919SOL    HW216605   0.408   4.430   5.826 -1.6631  0.6348 -1.4383
 3920SOL     OW16606   2.204   6.353   0.869 -0.1307 -0.0932 -0.1232
 3920SOL    HW116607   2.176   6.373   0.959 -1.8920 -0.6010 -0.5103
 3920SOL    HW216608   2.255   6.429   0.842 -1.2595  0.9710  0.6303
 3921SOL     OW16609   8.841   3.272   0.302 -0.6025 -0.3704 -0.1818
 3921SOL    HW116610   8.932   3.294   0.319 -0.9186  0.6447  0.3027
 3921SOL    HW216611   8.828   3.290   0.209  0.1453 -2.2671 -0.6901
 3922SOL     OW16612   1.913   7.444   8.422  0.3992  0.5078  0.0349
 3922SOL    HW116613   1.854   7.409   8.488  1.1876  0.2273  0.6113
 3922SOL    HW216614   1.861   7.507   8.374 -0.2446  0.5850  0.8151
 3923SOL     OW16615   6.153   3.525   1.503 -0.0755 -0.0759 -0.0949
 3923SOL    HW116616   6.059   3.542   1.498 -0.2532 -0.1989  1.9577
 3923SOL    HW216617   6.190   3.575   1.430 -1.5973  1.0710 -0.1456
 3924SOL     OW16618   4.532   8.589   9.346 -0.0162 -0.0045  0.0202
 3924SOL    HW116619   4.466   8.621   9.408 -1.5434 -0.5352 -1.2826
 3924SOL    HW216620   4.612   8.637   9.369 -1.0300  1.1889  1.1707
 3925SOL     OW16621   4.205   8.982   2.568  0.4634 -0.2216 -0.2017
 3925SOL    HW116622   4.273   9.034   2.612 -0.8826  0.4647  1.1273
 3925SOL    HW216623   4.158   8.939   2.638 -2.3964  1.6897 -0.7984
 3926SOL     OW16624   7.138   6.735   2.238 -0.1002  0.8864 -0.0851
 3926SOL    HW116625   7.119   6.742   2.332  0.1525  0.4763 -0.0022
 3926SOL    HW216626   7.067   6.784   2.196 -2.1302 -1.5969  0.1633
 3927SOL     OW16627   9.368   8.580   8.021 -0.0598 -0.9094  0.7012
 3927SOL    HW116628   9.431   8.652   8.028  0.2119 -0.5943 -2.8785
 3927SOL    HW216629   9.415   8.503   8.053  0.8012 -0.0577  1.5520
 3928SOL     OW16630   4.289   3.569   3.841  0.0643 -0.2785  0.4051
 3928SOL    HW116631   4.283   3.660   3.811  1.3740 -0.3248 -0.0655
 3928SOL    HW216632   4.310   3.577   3.935 -0.2855 -0.0984  0.4691
 3929SOL     OW16633   6.652   5.400   5.082  0.1767  0.1022 -0.3517
 3929SOL    HW116634   6.610   5.319   5.052  1.2459 -0.4897 -0.3263
 3929SOL    HW216635   6.640   5.399   5.177 -1.1184  0.7491 -0.4983
 3930SOL     OW16636   3.641   5.450   6.231 -0.3643  0.8349  0.2199
 3930SOL    HW116637   3.591   5.531   6.241  0.3732  1.2692  0.5302
 3930SOL    HW216638   3.627   5.403   6.313 -0.5479  0.7934  0.1643
 3931SOL     OW16639   3.777   5.954   6.308 -0.6196  0.0976  0.0951
 3931SOL    HW116640   3.803   5.944   6.217  2.1684  2.0505  0.5189
 3931SOL    HW216641   3.811   5.876   6.351  0.4631  0.4018 -0.1671
 3932SOL     OW16642   5.952   4.516   4.573  0.0852 -0.0052  0.3099
 3932SOL    HW116643   5.918   4.606   4.578 -1.4391 -0.4962 -0.3975
 3932SOL    HW216644   5.997   4.513   4.489  1.5920  0.5356  1.0688
 3933SOL     OW16645   6.494   6.515   7.000 -0.0984 -0.5650  0.1246
 3933SOL    HW116646   6.442   6.436   7.012 -0.6302  0.0975  2.8700
 3933SOL    HW216647   6.580   6.493   7.036 -0.6404  0.3977  2.2201
 3934SOL     OW16648   7.534   8.222   3.022 -1.0361 -0.0572  0.2121
 3934SOL    HW116649   7.541   8.317   3.012 -4.1363  0.1058 -2.1300
 3934SOL    HW216650   7.621   8.194   3.049  0.5471  3.2408 -0.8746
 3935SOL     OW16651   4.276   1.153   1.430 -1.0416 -0.2473 -0.4040
 3935SOL    HW116652   4.250   1.087   1.366 -2.3062 -0.7116  0.5511
 3935SOL    HW216653   4.282   1.105   1.513 -0.6304  0.5784  0.0582
 3936SOL     OW16654   0.625   5.284   1.791 -0.0580  0.1426  0.1485
 3936SOL    HW116655   0.542   5.306   1.834  0.4197  2.7030 -0.0371
 3936SOL    HW216656   0.628   5.343   1.715  0.7363 -1.7944 -1.4004
 3937SOL     OW16657   1.962   1.381   4.931  0.9571 -0.4611  0.3459
 3937SOL    HW116658   2.001   1.462   4.897 -2.7654  0.0687 -3.5058
 3937SOL    HW216659   1.935   1.404   5.020  0.4300  2.4539 -0.4569
 3938SOL     OW16660   8.483   8.134   0.231 -0.3833 -0.0064  0.2179
 3938SOL    HW116661   8.563   8.082   0.218 -0.9797 -1.1373  0.9095
 3938SOL    HW216662   8.412   8.075   0.209 -1.0558  1.0805 -0.6515
 3939SOL     OW16663   1.222   3.113   2.680 -0.1580 -0.7860 -0.0034
 3939SOL    HW116664   1.239   3.019   2.682 -2.0646 -1.2111 -1.0121
 3939SOL    HW216665   1.305   3.154   2.703  1.0109 -2.6945 -0.6578
 3940SOL     OW16666   8.924   4.702   8.854  0.7282  0.7566 -0.6062
 3940SOL    HW116667   8.927   4.775   8.792  3.7684  0.8901 -0.4200
 3940SOL    HW216668   8.900   4.743   8.938  1.7363  1.4647 -0.6446
 3941SOL     OW16669   2.646   7.119   8.271 -0.1158  0.6335  0.2946
 3941SOL    HW116670   2.624   7.131   8.364 -0.3936 -1.8723  0.6135
 3941SOL    HW216671   2.562   7.119   8.226 -0.1112  0.2383  0.2801
 3942SOL     OW16672   2.368   6.460   6.260 -0.0931 -0.1808  0.1237
 3942SOL    HW116673   2.441   6.521   6.271  0.1258 -0.0854 -1.6068
 3942SOL    HW216674   2.291   6.517   6.255 -0.0135 -0.1118 -0.3763
 3943SOL     OW16675   0.704   5.445   4.962 -0.0668 -0.1894  0.9247
 3943SOL    HW116676   0.718   5.352   4.943  0.8100  0.1043  0.0056
 3943SOL    HW216677   0.788   5.486   4.943 -1.5769  1.4809 -3.4212
 3944SOL     OW16678   7.879   5.307   3.252  0.1316 -0.6022  0.3816
 3944SOL    HW116679   7.830   5.362   3.191  0.7464 -0.8948 -0.3996
 3944SOL    HW216680   7.890   5.223   3.206  0.9946 -0.6775  0.6933
 3945SOL     OW16681   6.262   4.510   5.268  0.0365 -0.2019 -0.0163
 3945SOL    HW116682   6.260   4.589   5.321  0.6663  0.6882 -1.2718
 3945SOL    HW216683   6.341   4.519   5.214 -0.8673 -0.7783 -1.5125
 3946SOL     OW16684   3.008   3.332   1.380 -0.4663 -0.1655  0.3568
 3946SOL    HW116685   3.070   3.371   1.441  1.4084 -1.6598 -0.4600
 3946SOL    HW216686   3.060   3.310   1.303 -2.3264 -0.2110 -0.9731
 3947SOL     OW16687   7.026   4.964   0.083 -0.6900 -1.1530 -0.3978
 3947SOL    HW116688   6.961   4.896   0.099 -0.8421 -0.4342  2.7423
 3947SOL    HW216689   6.987   5.018   0.014 -1.8267 -2.6243 -0.9797
 3948SOL     OW16690   5.923   3.165   2.509 -0.3762  0.8759  0.3237
 3948SOL    HW116691   5.956   3.124   2.589  0.5467 -1.5740 -1.1977
 3948SOL    HW216692   5.828   3.150   2.512 -0.2246 -0.0780  0.4957
 3949SOL     OW16693   1.317   0.048   2.560  0.2693 -0.1757  0.1687
 3949SOL    HW116694   1.234   0.096   2.555 -0.5964 -1.5783  0.4860
 3949SOL    HW216695   1.310  -0.003   2.640  1.3434 -0.5313  0.0529
 3950SOL     OW16696   7.839   3.159   2.913 -0.0991  0.1099 -0.3569
 3950SOL    HW116697   7.931   3.135   2.921  0.9592  3.5332 -0.8160
 3950SOL    HW216698   7.796   3.116   2.988  2.1549 -0.1886  0.8324
 3951SOL     OW16699   5.083   2.236   4.487 -0.0803 -0.2449  0.5072
 3951SOL    HW116700   5.129   2.161   4.449  3.6995  2.2416 -0.3393
 3951SOL    HW216701   5.048   2.284   4.412 -1.5461 -0.5445  0.9678
 3952SOL     OW16702   5.343   6.815   6.068 -0.6883 -0.4047 -0.3836
 3952SOL    HW116703   5.253   6.786   6.058 -1.0327  0.7762 -0.7817
 3952SOL    HW216704   5.363   6.861   5.986  0.1350 -0.2798 -0.1238
 3953SOL     OW16705   3.287   4.051   0.535 -0.0383 -0.5804 -0.3904
 3953SOL    HW116706   3.313   3.967   0.496  0.3944  0.1729 -1.7996
 3953SOL    HW216707   3.192   4.053   0.524  0.0996 -0.2690 -1.7015
 3954SOL     OW16708   6.552   8.656   3.227 -0.1737 -0.5220  0.1691
 3954SOL    HW116709   6.638   8.615   3.219  0.7570  1.0478  1.6857
 3954SOL    HW216710   6.524   8.636   3.316 -0.2685  1.0069  0.5091
 3955SOL     OW16711   2.559   8.496   2.397 -0.2092 -0.1895  0.2068
 3955SOL    HW116712   2.488   8.485   2.460 -0.4233  2.0088  0.4411
 3955SOL    HW216713   2.628   8.541   2.446  0.3120 -0.0084 -0.6707
 3956SOL     OW16714   6.297   2.506   1.428  0.1873  0.1131  0.5347
 3956SOL    HW116715   6.242   2.438   1.468 -0.4946  0.9630  1.0689
 3956SOL    HW216716   6.306   2.479   1.337  0.0184 -0.7531  0.7673
 3957SOL     OW16717   7.060   5.470   1.915  0.6118 -0.3989  0.1112
 3957SOL    HW116718   7.013   5.464   1.998 -1.7307 -2.4265 -1.2472
 3957SOL    HW216719   7.000   5.518   1.857  0.8856 -1.6125 -1.2246
 3958SOL     OW16720   3.240   9.150   7.353  0.4792  0.8578  0.3465
 3958SOL    HW116721   3.239   9.240   7.320 -0.1258  0.9543  0.6074
 3958SOL    HW216722   3.290   9.156   7.435 -0.0227  1.0695  0.6464
 3959SOL     OW16723   3.500   1.917   7.344  0.3802  0.0401  0.4649
 3959SOL    HW116724   3.491   1.823   7.329 -0.7231  0.1721  0.1983
 3959SOL    HW216725   3.553   1.947   7.270 -1.3936 -0.0033 -0.9080
 3960SOL     OW16726   6.817   4.180   1.036 -0.0566 -0.2277 -0.3594
 3960SOL    HW116727   6.824   4.085   1.048 -0.2232 -0.0134  1.6607
 3960SOL    HW216728   6.901   4.204   0.996 -0.4845 -1.3470 -2.0587
 3961SOL     OW16729   1.891   9.000   9.502  0.2409  0.7688  0.3385
 3961SOL    HW116730   1.828   9.018   9.432 -0.7153  2.6107  1.5980
 3961SOL    HW216731   1.943   8.926   9.469 -0.5346  1.2047 -2.0434
 3962SOL     OW16732   1.547   9.441   8.337 -0.5880 -0.7308 -0.1238
 3962SOL    HW116733   1.579   9.352   8.351  1.1638 -0.4002 -1.7260
 3962SOL    HW216734   1.465   9.444   8.387 -2.1774 -4.1057 -2.1598
 3963SOL     OW16735   6.505   6.735   3.040 -0.2997  0.5518  0.0503
 3963SOL    HW116736   6.435   6.771   2.986 -0.1301  0.0669 -0.5009
 3963SOL    HW216737   6.512   6.796   3.113 -0.0125  1.6617 -0.8644
 3964SOL     OW16738   0.347   7.160   2.013  0.0081  0.1752  0.4732
 3964SOL    HW116739   0.372   7.252   2.020 -1.3666  0.5369  1.0044
 3964SOL    HW216740   0.412   7.122   1.954 -0.3559  1.8601 -1.1194
 3965SOL     OW16741   4.485   8.191   6.015 -0.0513 -0.2045  0.3947
 3965SOL    HW116742   4.457   8.188   5.924 -1.1754 -1.6319  0.7333
 3965SOL    HW216743   4.559   8.251   6.016 -1.0902  1.1904 -1.1461
 3966SOL     OW16744   0.036   1.675   7.920  0.1673 -0.3542 -0.1080
 3966SOL    HW116745   0.003   1.644   8.005  3.3348  1.9279  2.1746
 3966SOL    HW216746   0.071   1.596   7.878  0.0408 -1.2914  1.4561
 3967SOL     OW16747   5.348   0.298   6.141  0.1216  0.1854 -0.5480
 3967SOL    HW116748   5.315   0.268   6.226  2.3721  0.1325  0.3819
 3967SOL    HW216749   5.379   0.219   6.098  1.6366  0.5201 -0.1431
 3968SOL     OW16750   0.209   1.720   3.409 -0.3845  0.1615 -0.1414
 3968SOL    HW116751   0.199   1.815   3.422 -0.4016  0.2932 -1.0958
 3968SOL    HW216752   0.125   1.684   3.438  0.5322  0.1428  2.7967
 3969SOL     OW16753   7.677   7.682   8.991  0.4585 -0.0811  0.7957
 3969SOL    HW116754   7.627   7.743   8.936 -1.4652 -1.9811  0.2761
 3969SOL    HW216755   7.652   7.705   9.081 -0.0332  0.0741  0.6218
 3970SOL     OW16756   8.229   1.859   6.922  0.3605 -0.1752  0.3259
 3970SOL    HW116757   8.225   1.846   6.827 -1.0527 -0.6781  0.4345
 3970SOL    HW216758   8.282   1.785   6.953 -0.6946 -1.0512  0.0964
 3971SOL     OW16759   6.524   1.800   5.192  0.3670  0.1283  0.3245
 3971SOL    HW116760   6.604   1.824   5.144 -0.2920 -1.6009 -1.8080
 3971SOL    HW216761   6.548   1.719   5.237 -0.3105 -0.7271 -0.8079
 3972SOL     OW16762   7.573   3.320   2.547 -0.2888  0.0475  0.2845
 3972SOL    HW116763   7.556   3.394   2.605  0.0104 -1.1653  2.0046
 3972SOL    HW216764   7.487   3.280   2.532 -0.0406 -1.6089  2.7390
 3973SOL     OW16765   5.261   7.172   8.584 -1.0024 -0.6531  0.0330
 3973SOL    HW116766   5.200   7.132   8.645 -0.5383 -0.3748  0.6993
 3973SOL    HW216767   5.295   7.099   8.532 -1.2020 -0.9302  0.2869
 3974SOL     OW16768   4.483   4.064   0.871 -0.3448  0.2505  0.5283
 3974SOL    HW116769   4.461   4.138   0.928 -0.4549  1.0874 -0.5523
 3974SOL    HW216770   4.428   4.078   0.793 -1.1611 -1.5631  0.7375
 3975SOL     OW16771   7.771   0.736   8.955 -0.1064 -0.2806  0.6646
 3975SOL    HW116772   7.786   0.654   8.908 -0.6568 -0.6087  1.0357
 3975SOL    HW216773   7.837   0.796   8.921 -1.0140 -0.2375 -1.1433
 3976SOL     OW16774   4.015   6.933   7.520  0.9224  0.6983  0.5075
 3976SOL    HW116775   4.092   6.973   7.478 -0.0314  1.8087 -0.2646
 3976SOL    HW216776   4.035   6.937   7.614  2.7753 -1.1489  0.2626
 3977SOL     OW16777   0.998   6.509   7.524  0.0406 -0.3236  0.1615
 3977SOL    HW116778   0.991   6.554   7.608 -0.4693  0.2034 -0.1536
 3977SOL    HW216779   0.911   6.470   7.511  0.0611 -0.2462 -0.2092
 3978SOL     OW16780   8.113   7.116   4.660 -0.1215 -0.0965 -0.5376
 3978SOL    HW116781   8.208   7.128   4.668 -0.2249  0.3922  0.0287
 3978SOL    HW216782   8.076   7.193   4.702 -0.7690  0.2698 -1.7256
 3979SOL     OW16783   0.256   3.730   4.015 -0.1235  0.2761  1.0978
 3979SOL    HW116784   0.317   3.804   4.011  1.2893 -0.9070 -1.0776
 3979SOL    HW216785   0.175   3.764   3.978  0.8084  0.5207 -0.8302
 3980SOL     OW16786   3.900   3.136   2.740  0.1841 -0.2066  0.0948
 3980SOL    HW116787   3.962   3.083   2.690  2.3696  2.0545  0.2050
 3980SOL    HW216788   3.944   3.220   2.752 -3.2316  1.8617 -0.4363
 3981SOL     OW16789   3.951   7.646   2.280  0.0995 -0.0025  0.1801
 3981SOL    HW116790   3.890   7.575   2.260 -0.0996  0.2063  0.0385
 3981SOL    HW216791   4.023   7.632   2.219  0.8859 -1.0976  1.3128
 3982SOL     OW16792   6.498   5.407   7.983  0.1647  0.5789  0.3120
 3982SOL    HW116793   6.440   5.351   7.930 -1.0612  1.3059  0.8420
 3982SOL    HW216794   6.555   5.450   7.919  1.5792 -1.6958 -0.0782
 3983SOL     OW16795   7.439   1.002   1.973 -0.4836  0.2384  0.2875
 3983SOL    HW116796   7.491   1.082   1.964 -0.0154 -0.1384 -0.5739
 3983SOL    HW216797   7.477   0.942   1.908 -1.2697 -0.4408  0.4398
 3984SOL     OW16798   5.252   6.214   6.700 -0.4322  0.5655  0.0317
 3984SOL    HW116799   5.347   6.201   6.708 -0.5740  0.1064  1.1577
 3984SOL    HW216800   5.237   6.221   6.606  0.6696  0.2136 -0.1906
 3985SOL     OW16801   4.809   8.710   4.310 -0.3421 -0.0020 -0.0230
 3985SOL    HW116802   4.850   8.628   4.339 -0.0623 -1.0203 -2.9918
 3985SOL    HW216803   4.715   8.696   4.326 -0.2393 -0.6430  0.0625
 3986SOL     OW16804   7.932   1.213   0.418  0.1749 -0.5500  0.6371
 3986SOL    HW116805   7.872   1.143   0.393  0.4085 -0.0823 -1.3745
 3986SOL    HW216806   7.882   1.294   0.405  0.8104 -0.2159  0.2352
 3987SOL     OW16807   3.279   2.311   0.727  0.1240 -0.0181  0.8362
 3987SOL    HW116808   3.337   2.287   0.799 -2.2220 -1.3626  2.4086
 3987SOL    HW216809   3.233   2.389   0.759  0.2302  0.3675  0.0737
 3988SOL     OW16810   0.508   7.904   3.518  0.5158 -0.3240  0.0209
 3988SOL    HW116811   0.520   7.977   3.457  0.3027  1.1427  1.6497
 3988SOL    HW216812   0.436   7.931   3.574  0.1776 -1.9846  0.4241
 3989SOL     OW16813   0.121   0.622   5.651 -0.5030  0.0360  0.0306
 3989SOL    HW116814   0.112   0.717   5.653  0.6085  0.1670 -0.4921
 3989SOL    HW216815   0.096   0.594   5.740 -3.3973  0.5142 -0.5105
 3990SOL     OW16816   5.961   7.677   3.667  0.8350 -0.4866 -0.1533
 3990SOL    HW116817   5.932   7.666   3.577  0.0671  0.7119 -0.0792
 3990SOL    HW216818   5.891   7.639   3.720  1.6772 -1.9767 -0.0464
 3991SOL     OW16819   7.397   1.893   9.523 -0.0387 -0.9558  0.1163
 3991SOL    HW116820   7.354   1.831   9.464  1.1922 -1.6319 -0.1056
 3991SOL    HW216821   7.488   1.862   9.528  0.2864  0.0885  1.0218
 3992SOL     OW16822   6.991   8.887   0.187 -0.5653  0.3196 -0.3539
 3992SOL    HW116823   6.951   8.974   0.188  0.6846  0.9434  1.7122
 3992SOL    HW216824   6.962   8.846   0.268  1.0735 -0.0661  0.0882
 3993SOL     OW16825   7.854   6.880   9.517  0.0419 -0.3084  0.7615
 3993SOL    HW116826   7.788   6.949   9.505  0.0657 -0.6545 -2.2980
 3993SOL    HW216827   7.907   6.909   9.591 -1.7241  1.4673  1.4182
 3994SOL     OW16828   3.935   3.860   7.065  0.0480  0.3947  0.1375
 3994SOL    HW116829   3.961   3.952   7.061  2.1780 -0.2029 -1.3674
 3994SOL    HW216830   3.958   3.832   7.154 -1.2719  1.4349  0.8486
 3995SOL     OW16831   2.204   5.754   1.823 -0.3701  0.4221 -0.2786
 3995SOL    HW116832   2.127   5.810   1.838 -0.1942  0.5540  0.1253
 3995SOL    HW216833   2.226   5.719   1.909 -0.4542 -0.2486 -0.5176
 3996SOL     OW16834   4.226   6.576   7.149  0.0122  0.2834  0.3427
 3996SOL    HW116835   4.315   6.542   7.135  0.7447  1.8306  0.9589
 3996SOL    HW216836   4.206   6.554   7.240 -0.7201 -1.0558 -0.1200
 3997SOL     OW16837   4.032   7.250   4.365  0.0730 -0.0937 -0.8861
 3997SOL    HW116838   4.082   7.183   4.319  1.1033  0.7672 -1.0524
 3997SOL    HW216839   3.943   7.214   4.370  0.7382 -1.7491 -0.3667
 3998SOL     OW16840   1.682   4.617   1.760  0.3267  0.5827  0.6041
 3998SOL    HW116841   1.615   4.572   1.812  0.8099 -1.3101 -0.3123
 3998SOL    HW216842   1.756   4.557   1.759  1.0628  1.4625 -0.6027
 3999SOL     OW16843   8.302   5.214   8.035 -0.8361 -0.2865  0.6298
 3999SOL    HW116844   8.293   5.272   7.960 -0.9026  0.3150  1.0928
 3999SOL    HW216845   8.254   5.258   8.105 -1.9136 -1.4858  0.6719
 4000SOL     OW16846   9.642   2.468   0.114 -0.4795 -0.1924 -0.6542
 4000SOL    HW116847   9.581   2.532   0.149 -0.3062  0.6459 -1.8339
 4000SOL    HW216848   9.589   2.411   0.058 -0.2412  0.4250 -1.5336
 4001SOL     OW16849   3.598   5.713   9.416 -0.6330  0.1351 -0.0622
 4001SOL    HW116850   3.644   5.701   9.499  0.3093 -0.9151 -0.7080
 4001SOL    HW216851   3.505   5.704   9.438 -0.5149  1.6171  1.1530
 4002SOL     OW16852   3.961   6.509   6.079 -0.0444  0.1735 -0.5031
 4002SOL    HW116853   3.929   6.598   6.062 -0.5559 -0.1908 -1.5296
 4002SOL    HW216854   3.977   6.507   6.174 -0.0157  1.3566 -0.4651
 4003SOL     OW16855   1.448   1.158   7.157 -0.1182 -0.0560 -0.2686
 4003SOL    HW116856   1.525   1.172   7.213  0.3232 -1.6503 -0.4073
 4003SOL    HW216857   1.376   1.146   7.218  0.2504 -1.1780 -0.0287
 4004SOL     OW16858   3.846   0.752   5.562  0.6873  0.3872  0.5028
 4004SOL    HW116859   3.767   0.801   5.584 -0.1014  0.6014 -2.3295
 4004SOL    HW216860   3.918   0.808   5.590 -0.1778  1.2901  0.9803
 4005SOL     OW16861   2.935   5.104   0.688 -0.1631 -0.1016 -0.0950
 4005SOL    HW116862   2.895   5.179   0.732 -1.1810 -0.2706 -0.6975
 4005SOL    HW216863   2.883   5.029   0.716  0.0676 -0.4059 -0.4721
 4006SOL     OW16864   2.193   2.112   8.381  0.4049 -0.1113  0.2583
 4006SOL    HW116865   2.103   2.102   8.351  0.2008  1.0180  0.4622
 4006SOL    HW216866   2.186   2.149   8.469  1.0615 -0.6402  0.5496
 4007SOL     OW16867   7.281   0.421   5.641  0.1655 -0.4130  0.3697
 4007SOL    HW116868   7.237   0.427   5.727 -1.0310  0.8831 -0.2934
 4007SOL    HW216869   7.244   0.342   5.601  2.7972 -2.6952  2.0828
 4008SOL     OW16870   9.055   5.777   2.981  0.2206  0.5133  0.2549
 4008SOL    HW116871   8.965   5.750   2.965  0.1672 -0.5202  2.0206
 4008SOL    HW216872   9.108   5.706   2.945  0.2772  0.4448  0.4734
 4009SOL     OW16873   8.553   2.978   0.638  0.1364 -0.1143  0.0187
 4009SOL    HW116874   8.598   3.020   0.712  1.2467 -0.0050 -0.6906
 4009SOL    HW216875   8.480   3.037   0.618 -0.1933 -0.1578  1.0341
 4010SOL     OW16876   1.031   3.275   5.658 -0.0245  0.4069  0.6460
 4010SOL    HW116877   0.978   3.245   5.732 -0.0248 -0.5509  0.2808
 4010SOL    HW216878   1.101   3.210   5.652  0.9608  1.4188  0.8573
 4011SOL     OW16879   3.894   3.438   4.013  0.3387 -0.1510  0.2659
 4011SOL    HW116880   3.867   3.372   3.949  3.1479 -2.0194  0.8481
 4011SOL    HW216881   3.841   3.420   4.090  1.7909 -2.5577  0.7991
 4012SOL     OW16882   7.182   1.568   1.401  0.7955  0.2170 -0.1681
 4012SOL    HW116883   7.132   1.508   1.346 -0.3477  1.9696 -1.1329
 4012SOL    HW216884   7.163   1.539   1.491  1.6324 -1.8615 -0.6073
 4013SOL     OW16885   1.769   4.854   3.315 -0.1622  0.2123  0.2017
 4013SOL    HW116886   1.834   4.791   3.345 -0.5514  0.2747  1.2010
 4013SOL    HW216887   1.691   4.836   3.368 -0.0161  2.0803  1.1405
 4014SOL     OW16888   2.789   7.992   0.250  0.3704 -0.6622  0.6423
 4014SOL    HW116889   2.749   7.942   0.178 -2.8625  1.4761  0.7539
 4014SOL    HW216890   2.840   8.060   0.206  1.7150 -1.7116  0.4909
 4015SOL     OW16891   7.344   9.124   3.403  0.5005  0.3217  0.4297
 4015SOL    HW116892   7.356   9.036   3.366 -0.6021  0.3591 -0.0674
 4015SOL    HW216893   7.339   9.181   3.326  0.1798  0.6768  0.7093
 4016SOL     OW16894   3.218   1.872   2.785 -0.0568  0.2678  0.2476
 4016SOL    HW116895   3.153   1.935   2.816  0.6646  0.7466  0.8495
 4016SOL    HW216896   3.279   1.925   2.734  2.6325  0.9192  3.7133
 4017SOL     OW16897   8.988   4.776   4.723 -0.0448 -0.2262  0.0120
 4017SOL    HW116898   9.062   4.742   4.774  0.2964 -0.2454 -0.4922
 4017SOL    HW216899   8.924   4.705   4.723 -0.4100  0.0764  1.1250
 4018SOL     OW16900   7.952   4.072   6.505  0.1249 -0.3365  0.3794
 4018SOL    HW116901   8.034   4.030   6.480  0.6766  0.7021  0.3772
 4018SOL    HW216902   7.976   4.163   6.519 -0.8280 -0.2296  1.4207
 4019SOL     OW16903   6.150   6.048   6.307  0.6434  0.0402  0.0397
 4019SOL    HW116904   6.126   6.075   6.219 -0.7592  1.6301  0.8678
 4019SOL    HW216905   6.093   5.974   6.327 -1.6640  1.9500  0.8981
 4020SOL     OW16906   8.139   8.037   8.173  0.1718 -0.1672 -0.5361
 4020SOL    HW116907   8.234   8.044   8.185 -0.2183  1.5050  2.4999
 4020SOL    HW216908   8.120   8.096   8.100  1.5019 -1.3569 -1.9368
 4021SOL     OW16909   5.157   3.664   5.846  0.4838  0.1772  0.4163
 4021SOL    HW116910   5.252   3.662   5.843  0.5112  1.4742 -1.0589
 4021SOL    HW216911   5.130   3.580   5.809  1.0644  0.1893 -0.0537
 4022SOL     OW16912   0.259   6.440   2.948 -0.3470  0.2256 -0.4001
 4022SOL    HW116913   0.178   6.476   2.913 -0.6648  1.3422  1.3369
 4022SOL    HW216914   0.325   6.506   2.929  0.7114 -1.5235 -3.5871
 4023SOL     OW16915   5.326   5.325   2.639  0.0700 -0.7011  0.1513
 4023SOL    HW116916   5.411   5.351   2.603 -0.3856 -0.0426 -0.4786
 4023SOL    HW216917   5.291   5.404   2.679 -1.0924 -0.4096 -1.3151
 4024SOL     OW16918   4.844   6.388   2.383 -0.4759  0.4642 -0.0289
 4024SOL    HW116919   4.773   6.381   2.446 -0.0657  0.7756  0.4739
 4024SOL    HW216920   4.876   6.298   2.373 -0.0908  0.5140  0.7338
 4025SOL     OW16921   7.511   1.805   3.500  0.2491  0.2782 -0.1369
 4025SOL    HW116922   7.482   1.861   3.428  0.1781 -0.6899 -0.8904
 4025SOL    HW216923   7.462   1.724   3.488  1.1100 -0.3245  0.2900
 4026SOL     OW16924   1.911   9.046   8.649 -0.3043 -0.1878 -0.6035
 4026SOL    HW116925   1.838   8.999   8.689  1.1143  0.3463  2.9033
 4026SOL    HW216926   1.981   8.982   8.641  0.9925  0.6904  2.4087
 4027SOL     OW16927   3.975   1.761   7.486  0.0803  0.0994 -0.3038
 4027SOL    HW116928   3.983   1.670   7.515 -1.7787 -0.0372 -0.0938
 4027SOL    HW216929   4.064   1.797   7.493  0.7212 -1.5170  0.1950
 4028SOL     OW16930   9.596   7.582   4.193 -0.0450  0.3034  0.2379
 4028SOL    HW116931   9.539   7.659   4.194  1.3565  1.4993 -2.2634
 4028SOL    HW216932   9.681   7.615   4.224  0.7705  0.0322 -1.5770
 4029SOL     OW16933   6.146   3.755   7.498 -0.5208  0.2034  0.3971
 4029SOL    HW116934   6.131   3.847   7.521 -0.6254  0.2690  0.0656
 4029SOL    HW216935   6.188   3.758   7.412 -0.7618 -0.0693  0.2689
 4030SOL     OW16936   0.519   0.419   5.378  0.2332 -0.2730  0.4297
 4030SOL    HW116937   0.553   0.330   5.365 -1.6880 -1.0499  0.3630
 4030SOL    HW216938   0.553   0.446   5.463 -0.0252 -1.5325  0.9589
 4031SOL     OW16939   7.978   7.978   4.014  0.1458 -0.3981 -0.4886
 4031SOL    HW116940   7.966   8.056   3.960 -0.4075 -1.2990 -1.7153
 4031SOL    HW216941   8.016   7.914   3.955 -0.7839 -1.5204  0.0871
 4032SOL     OW16942   8.625   5.257   3.332  0.3333 -0.1907 -0.5264
 4032SOL    HW116943   8.646   5.211   3.252  0.5394  0.4266 -0.8326
 4032SOL    HW216944   8.669   5.207   3.401  1.9538  0.4834 -1.0351
 4033SOL     OW16945   5.153   3.613   1.852  0.3738 -0.1822 -0.9981
 4033SOL    HW116946   5.093   3.554   1.807 -1.6999  0.7754  0.3403
 4033SOL    HW216947   5.098   3.660   1.915  2.1788  2.1765 -1.0297
 4034SOL     OW16948   0.260   7.121   1.345  0.4540  0.0209  0.4174
 4034SOL    HW116949   0.216   7.055   1.292  0.2612  1.5790 -1.4911
 4034SOL    HW216950   0.199   7.195   1.347  1.2871  0.7224  1.1752
 4035SOL     OW16951   1.225   0.955   2.593 -0.3678  0.1310  0.5389
 4035SOL    HW116952   1.255   0.864   2.601 -1.4988 -0.2248  1.0573
 4035SOL    HW216953   1.131   0.950   2.613 -0.2131  1.6046  1.7785
 4036SOL     OW16954   8.601   0.819   8.835 -0.2489 -0.8710  0.5855
 4036SOL    HW116955   8.547   0.741   8.847 -0.4358 -0.5970  1.6131
 4036SOL    HW216956   8.647   0.803   8.752 -0.6061 -1.8725  0.5602
 4037SOL     OW16957   3.122   6.561   5.780 -0.6927  0.4289  0.3767
 4037SOL    HW116958   3.134   6.651   5.750  2.0654 -0.0927 -0.3882
 4037SOL    HW216959   3.166   6.558   5.865  2.8336 -0.9530 -1.2716
 4038SOL     OW16960   5.910   2.471   5.576 -0.0156 -0.2461 -0.6758
 4038SOL    HW116961   5.959   2.406   5.628  0.7371  1.4349  0.8208
 4038SOL    HW216962   5.818   2.448   5.591  0.1847 -0.0545  1.1778
 4039SOL     OW16963   2.613   5.062   9.726 -0.0987  0.1941 -0.7770
 4039SOL    HW116964   2.551   5.006   9.772  0.8207  0.3313  0.6833
 4039SOL    HW216965   2.608   5.034   9.634 -1.5952 -0.4315 -0.5278
 4040SOL     OW16966   2.617   8.805   5.890 -0.3484 -0.5746 -0.0789
 4040SOL    HW116967   2.660   8.720   5.902 -0.6148 -0.4243  2.2842
 4040SOL    HW216968   2.675   8.867   5.933  0.0449  0.5788 -2.1282
 4041SOL     OW16969   9.323   6.497   0.051  0.8069  0.1633  0.0851
 4041SOL    HW116970   9.403   6.549   0.056  2.2537 -1.9602 -0.0660
 4041SOL    HW216971   9.331   6.448  -0.030 -1.3092  0.8726 -0.6154
 4042SOL     OW16972   1.689   3.669   2.134  0.1943 -0.3168  0.6889
 4042SOL    HW116973   1.614   3.703   2.086  1.5119  3.2661  0.8133
 4042SOL    HW216974   1.734   3.611   2.072 -1.8254 -1.3763  0.1401
 4043SOL     OW16975   9.552   0.446   6.513  0.7058  0.4958 -0.0446
 4043SOL    HW116976   9.462   0.452   6.482  0.2610  0.2478  1.1516
 4043SOL    HW216977   9.544   0.423   6.605  1.9883  1.0182  0.2127
 4044SOL     OW16978   8.531   6.824   3.611 -0.2130  0.4134 -0.0017
 4044SOL    HW116979   8.615   6.869   3.605 -0.9011  1.6020 -1.5331
 4044SOL    HW216980   8.544   6.743   3.562  0.1828  0.3529  0.2021
 4045SOL     OW16981   3.488   0.424   9.407 -0.4024  0.2659 -0.0588
 4045SOL    HW116982   3.564   0.373   9.436 -0.9974 -0.0838  0.9436
 4045SOL    HW216983   3.435   0.433   9.486 -2.2256 -0.9045 -1.1033
 4046SOL     OW16984   4.147   5.622   7.023 -0.1038 -0.1400  0.4778
 4046SOL    HW116985   4.148   5.706   7.068 -1.3527 -0.8632  1.9631
 4046SOL    HW216986   4.235   5.587   7.036  0.0534  0.4001  0.8933
 4047SOL     OW16987   8.113   7.013   3.664 -0.0939 -0.3306  0.3502
 4047SOL    HW116988   8.054   6.950   3.705 -1.0548  0.3460  0.0456
 4047SOL    HW216989   8.193   7.009   3.716 -0.3359 -1.4010  0.6605
 4048SOL     OW16990   9.494   7.926   0.765  0.0845  0.5533 -0.2311
 4048SOL    HW116991   9.517   7.999   0.823  1.6512  1.5611 -1.9943
 4048SOL    HW216992   9.488   7.966   0.678  0.2226 -1.3078 -1.1420
 4049SOL     OW16993   8.537   6.412   2.263  0.5909 -0.1491 -0.1990
 4049SOL    HW116994   8.592   6.483   2.294 -0.0488  0.1960  0.1757
 4049SOL    HW216995   8.538   6.348   2.334  0.5832 -0.1878 -0.2331
 4050SOL     OW16996   7.854   6.518   7.552  0.4906  0.0470  0.1640
 4050SOL    HW116997   7.898   6.598   7.525 -0.4823  0.2203 -1.0216
 4050SOL    HW216998   7.920   6.449   7.540  0.9514  0.5130 -0.0061
 4051SOL     OW16999   6.355   7.001   9.254 -0.7031 -0.1148 -0.0681
 4051SOL    HW117000   6.266   7.002   9.289  1.1065  1.2030  5.5218
 4051SOL    HW217001   6.384   7.092   9.261  1.6321 -0.8100  0.0873
 4052SOL     OW17002   0.973   7.557   8.307  0.0756 -0.2548 -0.3733
 4052SOL    HW117003   1.001   7.475   8.347 -0.0793 -0.4449 -0.6442
 4052SOL    HW217004   0.950   7.532   8.217  0.2383  0.1261 -0.5219
 4053SOL     OW17005   3.563   8.092   4.376  0.0472  0.2099  0.5092
 4053SOL    HW117006   3.635   8.052   4.327 -0.1631  0.1156  0.2792
 4053SOL    HW217007   3.518   8.018   4.417  0.0358  0.2638  0.5940
 4054SOL     OW17008   0.662   2.317   9.181 -0.4138 -0.2070  0.5954
 4054SOL    HW117009   0.723   2.385   9.211 -0.6469  0.8538 -1.1988
 4054SOL    HW217010   0.645   2.264   9.259  0.6188  1.1440  1.7934
 4055SOL     OW17011   7.889   6.436   2.324  0.2638 -0.2134  0.1257
 4055SOL    HW117012   7.843   6.500   2.269 -0.5162 -0.4330  0.5041
 4055SOL    HW217013   7.847   6.352   2.305  0.0505 -0.3113  0.9691
 4056SOL     OW17014   1.725   1.788   9.682 -0.0908 -0.6081 -0.1861
 4056SOL    HW117015   1.631   1.786   9.698  0.4058 -1.6422  3.5619
 4056SOL    HW217016   1.760   1.716   9.735  2.7000 -1.3521 -2.7754
 4057SOL     OW17017   4.042   2.088   3.091  0.5290 -0.3855 -0.0883
 4057SOL    HW117018   3.997   2.004   3.102  0.5491 -0.4081 -0.1831
 4057SOL    HW217019   4.120   2.081   3.148 -0.6048  0.4015  1.6623
 4058SOL     OW17020   7.675   2.847   3.850 -0.0282  0.3157 -0.2414
 4058SOL    HW117021   7.756   2.897   3.859  0.9647 -1.1385 -0.8007
 4058SOL    HW217022   7.661   2.842   3.755  1.2115 -2.4370 -0.3555
 4059SOL     OW17023   4.487   7.075   7.091  0.0030 -0.3991  0.0269
 4059SOL    HW117024   4.412   7.083   7.149 -0.0607  1.8276 -0.3080
 4059SOL    HW217025   4.505   7.164   7.060  0.8707 -1.2889 -2.3066
 4060SOL     OW17026   0.236   6.477   0.576 -0.2339 -0.4663  0.0525
 4060SOL    HW117027   0.294   6.536   0.624 -0.9749  0.4477 -0.1367
 4060SOL    HW217028   0.286   6.451   0.499  0.7104 -1.4079  0.9552
 4061SOL     OW17029   8.021   1.609   2.999 -0.6504 -0.1216 -0.2075
 4061SOL    HW117030   8.113   1.608   3.026 -0.6170  0.7167 -0.2896
 4061SOL    HW217031   8.002   1.517   2.978  0.9814  0.0279 -2.8903
 4062SOL     OW17032   4.624   0.409   0.775 -0.2540  0.2466 -0.3338
 4062SOL    HW117033   4.704   0.362   0.799 -0.6929  0.1550  1.0782
 4062SOL    HW217034   4.647   0.458   0.696  1.1198  0.0398 -0.0873
 4063SOL     OW17035   0.306   9.093   2.004 -0.1737  0.4593 -0.6077
 4063SOL    HW117036   0.211   9.095   2.005 -0.1762  0.2743  0.4066
 4063SOL    HW217037   0.330   9.114   1.913 -1.1611  0.8716 -0.7823
 4064SOL     OW17038   8.406   7.960   2.846  0.4021 -0.1501  0.1013
 4064SOL    HW117039   8.357   7.879   2.834 -1.6807  0.8977  0.9599
 4064SOL    HW217040   8.449   7.951   2.931  0.7995 -0.6291 -0.1462
 4065SOL     OW17041   4.457   4.178   3.910  0.1204 -0.0954  0.2869
 4065SOL    HW117042   4.513   4.101   3.899  0.2814  0.1073 -0.3196
 4065SOL    HW217043   4.369   4.146   3.891  0.1785 -0.1419  0.0954
 4066SOL     OW17044   9.440   5.790   9.562 -0.8676 -0.2996 -0.2129
 4066SOL    HW117045   9.486   5.743   9.631  0.1762  1.7306  0.5848
 4066SOL    HW217046   9.427   5.725   9.493  0.3856 -1.7577  0.8499
 4067SOL     OW17047   0.704   1.536   5.656  0.0357 -0.0585 -1.1802
 4067SOL    HW117048   0.690   1.609   5.716 -0.7280 -0.5188 -0.7767
 4067SOL    HW217049   0.619   1.521   5.615 -0.0236 -1.2033 -0.6921
 4068SOL     OW17050   5.678   4.141   9.093 -0.0769 -0.4607 -0.1566
 4068SOL    HW117051   5.708   4.060   9.054 -0.6873 -1.2428  0.9279
 4068SOL    HW217052   5.758   4.191   9.110  0.2606 -0.5863 -1.3214
 4069SOL     OW17053   4.117   9.113   3.356 -0.0621 -0.0652 -0.2795
 4069SOL    HW117054   4.183   9.063   3.404  0.9396  0.3427 -1.1640
 4069SOL    HW217055   4.162   9.194   3.331 -0.0271 -0.8275 -3.0722
 4070SOL     OW17056   1.541   3.687   9.653  0.0953  0.5312 -0.4465
 4070SOL    HW117057   1.564   3.775   9.681  0.3006 -0.0862  1.4904
 4070SOL    HW217058   1.445   3.689   9.646  0.1997  1.3260 -2.0741
 4071SOL     OW17059   5.696   9.389   7.037 -0.2601  0.4001 -0.0874
 4071SOL    HW117060   5.693   9.470   7.089  0.1195 -0.2434  0.9646
 4071SOL    HW217061   5.685   9.319   7.101 -1.6414 -0.3685 -1.1172
 4072SOL     OW17062   7.670   4.060   4.984  0.7994  0.2139  0.1242
 4072SOL    HW117063   7.718   3.980   5.006  0.2490  0.1285  1.1004
 4072SOL    HW217064   7.585   4.029   4.952  0.4415  0.4025  0.8691
 4073SOL     OW17065   1.867   3.147   0.248  0.2071 -0.2274 -0.3121
 4073SOL    HW117066   1.932   3.114   0.187  1.2490  0.5038  0.3649
 4073SOL    HW217067   1.909   3.141   0.334 -0.0635  1.5254 -0.0153
 4074SOL     OW17068   1.737   9.712   5.343  0.6119  0.1273 -0.4704
 4074SOL    HW117069   1.782   9.654   5.405 -0.1743 -1.6775 -1.4949
 4074SOL    HW217070   1.806   9.767   5.307  1.1410  0.9638  1.6962
 4075SOL     OW17071   4.554   0.085   9.282 -0.1458 -0.6978 -0.2529
 4075SOL    HW117072   4.578  -0.000   9.246  1.4775 -0.0549 -0.7656
 4075SOL    HW217073   4.616   0.146   9.244 -0.6204  0.5720  0.9136
 4076SOL     OW17074   6.113   1.332   5.747 -0.1823  0.3955  1.0897
 4076SOL    HW117075   6.058   1.403   5.713  0.6950  0.4915 -0.1881
 4076SOL    HW217076   6.176   1.377   5.805  0.1031  0.6224  0.6136
 4077SOL     OW17077   0.921   8.598   6.439 -0.3648  0.3441 -0.2167
 4077SOL    HW117078   0.842   8.555   6.407 -0.1763  0.2455 -0.5516
 4077SOL    HW217079   0.889   8.666   6.498 -0.6107 -1.9955  2.5777
 4078SOL     OW17080   4.137   4.228   0.232  0.0364 -0.3281  0.2351
 4078SOL    HW117081   4.197   4.293   0.269 -1.0724  1.0119 -0.2073
 4078SOL    HW217082   4.190   4.149   0.221  1.7438  0.8283 -0.2385
 4079SOL     OW17083   2.943   6.994   9.436  1.1747 -0.3567 -0.0815
 4079SOL    HW117084   2.890   6.994   9.356  0.7455  0.9758  0.1748
 4079SOL    HW217085   2.991   6.911   9.433 -1.2500 -1.8631 -0.1134
 4080SOL     OW17086   7.967   3.426   7.142  0.0308 -0.2417 -0.3617
 4080SOL    HW117087   7.884   3.471   7.159  0.7943  1.5054 -0.9993
 4080SOL    HW217088   7.972   3.358   7.209 -1.5046  0.2074  0.2365
 4081SOL     OW17089   2.580   7.680   7.486 -0.3571  0.2098  0.1215
 4081SOL    HW117090   2.535   7.745   7.432 -0.6879  0.2647  0.4521
 4081SOL    HW217091   2.525   7.602   7.481 -0.6658  0.3731  0.7754
 4082SOL     OW17092   9.453   8.769   7.003 -0.6534 -0.1822 -0.0317
 4082SOL    HW117093   9.380   8.708   7.012  0.2274 -1.4499 -1.0558
 4082SOL    HW217094   9.451   8.797   6.912 -1.3323  1.7759  0.5294
 4083SOL     OW17095   1.984   4.405   8.541  0.1185  0.3052 -0.4269
 4083SOL    HW117096   2.060   4.390   8.596  0.9699  1.0939 -1.3513
 4083SOL    HW217097   1.910   4.411   8.602  0.7482 -0.6993  0.4557
 4084SOL     OW17098   0.418   0.310   4.419  0.2054  0.0164  0.1130
 4084SOL    HW117099   0.472   0.358   4.482  1.7392 -1.1211 -0.2537
 4084SOL    HW217100   0.382   0.378   4.362  0.5314  0.8965  0.9202
 4085SOL     OW17101   3.439   0.110   2.643 -0.0700  0.1987 -0.8638
 4085SOL    HW117102   3.480   0.195   2.629 -0.9609  0.5075 -1.7217
 4085SOL    HW217103   3.508   0.047   2.623  0.6623  0.7071 -0.0198
 4086SOL     OW17104   8.378   8.080   8.734 -0.3672  0.0239  0.2886
 4086SOL    HW117105   8.283   8.087   8.720 -0.6783 -1.0318  1.6709
 4086SOL    HW217106   8.403   8.002   8.685  0.1014  1.1684 -1.3665
 4087SOL     OW17107   9.473   4.000   3.275  0.2953 -0.0228  0.7034
 4087SOL    HW117108   9.461   3.907   3.293  0.2815  0.2875  2.5222
 4087SOL    HW217109   9.564   4.018   3.299  0.0324  0.6023  1.2842
 4088SOL     OW17110   4.914   3.109   6.679  0.3988 -0.1493 -0.1499
 4088SOL    HW117111   4.996   3.121   6.726  0.3687 -0.4596 -0.0144
 4088SOL    HW217112   4.847   3.147   6.737  0.6156  1.6365 -0.9838
 4089SOL     OW17113   2.655   1.123   1.218 -0.1781  0.4919 -0.4817
 4089SOL    HW117114   2.655   1.186   1.146 -2.1934  0.5614 -0.4660
 4089SOL    HW217115   2.602   1.050   1.185 -0.7470  0.3316  0.7542
 4090SOL     OW17116   4.743   5.300   9.738 -0.4911  0.7641  0.2924
 4090SOL    HW117117   4.838   5.292   9.740 -0.2299  1.6803 -2.8736
 4090SOL    HW217118   4.714   5.263   9.822  2.6199  0.6622  1.4524
 4091SOL     OW17119   2.159   7.764   7.290 -0.0370 -0.6268 -0.3148
 4091SOL    HW117120   2.072   7.784   7.255 -0.7126  1.0197  2.0557
 4091SOL    HW217121   2.152   7.674   7.323 -1.1124 -0.2537  0.5299
 4092SOL     OW17122   3.888   7.007   6.794  0.5369  0.4389  0.6663
 4092SOL    HW117123   3.910   6.923   6.754 -0.9823 -0.4431  1.5867
 4092SOL    HW217124   3.960   7.065   6.768  1.0096 -0.7973 -1.0099
 4093SOL     OW17125   1.706   1.296   6.096 -0.5635  0.6472 -0.1460
 4093SOL    HW117126   1.671   1.216   6.135 -1.1690  1.2897  0.6798
 4093SOL    HW217127   1.628   1.349   6.077 -0.1133  2.1732  1.8650
 4094SOL     OW17128   3.111   6.973   8.790  0.1547 -0.2125 -0.5357
 4094SOL    HW117129   3.027   6.997   8.830  1.1909  3.4770 -0.2161
 4094SOL    HW217130   3.088   6.954   8.699 -1.2071 -0.8323 -0.0978
 4095SOL     OW17131   5.450   4.118   2.825  0.5948  0.4808  0.1088
 4095SOL    HW117132   5.524   4.108   2.885 -0.4131  0.4673  1.4016
 4095SOL    HW217133   5.385   4.055   2.856 -0.8808  2.1202  0.5122
 4096SOL     OW17134   9.662   7.155   2.320 -0.0286 -0.0814  0.9864
 4096SOL    HW117135   9.678   7.069   2.357 -0.1898 -0.5108  0.0818
 4096SOL    HW217136   9.746   7.183   2.284 -0.8550 -1.9299 -2.9164
 4097SOL     OW17137   5.129   2.179   3.593  0.1223 -0.6575 -0.6223
 4097SOL    HW117138   5.211   2.130   3.607  0.3591 -0.3078 -0.7779
 4097SOL    HW217139   5.129   2.198   3.499  0.6330  0.7022 -0.3595
 4098SOL     OW17140   3.141   4.379   4.402  0.4268  0.4323 -0.3020
 4098SOL    HW117141   3.228   4.340   4.387  0.0406 -1.1145  1.1912
 4098SOL    HW217142   3.124   4.363   4.495 -1.9769 -0.4306 -0.8349
 4099SOL     OW17143   4.667   7.077   0.584 -0.6787  0.7145  0.0049
 4099SOL    HW117144   4.685   7.008   0.648  2.2494  0.6734 -0.7382
 4099SOL    HW217145   4.614   7.035   0.516  1.0090 -0.8173 -0.4075
 4100SOL     OW17146   1.618   5.358   6.658 -0.0210 -0.6728 -0.2546
 4100SOL    HW117147   1.549   5.304   6.698 -0.1235 -0.5146 -0.2169
 4100SOL    HW217148   1.593   5.363   6.566 -2.3916  2.7872  0.3676
 4101SOL     OW17149   2.145   5.672   5.812 -0.3064 -0.2404 -0.0226
 4101SOL    HW117150   2.116   5.627   5.891  1.5784 -0.3249  0.6714
 4101SOL    HW217151   2.073   5.662   5.750 -3.0173  2.0760  2.4775
 4102SOL     OW17152   0.486   6.986   5.912 -0.2758 -0.0648 -0.5316
 4102SOL    HW117153   0.480   7.034   5.995 -1.9178  1.4745 -1.4655
 4102SOL    HW217154   0.438   6.905   5.928 -2.8604  1.3427 -0.6458
 4103SOL     OW17155   5.120   7.231   1.658  0.6084  0.1498  0.1120
 4103SOL    HW117156   5.197   7.189   1.697  0.0817  0.8477  2.0172
 4103SOL    HW217157   5.059   7.242   1.731 -0.4565  1.5031 -0.9268
 4104SOL     OW17158   0.170   1.261   0.026  0.4009 -0.8857  0.0079
 4104SOL    HW117159   0.244   1.230  -0.028  1.3039 -0.1179  0.7687
 4104SOL    HW217160   0.131   1.181   0.061  2.4551 -1.2532  1.6346
 4105SOL     OW17161   0.378   9.187   6.029  0.5288  0.0066  0.5795
 4105SOL    HW117162   0.357   9.155   6.117 -0.0569  0.2856  0.5431
 4105SOL    HW217163   0.392   9.281   6.040 -0.2194  0.1660  0.2690
 4106SOL     OW17164   3.989   4.641   8.005 -0.2043  0.3332  0.1699
 4106SOL    HW117165   4.071   4.641   7.954  0.3271  0.8281  1.0080
 4106SOL    HW217166   3.984   4.729   8.041 -1.2815  0.4045 -0.1218
 4107SOL     OW17167   7.163   7.110   6.048  0.3668  0.3868 -0.3626
 4107SOL    HW117168   7.104   7.149   5.983 -1.1309  0.4075  0.9416
 4107SOL    HW217169   7.136   7.018   6.053  3.3921 -0.7897 -2.8860
 4108SOL     OW17170   1.943   7.044   5.157  0.6617  0.0307 -0.0272
 4108SOL    HW117171   1.963   7.129   5.197  1.9674  0.0285 -0.6234
 4108SOL    HW217172   1.869   7.062   5.099 -0.0362  0.4311  0.9615
 4109SOL     OW17173   3.862   3.254   5.765 -0.0675 -0.0020 -0.2650
 4109SOL    HW117174   3.899   3.245   5.853 -0.9424 -0.3570  0.0830
 4109SOL    HW217175   3.811   3.335   5.769 -0.9563 -0.5598 -0.1196
 4110SOL     OW17176   4.150   7.031   4.217 -0.2941 -0.0425 -1.2039
 4110SOL    HW117177   4.217   7.078   4.166 -0.0494  0.1225 -0.7370
 4110SOL    HW217178   4.143   6.946   4.174  0.6798 -0.3022 -0.8879
 4111SOL     OW17179   4.668   3.950   3.343  0.0975 -0.5907 -0.6552
 4111SOL    HW117180   4.705   3.985   3.262  0.6433 -1.2613 -0.7061
 4111SOL    HW217181   4.630   3.866   3.318 -0.8030 -0.2515 -0.4473
 4112SOL     OW17182   5.285   4.199   9.498  0.3132 -0.2351 -0.4763
 4112SOL    HW117183   5.364   4.149   9.477  0.6060  0.4148 -0.9657
 4112SOL    HW217184   5.283   4.205   9.593 -0.4994 -2.4042 -0.3020
 4113SOL     OW17185   0.137   4.889   0.467  0.6689 -0.1750 -0.4369
 4113SOL    HW117186   0.195   4.816   0.487  0.0214 -0.2201  1.4660
 4113SOL    HW217187   0.051   4.849   0.454  0.5540  0.1335 -0.6429
 4114SOL     OW17188   0.640   5.711   4.915 -0.1143  0.4031  0.1044
 4114SOL    HW117189   0.623   5.620   4.940  1.0037  0.5790  1.6188
 4114SOL    HW217190   0.592   5.763   4.979  2.1445  0.8572  1.5523
 4115SOL     OW17191   5.698   7.336   7.166  0.2685  0.2003  0.2955
 4115SOL    HW117192   5.780   7.319   7.119 -0.2425 -1.4704 -0.0602
 4115SOL    HW217193   5.722   7.330   7.258  0.8369  1.3253  0.2494
 4116SOL     OW17194   7.736   4.961   3.724  0.2473  0.3894  0.3337
 4116SOL    HW117195   7.691   5.036   3.686  1.0821  0.8739  0.2772
 4116SOL    HW217196   7.761   4.990   3.812 -1.9214 -0.8194  1.4281
 4117SOL     OW17197   0.007   5.111   4.112  0.1053  0.0092 -0.3300
 4117SOL    HW117198   0.034   5.202   4.097  0.3141 -0.1599 -1.0640
 4117SOL    HW217199   0.090   5.063   4.117  0.1165  0.1822  2.5820
 4118SOL     OW17200   3.711   2.039   2.901 -0.5952  0.0611 -0.5672
 4118SOL    HW117201   3.757   1.957   2.883 -2.3674 -1.0159 -0.3839
 4118SOL    HW217202   3.710   2.085   2.817  0.1346 -0.2238 -0.7411
 4119SOL     OW17203   0.571   8.062   4.746 -0.4433 -0.0082  0.1497
 4119SOL    HW117204   0.663   8.064   4.719 -0.3851  1.7543  0.3651
 4119SOL    HW217205   0.572   8.019   4.832  0.1176 -0.3823 -0.0399
 4120SOL     OW17206   4.249   6.526   3.662 -0.0456 -0.6156  0.9784
 4120SOL    HW117207   4.204   6.471   3.598 -0.1604 -0.2478  0.7398
 4120SOL    HW217208   4.307   6.466   3.708  1.9574 -0.5015 -1.1833
 4121SOL     OW17209   2.260   0.085   2.560  0.2001 -0.1655 -0.0522
 4121SOL    HW117210   2.238   0.036   2.639 -1.4866  0.0447 -0.3593
 4121SOL    HW217211   2.230   0.174   2.578 -0.4790 -0.1846 -1.0310
 4122SOL     OW17212   0.428   4.524   2.572 -0.2712 -0.4512 -0.5396
 4122SOL    HW117213   0.407   4.559   2.658  2.7152 -1.8093  0.8869
 4122SOL    HW217214   0.494   4.584   2.537  0.8229 -1.5721 -0.4654
 4123SOL     OW17215   0.215   9.017   8.842  0.5874 -1.2019  0.0806
 4123SOL    HW117216   0.257   9.044   8.760 -0.7757  1.7350  0.2287
 4123SOL    HW217217   0.260   9.068   8.909 -1.0239 -0.4342  0.6131
 4124SOL     OW17218   3.586   1.177   0.343  0.3687 -0.5644  0.1258
 4124SOL    HW117219   3.649   1.145   0.408  0.0661 -0.0746  0.6744
 4124SOL    HW217220   3.502   1.143   0.372  0.3786 -1.2464 -0.6283
 4125SOL     OW17221   2.083   6.369   7.635  0.0826 -0.1224  0.3775
 4125SOL    HW117222   2.097   6.296   7.695  1.8628  1.5020  2.0553
 4125SOL    HW217223   2.171   6.401   7.615 -0.5860  0.7403 -1.4216
 4126SOL     OW17224   3.051   2.627   3.149  0.1899  0.5782 -0.2785
 4126SOL    HW117225   3.038   2.571   3.072 -0.6517 -0.1005  0.3459
 4126SOL    HW217226   3.025   2.573   3.223  0.2370  1.4923  0.4220
 4127SOL     OW17227   3.439   7.534   7.280  0.4315 -0.2143 -0.3657
 4127SOL    HW117228   3.447   7.544   7.185 -0.4863 -1.1989 -0.5679
 4127SOL    HW217229   3.345   7.544   7.297  0.3547 -1.6750  0.2095
 4128SOL     OW17230   5.242   1.886   8.559 -0.3146 -0.1539  0.5684
 4128SOL    HW117231   5.172   1.949   8.572 -1.6091 -1.5757  0.7202
 4128SOL    HW217232   5.279   1.907   8.473  0.5409  1.9519  1.3921
 4129SOL     OW17233   5.416   6.858   6.979  0.0196 -0.1587 -0.6425
 4129SOL    HW117234   5.388   6.924   6.916 -1.0806  0.5343  0.5309
 4129SOL    HW217235   5.510   6.875   6.991  0.3833 -0.6611 -2.4516
 4130SOL     OW17236   1.820   2.328   5.505  0.0441 -0.1626  0.1184
 4130SOL    HW117237   1.910   2.360   5.496  0.1085 -0.1988  0.5733
 4130SOL    HW217238   1.830   2.236   5.529 -0.0479  0.2934  2.1049
 4131SOL     OW17239   6.659   8.517   7.651 -0.3756  0.6722 -0.0741
 4131SOL    HW117240   6.580   8.532   7.703 -0.6701  1.9509 -0.8448
 4131SOL    HW217241   6.681   8.425   7.666 -1.1174  0.7081  1.3686
 4132SOL     OW17242   1.261   1.564   3.069 -0.4266  0.0585 -0.5882
 4132SOL    HW117243   1.349   1.589   3.099 -1.3508  0.1097  2.3865
 4132SOL    HW217244   1.221   1.647   3.041  0.1997  0.1517 -1.2331
 4133SOL     OW17245   8.327   6.774   7.762 -0.2278 -0.9641  0.4337
 4133SOL    HW117246   8.361   6.836   7.827  0.2738 -2.4072  1.6000
 4133SOL    HW217247   8.267   6.718   7.812  0.0933 -2.0550 -0.3706
 4134SOL     OW17248   4.954   0.728   6.053  0.2160  0.1164  0.3805
 4134SOL    HW117249   5.029   0.715   6.112 -0.6636  1.2650  1.8199
 4134SOL    HW217250   4.890   0.664   6.081  0.4445 -0.5197 -0.5145
 4135SOL     OW17251   5.296   9.201   0.421 -0.3862  0.6117 -0.0221
 4135SOL    HW117252   5.357   9.245   0.480  0.9811  0.8721 -1.5589
 4135SOL    HW217253   5.229   9.164   0.479  0.4118  1.5958  1.5957
 4136SOL     OW17254   3.416   2.097   0.469 -0.0423 -0.9015  0.2599
 4136SOL    HW117255   3.507   2.119   0.487 -0.7445  3.4447 -0.2662
 4136SOL    HW217256   3.378   2.075   0.554  0.6954  1.2636  1.2218
 4137SOL     OW17257   3.031   8.432   5.905  0.2234  0.4375  0.1694
 4137SOL    HW117258   3.106   8.448   5.962 -0.6014  1.8955  0.9027
 4137SOL    HW217259   3.046   8.487   5.828 -0.4028  1.2983  0.6385
 4138SOL     OW17260   3.533   2.518   3.474  0.4814 -0.3142 -0.3879
 4138SOL    HW117261   3.574   2.433   3.457 -0.3875 -1.2741  1.8195
 4138SOL    HW217262   3.561   2.540   3.563  1.3216  2.1430 -1.1846
 4139SOL     OW17263   5.483   6.866   5.255  0.1172  0.5998 -0.3596
 4139SOL    HW117264   5.569   6.826   5.250  0.7042  1.9525 -1.9938
 4139SOL    HW217265   5.495   6.954   5.219 -1.8800  0.9212 -0.3659
 4140SOL     OW17266   1.905   8.616   5.644 -0.3213 -0.1186  1.2096
 4140SOL    HW117267   1.875   8.525   5.643  0.2247 -0.3020  0.1139
 4140SOL    HW217268   1.939   8.629   5.732  1.5935 -1.6542  0.7756
 4141SOL     OW17269   5.930   1.933   9.262 -0.6304 -0.0639  0.1514
 4141SOL    HW117270   5.891   1.848   9.241  1.6032 -1.2533  0.5941
 4141SOL    HW217271   5.938   1.978   9.177 -0.1466 -1.0466 -0.3329
 4142SOL     OW17272   6.108   6.425   3.479  0.5735 -0.5241 -0.0567
 4142SOL    HW117273   6.183   6.375   3.448  1.1444  1.3366 -1.9501
 4142SOL    HW217274   6.033   6.366   3.469  1.3006 -1.2375 -1.5639
 4143SOL     OW17275   6.131   9.694   8.497 -0.1465 -0.2801  0.2113
 4143SOL    HW117276   6.209   9.642   8.479  0.1850  0.0182  0.7650
 4143SOL    HW217277   6.064   9.656   8.440  0.0249 -1.4616  0.7619
 4144SOL     OW17278   8.707   4.617   9.081  0.4177  0.4617 -0.1671
 4144SOL    HW117279   8.627   4.564   9.075  0.3922  0.6344 -3.2332
 4144SOL    HW217280   8.678   4.699   9.122 -1.2299  0.8075 -1.8672
 4145SOL     OW17281   3.029   5.972   9.435 -0.3444  0.3135  0.2832
 4145SOL    HW117282   3.012   5.998   9.345  0.5757  1.8800  0.5283
 4145SOL    HW217283   3.014   5.878   9.436 -1.7357  0.4895 -1.1616
 4146SOL     OW17284   0.141   7.803   4.902 -0.1205  0.2122 -0.2777
 4146SOL    HW117285   0.068   7.803   4.964  0.1977 -0.2215  0.1009
 4146SOL    HW217286   0.215   7.838   4.951  0.3388 -0.8830 -0.1468
 4147SOL     OW17287   7.022   1.084   7.950 -0.6191  0.5003  1.2155
 4147SOL    HW117288   6.973   1.157   7.914 -1.7935  0.5976  2.8957
 4147SOL    HW217289   6.974   1.006   7.922  1.7916  0.0785 -2.3936
 4148SOL     OW17290   0.115   0.806   7.063 -0.0331  0.4182 -0.2626
 4148SOL    HW117291   0.185   0.784   7.001 -0.1281 -0.7688  0.0179
 4148SOL    HW217292   0.036   0.811   7.009  0.0716  0.5381 -0.4048
 4149SOL     OW17293   7.062   6.903   0.108 -0.5687  0.6934  0.2053
 4149SOL    HW117294   7.056   6.899   0.013 -0.7129  1.0277  0.2014
 4149SOL    HW217295   7.030   6.990   0.131  1.2886  1.3566  0.4203
 4150SOL     OW17296   2.105   1.124   8.682 -0.2257  0.2199  0.5132
 4150SOL    HW117297   2.105   1.219   8.694  0.0618  0.5660 -1.8093
 4150SOL    HW217298   2.110   1.111   8.587 -2.7277 -2.0965  0.5490
 4151SOL     OW17299   3.566   3.713   6.112  0.5150 -0.0583  0.6297
 4151SOL    HW117300   3.652   3.674   6.100 -0.1259 -0.9424 -1.6794
 4151SOL    HW217301   3.553   3.769   6.035 -1.9422 -2.0213 -0.5455
 4152SOL     OW17302   3.842   8.850   5.081 -0.3270 -0.3044  0.4138
 4152SOL    HW117303   3.817   8.933   5.121 -0.3928  0.5172 -1.2547
 4152SOL    HW217304   3.764   8.795   5.092 -1.1623  0.6464 -0.5281
 4153SOL     OW17305   9.533   0.961   1.817 -0.2917 -0.3148  0.0866
 4153SOL    HW117306   9.438   0.971   1.815 -0.3010 -0.3257  0.4487
 4153SOL    HW217307   9.556   0.933   1.728 -0.6554 -0.5706  0.0721
 4154SOL     OW17308   2.548   3.477   6.635 -0.0720  0.8018  0.4126
 4154SOL    HW117309   2.580   3.388   6.647 -1.3989  0.2952  0.3760
 4154SOL    HW217310   2.601   3.530   6.696 -0.0478 -0.1837  1.2834
 4155SOL     OW17311   0.508   1.652   0.028 -0.6922 -0.5560  0.0407
 4155SOL    HW117312   0.496   1.565  -0.013 -2.4239 -0.1263 -0.4502
 4155SOL    HW217313   0.465   1.712  -0.033  0.3753  0.6467  0.4516
 4156SOL     OW17314   7.320   6.393   5.425  0.3739  0.2439 -0.0171
 4156SOL    HW117315   7.257   6.463   5.407 -1.5303 -0.7967  2.0217
 4156SOL    HW217316   7.284   6.317   5.380  0.7925 -0.1047  0.2372
 4157SOL     OW17317   2.830   8.894   6.067 -0.3672  0.3532  0.4647
 4157SOL    HW117318   2.794   8.928   6.149 -0.5658 -1.0991  1.0069
 4157SOL    HW217319   2.895   8.829   6.094  0.7126  0.9745 -0.5320
 4158SOL     OW17320   0.024   4.074   3.208  0.1809 -0.1655 -0.0864
 4158SOL    HW117321   0.057   4.024   3.283 -0.4759  0.3989  0.5986
 4158SOL    HW217322   0.101   4.086   3.151  0.4279 -1.6132 -0.0881
 4159SOL     OW17323   8.340   3.457   5.706  0.6410  0.0228 -0.2467
 4159SOL    HW117324   8.408   3.520   5.683 -0.1673  0.6354 -1.0566
 4159SOL    HW217325   8.278   3.462   5.633 -0.7624  0.1988  0.9142
 4160SOL     OW17326   7.650   2.503   7.987 -0.4468 -0.5055 -0.8185
 4160SOL    HW117327   7.706   2.427   7.974  1.4883  0.6070  0.4920
 4160SOL    HW217328   7.563   2.467   8.007  0.7993 -2.4489  1.5714
 4161SOL     OW17329   8.214   1.749   3.578  0.0267 -0.4293 -0.2281
 4161SOL    HW117330   8.204   1.659   3.546 -0.2649 -0.8219  0.9181
 4161SOL    HW217331   8.290   1.745   3.636  1.0389  0.4461 -1.4256
 4162SOL     OW17332   8.654   9.208   6.386  0.0029  0.5817 -0.3810
 4162SOL    HW117333   8.692   9.280   6.335  1.3275 -1.4092 -2.3764
 4162SOL    HW217334   8.721   9.188   6.452 -0.5072  1.3511  0.3860
 4163SOL     OW17335   4.301   7.248   1.716 -0.2685 -0.5983 -0.0962
 4163SOL    HW117336   4.357   7.177   1.749  0.5383  0.8025  1.7399
 4163SOL    HW217337   4.218   7.237   1.763 -0.6895 -1.2016 -0.9583
 4164SOL     OW17338   6.257   8.881   1.870 -0.5654  0.5817  0.1025
 4164SOL    HW117339   6.292   8.792   1.861 -1.1414  0.4532 -1.0831
 4164SOL    HW217340   6.322   8.928   1.921  1.4300  0.3934 -2.1135
 4165SOL     OW17341   8.228   2.255   7.424  0.4943  0.0013  0.3089
 4165SOL    HW117342   8.290   2.267   7.352  0.1837 -0.1573  0.0129
 4165SOL    HW217343   8.224   2.160   7.436  0.4262  0.0192  0.4351
 4166SOL     OW17344   1.705   0.961   9.231 -0.1905 -0.4930 -0.1302
 4166SOL    HW117345   1.776   0.915   9.187  1.7934  1.1889  1.1429
 4166SOL    HW217346   1.643   0.892   9.255  1.6058 -2.2032 -0.1749
 4167SOL     OW17347   9.131   3.518   6.819 -0.0811  0.1057 -1.0757
 4167SOL    HW117348   9.192   3.586   6.847  0.9265 -1.2041  0.0315
 4167SOL    HW217349   9.044   3.556   6.834  0.4586  0.9568  0.0364
 4168SOL     OW17350   2.100   5.873   8.839 -0.3325  0.0412 -0.6778
 4168SOL    HW117351   2.019   5.916   8.811 -0.1171  0.7343 -0.2874
 4168SOL    HW217352   2.091   5.867   8.934 -0.3572 -0.7933 -0.7312
 4169SOL     OW17353   4.278   0.601   6.460 -0.2822  0.5288  0.4895
 4169SOL    HW117354   4.367   0.590   6.494 -0.0478  0.3364 -0.1649
 4169SOL    HW217355   4.262   0.695   6.466  0.7265  0.8499 -1.2107
 4170SOL     OW17356   5.488   6.525   5.349 -0.2897 -0.0685 -0.4268
 4170SOL    HW117357   5.462   6.607   5.391 -0.7862 -0.0520 -0.7621
 4170SOL    HW217358   5.440   6.524   5.266 -0.6547 -0.9233 -0.2140
 4171SOL     OW17359   4.653   2.165   4.195 -0.5135 -0.3370  0.2740
 4171SOL    HW117360   4.683   2.076   4.217  0.8855  0.1199  0.2836
 4171SOL    HW217361   4.646   2.209   4.280 -0.0341 -0.0777  0.1777
 4172SOL     OW17362   5.028   1.283   5.141 -0.1704 -0.2331 -0.3442
 4172SOL    HW117363   4.936   1.306   5.139  0.0198  0.6119 -2.8016
 4172SOL    HW217364   5.073   1.362   5.171 -0.0941  0.2862 -1.7248
 4173SOL     OW17365   7.109   6.169   1.314  0.3195 -0.2152  0.0757
 4173SOL    HW117366   7.188   6.135   1.272 -0.5037  0.4872 -2.1802
 4173SOL    HW217367   7.045   6.175   1.243 -1.2038  0.9501  1.4756
 4174SOL     OW17368   1.265   7.786   5.398  0.0322  0.2183 -0.2566
 4174SOL    HW117369   1.220   7.710   5.362 -0.7048 -0.0860  1.2473
 4174SOL    HW217370   1.196   7.851   5.411  0.2275  0.2190  0.8523
 4175SOL     OW17371   1.629   4.722   5.340 -0.3711 -0.6483 -0.0522
 4175SOL    HW117372   1.710   4.704   5.293  0.1725 -0.5654  0.8188
 4175SOL    HW217373   1.560   4.681   5.287  0.2199 -0.6124 -0.8642
 4176SOL     OW17374   9.128   8.573   0.410  0.1545 -0.6732 -0.3919
 4176SOL    HW117375   9.079   8.502   0.452  0.5525 -1.0676 -0.5889
 4176SOL    HW217376   9.178   8.529   0.341  1.5412 -0.4149  0.4329
 4177SOL     OW17377   7.654   1.676   1.974 -0.7654  0.1740  0.3070
 4177SOL    HW117378   7.638   1.761   1.934  1.8265  0.8677  0.6049
 4177SOL    HW217379   7.694   1.624   1.904 -0.0443  0.0200  0.8315
 4178SOL     OW17380   8.014   3.967   4.141 -0.2481  0.0743 -0.8243
 4178SOL    HW117381   7.932   4.010   4.118 -0.5123 -0.4936 -0.9703
 4178SOL    HW217382   8.035   4.000   4.228 -0.4218  0.5213 -0.9480
 4179SOL     OW17383   7.218   6.837   5.552  0.5263  0.1653  0.4042
 4179SOL    HW117384   7.189   6.800   5.635 -0.3385  0.8093  0.3970
 4179SOL    HW217385   7.206   6.932   5.562 -0.1141  0.2086 -0.6536
 4180SOL     OW17386   2.810   2.139   7.953 -0.2648  0.1639  0.2065
 4180SOL    HW117387   2.824   2.146   7.858 -0.2491 -0.2630  0.1737
 4180SOL    HW217388   2.720   2.170   7.967 -0.6225 -0.7204 -0.0794
 4181SOL     OW17389   3.800   4.358   9.611 -0.0068  0.0041 -0.2730
 4181SOL    HW117390   3.866   4.339   9.678 -1.0203 -0.3388  0.6516
 4181SOL    HW217391   3.814   4.450   9.590  2.3516 -0.6450 -1.8971
 4182SOL     OW17392   4.114   4.738   4.396  0.0110  0.3546 -0.5409
 4182SOL    HW117393   4.184   4.803   4.394  0.5535 -0.1907  0.1182
 4182SOL    HW217394   4.160   4.654   4.391 -0.6745  0.0122 -1.2673
 4183SOL     OW17395   1.154   1.182   5.166 -0.3694 -0.1614  0.2652
 4183SOL    HW117396   1.063   1.174   5.138 -0.9047  1.4102  1.4448
 4183SOL    HW217397   1.167   1.111   5.228 -0.8289 -0.3299  0.1700
 4184SOL     OW17398   1.296   3.886   9.633 -0.5478 -0.2058 -0.3198
 4184SOL    HW117399   1.281   3.803   9.588 -1.4190 -0.2551  0.0301
 4184SOL    HW217400   1.212   3.905   9.676 -0.4762  1.0175 -0.6746
 4185SOL     OW17401   9.197   2.153   6.759 -0.0920  0.5808  0.0904
 4185SOL    HW117402   9.239   2.114   6.836  0.0161 -1.1418 -0.7872
 4185SOL    HW217403   9.221   2.245   6.763  2.6169 -0.0350  0.4285
 4186SOL     OW17404   5.921   7.263   5.692  0.4713  0.5205 -0.0939
 4186SOL    HW117405   5.968   7.200   5.637  1.7232 -0.0076  1.4938
 4186SOL    HW217406   5.831   7.231   5.694  1.3568 -2.2828  1.9380
 4187SOL     OW17407   2.217   5.632   6.758  0.6951  0.2352 -0.0950
 4187SOL    HW117408   2.236   5.700   6.694  0.4804 -2.4433 -3.2618
 4187SOL    HW217409   2.124   5.613   6.748  0.4100  0.3986  1.7945
 4188SOL     OW17410   3.654   2.510   3.707  0.0708  0.0370 -0.1167
 4188SOL    HW117411   3.684   2.435   3.758  0.6023 -0.1112 -0.6480
 4188SOL    HW217412   3.728   2.570   3.706 -0.6381  0.9722  1.0433
 4189SOL     OW17413   1.002   2.672   8.622 -0.2938 -0.0337  0.1630
 4189SOL    HW117414   0.932   2.612   8.645 -0.8230  0.7428  0.6411
 4189SOL    HW217415   1.038   2.637   8.540 -2.5946  0.6489 -1.2380
 4190SOL     OW17416   4.169   5.480   8.283  0.1109 -0.0805 -0.1541
 4190SOL    HW117417   4.233   5.451   8.348 -1.0650 -0.7522  0.7378
 4190SOL    HW217418   4.218   5.480   8.201  1.4600  0.1664  0.6148
 4191SOL     OW17419   1.096   4.585   2.623  0.2048 -0.3682  0.4440
 4191SOL    HW117420   1.080   4.668   2.578 -0.3153  0.0289  1.3454
 4191SOL    HW217421   1.083   4.519   2.555 -0.4436  0.2266 -0.0318
 4192SOL     OW17422   7.173   1.368   6.594  0.0895  0.6332  0.2292
 4192SOL    HW117423   7.165   1.349   6.501  2.9900 -1.5923  0.3173
 4192SOL    HW217424   7.094   1.330   6.633  0.8969 -2.4894 -0.8922
 4193SOL     OW17425   2.061   5.045   3.158 -0.0910 -0.0287 -0.2089
 4193SOL    HW117426   2.052   4.962   3.205  1.7403 -0.1837 -0.0510
 4193SOL    HW217427   2.001   5.105   3.202 -0.0730 -0.7823  0.8610
 4194SOL     OW17428   4.732   5.073   7.875 -0.4040  0.6265  0.0733
 4194SOL    HW117429   4.792   5.103   7.943 -1.3376 -0.0642  1.2288
 4194SOL    HW217430   4.688   5.153   7.845 -0.6249  0.8311  0.9201
 4195SOL     OW17431   6.756   7.935   8.812  0.2536 -0.1874  0.1456
 4195SOL    HW117432   6.825   7.874   8.788  0.6055  0.0848  0.4609
 4195SOL    HW217433   6.792   7.986   8.885 -0.0327  0.3955 -0.1097
 4196SOL     OW17434   5.968   3.538   5.848 -0.0230 -0.5977  0.0019
 4196SOL    HW117435   5.899   3.562   5.910  0.7905  0.6538  0.4570
 4196SOL    HW217436   6.050   3.546   5.898  0.4826 -1.8617 -0.5752
 4197SOL     OW17437   0.631   4.778   7.510  0.3187 -0.3372  0.5541
 4197SOL    HW117438   0.688   4.719   7.461 -0.7807 -1.5111  0.6284
 4197SOL    HW217439   0.686   4.810   7.582  1.4746  0.1768 -0.5075
 4198SOL     OW17440   9.752   3.346   7.333 -0.4621 -0.1458 -0.1483
 4198SOL    HW117441   9.666   3.338   7.375  0.0694  0.2036  1.0345
 4198SOL    HW217442   9.734   3.395   7.252 -1.8934 -2.9872 -1.6784
 4199SOL     OW17443   5.405   1.527   6.598  0.0593 -0.9574 -0.4424
 4199SOL    HW117444   5.492   1.518   6.559 -0.3248 -0.5916 -1.4338
 4199SOL    HW217445   5.345   1.513   6.524 -0.7229 -1.2524  0.2342
 4200SOL     OW17446   9.243   7.510   4.997  0.3497 -0.3522  0.1694
 4200SOL    HW117447   9.302   7.474   4.931  0.3178 -0.2569  0.0875
 4200SOL    HW217448   9.298   7.565   5.053  0.3561 -0.3351  0.1468
 4201SOL     OW17449   5.436   2.406   8.673 -0.4693  0.0564 -0.1153
 4201SOL    HW117450   5.390   2.485   8.644 -0.1072  0.7533  1.1080
 4201SOL    HW217451   5.367   2.341   8.683 -0.7468  0.1507 -1.3300
 4202SOL     OW17452   1.760   0.529   5.684 -0.9513 -0.5320 -0.5803
 4202SOL    HW117453   1.823   0.588   5.644 -0.1301 -0.6438  0.4989
 4202SOL    HW217454   1.675   0.571   5.670 -0.4857  0.3966 -0.6988
 4203SOL     OW17455   5.701   1.911   4.370  0.4841 -0.0306  0.5108
 4203SOL    HW117456   5.636   1.939   4.306  1.0661 -0.8724 -0.4731
 4203SOL    HW217457   5.765   1.982   4.371  0.5156 -0.0543  0.0983
 4204SOL     OW17458   9.144   3.449   4.047  0.0214  0.3480  0.5034
 4204SOL    HW117459   9.234   3.436   4.017 -0.3734 -1.2335 -0.0953
 4204SOL    HW217460   9.124   3.539   4.024  1.4485  0.7348  0.6557
 4205SOL     OW17461   5.811   6.485   6.537 -0.0945  0.0441  0.4406
 4205SOL    HW117462   5.813   6.578   6.516 -0.7251  0.3243  1.5395
 4205SOL    HW217463   5.848   6.442   6.460 -1.2534  1.0845 -0.7362
 4206SOL     OW17464   1.653   6.880   1.783 -0.3826  0.0329 -0.1421
 4206SOL    HW117465   1.643   6.785   1.773 -0.4484  0.2692 -3.5436
 4206SOL    HW217466   1.747   6.894   1.792 -0.3903 -0.3342  0.5840
 4207SOL     OW17467   7.741   6.196   4.695  0.2065  0.4523  0.5563
 4207SOL    HW117468   7.673   6.203   4.628  1.3832  0.2992 -0.7030
 4207SOL    HW217469   7.716   6.120   4.748 -0.6476  0.4680  0.1913
 4208SOL     OW17470   2.989   8.517   6.825  0.1792 -0.1552  0.3535
 4208SOL    HW117471   2.967   8.609   6.837 -4.4955 -1.0498  0.4062
 4208SOL    HW217472   2.914   8.470   6.859  2.2887 -4.0663  0.1464
 4209SOL     OW17473   0.294   0.593   7.844 -0.1110 -0.2328  0.2010
 4209SOL    HW117474   0.293   0.688   7.842 -1.0266 -0.2406 -0.6276
 4209SOL    HW217475   0.220   0.569   7.900  0.4883 -0.4615  0.9106
 4210SOL     OW17476   3.184   7.515   7.456 -0.2107 -0.1299  0.2559
 4210SOL    HW117477   3.157   7.534   7.366 -1.9057 -0.9307  0.5543
 4210SOL    HW217478   3.142   7.583   7.509 -0.9686 -0.8813  0.6406
 4211SOL     OW17479   4.248   3.319   0.767  0.3007  0.3489 -0.0118
 4211SOL    HW117480   4.257   3.250   0.702 -1.0064  0.7834 -0.6954
 4211SOL    HW217481   4.293   3.394   0.729  1.8174 -0.1223  0.7798
 4212SOL     OW17482   0.280   4.903   1.041 -0.3629 -0.0869 -0.6352
 4212SOL    HW117483   0.292   4.979   0.983  0.2495  1.3826  1.3110
 4212SOL    HW217484   0.203   4.925   1.094  1.3805  0.5496  1.8344
 4213SOL     OW17485   6.791   2.082   5.413  0.4842 -0.2836 -0.2336
 4213SOL    HW117486   6.756   2.168   5.434 -0.3030 -0.7784  0.5452
 4213SOL    HW217487   6.719   2.022   5.431  1.7672 -1.3592  1.6135
 4214SOL     OW17488   0.601   4.311   4.308  0.1731 -0.2802  0.0689
 4214SOL    HW117489   0.656   4.278   4.236  1.1576  0.6982  0.3439
 4214SOL    HW217490   0.575   4.399   4.280  0.9039  0.2686  1.0727
 4215SOL     OW17491   8.099   3.914   5.058  0.1652 -0.0608  0.0679
 4215SOL    HW117492   8.107   3.832   5.009  0.9739  0.0077  0.0727
 4215SOL    HW217493   8.154   3.976   5.011 -1.2013  0.7634 -0.4952
 4216SOL     OW17494   6.812   3.463   9.166  0.2374  0.1920  0.5380
 4216SOL    HW117495   6.834   3.423   9.082 -1.2929  1.9507 -0.7983
 4216SOL    HW217496   6.740   3.523   9.145 -1.9523 -1.1568  3.5650
 4217SOL     OW17497   6.361   7.412   8.752 -0.0031  0.3413 -0.3178
 4217SOL    HW117498   6.349   7.341   8.689  0.1176  0.1188 -0.0929
 4217SOL    HW217499   6.285   7.404   8.810  1.1993 -1.1425  1.1761
 4218SOL     OW17500   0.007   2.224   4.149  0.2656 -0.1576  0.1617
 4218SOL    HW117501  -0.012   2.276   4.227 -1.2462  0.4731 -0.5845
 4218SOL    HW217502   0.103   2.220   4.145  0.3841  0.9747  1.2695
 4219SOL     OW17503   6.387   9.375   9.178 -0.5038 -0.0898 -0.1065
 4219SOL    HW117504   6.331   9.427   9.120 -0.5839  1.0914  0.9944
 4219SOL    HW217505   6.374   9.413   9.265  1.7495 -0.0156  0.2402
 4220SOL     OW17506   9.658   4.527   5.101  0.3733 -0.6065  0.1258
 4220SOL    HW117507   9.747   4.550   5.128  0.1161 -0.4060  0.8182
 4220SOL    HW217508   9.645   4.437   5.132  0.5071 -0.8172 -0.4166
 4221SOL     OW17509   1.999   2.185   3.592  0.1768  0.0264  0.2457
 4221SOL    HW117510   1.990   2.092   3.616  5.6601 -1.2926 -1.3187
 4221SOL    HW217511   1.955   2.192   3.507  0.9575 -1.6190 -0.3361
 4222SOL     OW17512   6.443   4.211   2.645  1.0598  0.8096 -0.0284
 4222SOL    HW117513   6.485   4.272   2.584 -2.1702  1.6050 -1.6461
 4222SOL    HW217514   6.458   4.125   2.606 -0.2358  1.2432 -1.6058
 4223SOL     OW17515   8.315   6.009   8.912  0.2608 -0.3856 -0.0412
 4223SOL    HW117516   8.296   5.918   8.934 -1.9850 -0.1258 -0.6665
 4223SOL    HW217517   8.230   6.048   8.892  1.2108  1.7232 -0.3366
 4224SOL     OW17518   1.216   9.062   3.930 -0.2874  0.5401 -0.3717
 4224SOL    HW117519   1.181   8.987   3.977 -0.8092  0.3745 -1.0035
 4224SOL    HW217520   1.269   9.109   3.994  1.0634 -1.0312 -0.2712
 4225SOL     OW17521   1.223   8.261   4.620 -0.1880  0.1498 -0.0752
 4225SOL    HW117522   1.275   8.302   4.551  1.4718 -3.0590 -0.9402
 4225SOL    HW217523   1.266   8.289   4.701  0.4195  0.7175 -0.5800
 4226SOL     OW17524   0.790   3.030   4.195  0.0726 -0.1317 -0.1462
 4226SOL    HW117525   0.834   2.992   4.119 -1.2955  0.2594 -1.1829
 4226SOL    HW217526   0.751   2.955   4.240 -2.2240 -0.1129 -1.9234
 4227SOL     OW17527   6.293   8.009   0.080 -0.3009  0.2692 -0.2158
 4227SOL    HW117528   6.383   7.992   0.055 -0.1298  1.8821 -0.8099
 4227SOL    HW217529   6.248   8.028  -0.002 -0.3229  3.0395  0.3362
 4228SOL     OW17530   4.813   4.372   6.347 -0.0434 -0.1321  0.0053
 4228SOL    HW117531   4.804   4.284   6.382  0.9387 -0.4157 -0.4101
 4228SOL    HW217532   4.813   4.360   6.252  1.9886  0.0713 -0.0673
 4229SOL     OW17533   1.541   8.209   4.111 -0.1185 -0.2546  0.7114
 4229SOL    HW117534   1.461   8.254   4.137 -1.4273 -2.0179 -0.0919
 4229SOL    HW217535   1.555   8.144   4.180 -0.3467 -1.0832 -0.0148
 4230SOL     OW17536   1.708   3.608   7.326 -0.5391  0.0987 -0.0429
 4230SOL    HW117537   1.701   3.577   7.416 -1.3587  2.2403  0.6989
 4230SOL    HW217538   1.800   3.631   7.315 -0.8057  1.9469  1.0799
 4231SOL     OW17539   4.095   7.598   5.692  0.6612 -0.4966 -0.1821
 4231SOL    HW117540   4.157   7.664   5.661  1.7083 -0.9740  0.8378
 4231SOL    HW217541   4.149   7.522   5.713 -0.5611 -1.8557 -1.6974
 4232SOL     OW17542   7.682   6.589   0.483  0.2727 -0.6602 -0.2103
 4232SOL    HW117543   7.635   6.628   0.409  0.0022  1.8588  1.2114
 4232SOL    HW217544   7.771   6.576   0.450  1.3535  4.3444  0.0892
 4233SOL     OW17545   9.592   5.002   4.495 -0.0744 -0.3020 -0.4044
 4233SOL    HW117546   9.660   4.957   4.445 -0.3786 -0.9445 -0.2418
 4233SOL    HW217547   9.640   5.064   4.549  0.5352 -1.7618  0.8002
 4234SOL     OW17548   8.733   1.564   8.936 -0.2099  0.3120  0.3702
 4234SOL    HW117549   8.702   1.511   8.862  0.8680 -0.5052  0.4731
 4234SOL    HW217550   8.828   1.558   8.931 -0.1040  1.0559  1.2577
 4235SOL     OW17551   9.010   1.925   3.835 -0.4091  0.0079  0.0127
 4235SOL    HW117552   8.958   1.984   3.781 -0.0535  1.4530  1.2060
 4235SOL    HW217553   8.955   1.848   3.847 -1.0329  0.2346 -1.2474
 4236SOL     OW17554   9.575   7.604   1.622 -0.7934 -0.2395 -0.2019
 4236SOL    HW117555   9.480   7.593   1.632 -0.9345 -1.1676 -2.1183
 4236SOL    HW217556   9.588   7.621   1.529  0.7546  2.4516  0.4261
 4237SOL     OW17557   6.208   7.195   0.635  0.1251  0.4528  0.1733
 4237SOL    HW117558   6.148   7.253   0.681 -0.1102  2.0640 -2.0119
 4237SOL    HW217559   6.154   7.121   0.609  0.3461 -0.7032  2.6542
 4238SOL     OW17560   3.863   5.279   3.085  0.4513  0.1919 -0.0992
 4238SOL    HW117561   3.768   5.291   3.076  0.5623  0.2651 -1.5036
 4238SOL    HW217562   3.898   5.368   3.083  0.6218  0.1214 -0.9860
 4239SOL     OW17563   2.314   9.063   8.649 -0.5133  0.4931  0.4070
 4239SOL    HW117564   2.258   8.993   8.614 -0.6894  0.9005 -0.1360
 4239SOL    HW217565   2.253   9.125   8.688 -0.3019 -0.1266  1.7929
 4240SOL     OW17566   2.075   0.940   3.869 -0.6062  0.4661 -0.9779
 4240SOL    HW117567   2.006   0.944   3.935  1.0073  0.5962  0.7555
 4240SOL    HW217568   2.061   1.017   3.814 -0.7920  1.4489  0.4255
 4241SOL     OW17569   8.780   7.652   9.089 -0.1246  0.0176 -0.7313
 4241SOL    HW117570   8.752   7.560   9.082  0.1915 -0.3973  2.2787
 4241SOL    HW217571   8.714   7.700   9.040  0.0408 -1.8124 -2.9382
 4242SOL     OW17572   7.689   1.864   7.423  0.0754  0.5041 -0.7572
 4242SOL    HW117573   7.719   1.814   7.499 -0.2958  0.0289 -0.9232
 4242SOL    HW217574   7.658   1.798   7.361 -0.0444  0.9173 -1.1419
 4243SOL     OW17575   8.860   8.653   1.922  0.1915  0.2903  0.3832
 4243SOL    HW117576   8.830   8.725   1.979  1.0955  1.7455 -0.8893
 4243SOL    HW217577   8.949   8.679   1.896  0.7626 -1.5973  0.3370
 4244SOL     OW17578   2.715   0.921   2.091  0.5949  0.5314 -0.0179
 4244SOL    HW117579   2.744   0.883   2.008 -0.0576 -0.3569  0.1392
 4244SOL    HW217580   2.683   0.846   2.141 -0.0904  1.2076  0.5779
 4245SOL     OW17581   7.980   8.984   9.493 -0.3887 -0.3950  0.0260
 4245SOL    HW117582   8.000   8.900   9.534  0.0890 -0.2550  0.0811
 4245SOL    HW217583   7.887   8.997   9.510 -0.0411  0.0460  1.7825
 4246SOL     OW17584   7.922   9.702   2.009 -0.0343  0.5242 -0.1888
 4246SOL    HW117585   7.981   9.641   1.964 -1.0883  1.9724 -3.9328
 4246SOL    HW217586   7.957   9.788   1.988 -2.1778  1.3524 -0.5719
 4247SOL     OW17587   1.176   9.631   6.236 -0.0303  0.2683 -0.6139
 4247SOL    HW117588   1.229   9.664   6.308  1.1481  0.0362 -1.3492
 4247SOL    HW217589   1.135   9.552   6.271  1.4980 -0.5387 -0.5336
 4248SOL     OW17590   2.737   9.402   8.281  0.5359 -0.2087  0.1481
 4248SOL    HW117591   2.771   9.354   8.205 -2.0560 -1.4139 -0.3672
 4248SOL    HW217592   2.643   9.412   8.262  0.1488  1.0030  2.4118
 4249SOL     OW17593   6.221   6.018   7.698  0.0825  0.2635  0.7433
 4249SOL    HW117594   6.150   5.991   7.756  0.4371  0.1266  1.1161
 4249SOL    HW217595   6.206   6.112   7.684  0.4587  0.4827  1.7190
 4250SOL     OW17596   1.086   3.198   8.275 -0.2562  0.1346 -0.0730
 4250SOL    HW117597   1.021   3.139   8.313 -1.0099  0.8577 -0.2313
 4250SOL    HW217598   1.062   3.205   8.183  0.7572 -0.5239 -0.4153
 4251SOL     OW17599   6.785   3.805   1.443 -0.2865 -0.4310  0.1118
 4251SOL    HW117600   6.840   3.729   1.461 -2.1259 -1.4673  1.7621
 4251SOL    HW217601   6.730   3.778   1.370  0.4757  0.1450 -0.7039
 4252SOL     OW17602   4.086   4.122   6.686 -0.1099  0.1939  0.2860
 4252SOL    HW117603   4.177   4.127   6.656 -0.6275 -0.3427 -1.4584
 4252SOL    HW217604   4.066   4.028   6.685 -1.0339  0.3913 -0.4785
 4253SOL     OW17605   5.284   3.033   7.209  0.7780  0.3320 -0.1350
 4253SOL    HW117606   5.359   3.042   7.268  1.5145  0.9016 -1.1048
 4253SOL    HW217607   5.239   2.954   7.238  1.2956  0.4312  0.9782
 4254SOL     OW17608   9.422   9.284   8.266  0.0940 -0.0809 -0.5154
 4254SOL    HW117609   9.516   9.278   8.247  0.5673  3.1980  0.2061
 4254SOL    HW217610   9.414   9.362   8.320 -3.0063 -0.6864  0.0468
 4255SOL     OW17611   4.676   0.756   9.258 -0.1314  0.2655  0.5548
 4255SOL    HW117612   4.636   0.670   9.246  0.9072 -0.1389 -0.1810
 4255SOL    HW217613   4.609   0.818   9.230 -0.1460 -0.4109 -0.9890
 4256SOL     OW17614   6.919   4.309   3.794  0.4435  0.5943  0.0844
 4256SOL    HW117615   6.976   4.356   3.855  2.4697  0.0966 -1.3151
 4256SOL    HW217616   6.891   4.374   3.731  0.0543  0.6840  0.3449
 4257SOL     OW17617   2.971   6.225   7.547  0.3287  0.9492  0.3554
 4257SOL    HW117618   3.013   6.220   7.633 -0.4043  4.2099  1.0128
 4257SOL    HW217619   3.026   6.283   7.496 -0.6162  1.1137 -0.5105
 4258SOL     OW17620   8.034   5.502   4.116  0.1977 -0.0993  0.1931
 4258SOL    HW117621   8.082   5.574   4.074  0.5190 -0.4462 -0.0375
 4258SOL    HW217622   8.022   5.437   4.046 -0.9599  0.1464  0.1352
 4259SOL     OW17623   1.743   3.816   5.808 -0.2033  0.2158  0.3381
 4259SOL    HW117624   1.799   3.849   5.878 -0.0347  0.8023 -0.0585
 4259SOL    HW217625   1.706   3.735   5.842  1.7924 -0.8309  0.1715
 4260SOL     OW17626   5.933   0.549   5.534 -0.4181  0.6155  0.0914
 4260SOL    HW117627   5.936   0.543   5.438 -0.2966 -0.1402  0.1312
 4260SOL    HW217628   5.923   0.642   5.552 -0.3897  0.7735 -0.6568
 4261SOL     OW17629   6.159   4.430   7.352 -0.2167 -0.1980 -0.4393
 4261SOL    HW117630   6.167   4.421   7.257  0.2812  1.4553 -0.5903
 4261SOL    HW217631   6.073   4.471   7.365 -0.1183 -0.0642 -0.2036
 4262SOL     OW17632   6.123   1.321   7.179 -0.1417 -0.1425  0.1101
 4262SOL    HW117633   6.070   1.278   7.111  0.1231 -0.5806  0.1769
 4262SOL    HW217634   6.212   1.316   7.146  0.0441 -0.7340  0.6803
 4263SOL     OW17635   9.406   9.644   6.580 -0.5032  0.3544  0.1593
 4263SOL    HW117636   9.411   9.731   6.621  1.2387 -0.2356  1.3301
 4263SOL    HW217637   9.484   9.640   6.524  0.2099 -0.9326  1.1891
 4264SOL     OW17638   3.135   1.800   7.478 -0.2289 -0.5561 -0.4796
 4264SOL    HW117639   3.217   1.846   7.496 -0.6331 -0.1320  0.3559
 4264SOL    HW217640   3.128   1.799   7.383  0.7486 -0.6083 -0.5663
 4265SOL     OW17641   3.852   0.128   4.115  0.0153 -0.0689 -0.2516
 4265SOL    HW117642   3.813   0.089   4.037  1.8689 -2.2291 -0.2022
 4265SOL    HW217643   3.921   0.186   4.082 -0.8226  0.9642 -0.2409
 4266SOL     OW17644   1.727   8.632   0.635 -0.0903 -0.4130 -0.2278
 4266SOL    HW117645   1.817   8.601   0.621  1.3625  3.0715  0.3043
 4266SOL    HW217646   1.717   8.704   0.573 -2.5081 -0.5900 -0.1324
 4267SOL     OW17647   5.970   2.824   0.341  0.2762 -0.3695  0.0001
 4267SOL    HW117648   6.013   2.840   0.425  1.1118  0.2680 -0.5340
 4267SOL    HW217649   5.971   2.728   0.331  0.3754 -0.4323  0.6034
 4268SOL     OW17650   5.009   0.801   9.438  0.0980 -0.0788 -0.2288
 4268SOL    HW117651   5.053   0.831   9.359  1.1040 -1.1151 -0.0970
 4268SOL    HW217652   5.076   0.752   9.486 -1.1881 -1.7292 -0.0184
 4269SOL     OW17653   7.821   3.156   1.183  0.8547 -0.6938 -0.4621
 4269SOL    HW117654   7.787   3.137   1.270 -0.7963 -2.1717 -1.3580
 4269SOL    HW217655   7.821   3.251   1.178 -2.3149 -0.5439  0.0153
 4270SOL     OW17656   2.065   7.827   8.354 -0.2476  0.3206  0.3776
 4270SOL    HW117657   2.099   7.843   8.266  1.2736 -0.8969  0.7039
 4270SOL    HW217658   1.970   7.817   8.342 -0.3337  2.1122 -0.8088
 4271SOL     OW17659   2.345   8.438   3.587  0.0717 -0.1564 -0.1493
 4271SOL    HW117660   2.312   8.525   3.565  1.2780  0.1698 -0.7737
 4271SOL    HW217661   2.353   8.439   3.682  1.4016  0.9564 -0.2350
 4272SOL     OW17662   9.355   0.929   4.842  0.2353  0.4106 -0.1662
 4272SOL    HW117663   9.431   0.888   4.800 -1.6579 -2.9754 -0.6431
 4272SOL    HW217664   9.321   0.989   4.775  2.1897  1.7287 -0.0673
 4273SOL     OW17665   5.357   7.327   1.345  0.5559 -0.6807 -0.5651
 4273SOL    HW117666   5.321   7.364   1.426 -0.1755 -1.3113 -0.5932
 4273SOL    HW217667   5.418   7.259   1.374  0.7822 -0.4675 -0.5376
 4274SOL     OW17668   2.544   5.245   4.198  0.0779 -0.0760  0.0801
 4274SOL    HW117669   2.531   5.272   4.289  1.1384  1.1659 -0.0984
 4274SOL    HW217670   2.639   5.243   4.188  0.1491  3.4592 -1.9460
 4275SOL     OW17671   1.754   3.715   6.708 -0.0973  0.0762 -0.1771
 4275SOL    HW117672   1.778   3.680   6.793  0.4360 -2.6314 -1.3319
 4275SOL    HW217673   1.824   3.688   6.649 -0.8923  1.0750 -1.6737
 4276SOL     OW17674   4.523   8.357   2.307 -0.1606  0.3033 -0.1796
 4276SOL    HW117675   4.530   8.409   2.228  1.9151  1.5929  0.7830
 4276SOL    HW217676   4.562   8.411   2.376  2.8664 -2.7043  0.7563
 4277SOL     OW17677   4.841   0.082   1.618 -0.0354  0.7207 -0.2055
 4277SOL    HW117678   4.882   0.080   1.705  1.5223  1.3419 -0.8832
 4277SOL    HW217679   4.828  -0.011   1.596 -1.2794  0.5616  1.0205
 4278SOL     OW17680   6.477   8.625   3.844  0.3487 -0.1318  0.0690
 4278SOL    HW117681   6.525   8.544   3.827  0.4295 -0.2352  0.7964
 4278SOL    HW217682   6.516   8.660   3.924  0.8215  1.0066 -0.6311
 4279SOL     OW17683   6.712   6.452   8.094 -0.0946 -0.3677 -0.0298
 4279SOL    HW117684   6.793   6.498   8.072  0.0152 -0.3702  0.3685
 4279SOL    HW217685   6.687   6.486   8.180 -0.8282  0.0592 -0.4003
 4280SOL     OW17686   2.522   3.118   1.326  0.4288  0.0763  0.5893
 4280SOL    HW117687   2.600   3.150   1.372  1.4292  0.1460 -1.1065
 4280SOL    HW217688   2.479   3.197   1.294  1.4420 -0.0811 -1.2653
 4281SOL     OW17689   3.418   4.810   8.909 -0.5418 -0.0079 -0.2392
 4281SOL    HW117690   3.444   4.718   8.910 -2.1211 -0.4981 -1.3951
 4281SOL    HW217691   3.378   4.825   8.995  0.1413 -0.2638  0.1262
 4282SOL     OW17692   5.728   9.019   0.961 -0.0702 -0.1120 -0.2280
 4282SOL    HW117693   5.734   9.087   1.028 -0.0408 -1.3294  1.0501
 4282SOL    HW217694   5.809   9.027   0.911  1.3954 -1.1044  1.8332
 4283SOL     OW17695   2.522   2.272   8.659  0.1299 -0.4275  0.3531
 4283SOL    HW117696   2.456   2.332   8.625  1.7635  0.9472 -0.5625
 4283SOL    HW217697   2.528   2.203   8.593 -0.4293 -0.5953  0.4767
 4284SOL     OW17698   6.966   3.321   6.999 -0.1438 -0.0934  0.6418
 4284SOL    HW117699   6.916   3.369   6.934  1.0949  0.5591  0.1475
 4284SOL    HW217700   6.938   3.357   7.083  0.8893  1.6836  0.2753
 4285SOL     OW17701   3.948   7.997   1.720 -0.5233  0.4981 -0.0946
 4285SOL    HW117702   3.927   7.966   1.631 -0.5626 -1.2028  0.4714
 4285SOL    HW217703   4.042   7.981   1.729 -0.1007  2.4761 -0.4755
 4286SOL     OW17704   9.172   5.974   4.166  0.4976 -0.3279 -0.5238
 4286SOL    HW117705   9.092   6.023   4.186 -0.7953 -1.9650 -1.4694
 4286SOL    HW217706   9.186   5.919   4.243 -0.3418 -1.3501 -1.0821
 4287SOL     OW17707   5.942   2.584   1.577 -0.3617  0.0876 -0.0660
 4287SOL    HW117708   5.894   2.520   1.629 -1.3812 -1.1851 -2.4098
 4287SOL    HW217709   5.922   2.561   1.486  2.1977  1.4757 -1.0951
 4288SOL     OW17710   9.105   8.617   7.922 -0.1792  0.0729 -0.0099
 4288SOL    HW117711   9.198   8.609   7.944 -0.2480  0.6441  0.5328
 4288SOL    HW217712   9.063   8.638   8.006 -1.1907 -2.7962  0.2999
 4289SOL     OW17713   6.690   8.348   4.239  0.3760 -0.0230  0.2222
 4289SOL    HW117714   6.737   8.332   4.321  0.6556 -0.3693 -0.0025
 4289SOL    HW217715   6.680   8.261   4.200 -2.6151 -0.3187  1.4216
 4290SOL     OW17716   3.426   0.369   5.963 -0.3021  0.0600  0.1284
 4290SOL    HW117717   3.485   0.349   6.036 -0.8868 -1.9680  0.1041
 4290SOL    HW217718   3.480   0.420   5.902  0.7797  0.1011  1.0866
 4291SOL     OW17719   9.423   1.637   7.444  0.1571  0.1498  0.2153
 4291SOL    HW117720   9.391   1.579   7.374  1.2107 -0.8235  0.5029
 4291SOL    HW217721   9.346   1.653   7.499 -0.4494  0.1012 -0.6047
 4292SOL     OW17722   2.875   5.635   8.276  0.2082 -0.5167  0.2802
 4292SOL    HW117723   2.893   5.650   8.368 -2.0594  0.8388  0.5794
 4292SOL    HW217724   2.897   5.543   8.261 -0.0008 -0.9309  2.3170
 4293SOL     OW17725   8.614   4.031   6.577  0.2505 -0.3627 -0.8900
 4293SOL    HW117726   8.680   4.059   6.513  1.0951 -1.7388 -0.6773
 4293SOL    HW217727   8.567   3.960   6.533 -0.2889 -0.1949 -0.5921
 4294SOL     OW17728   8.962   1.434   2.717  0.0316  0.1325  0.4688
 4294SOL    HW117729   8.973   1.523   2.750  0.1681 -0.3917  1.8969
 4294SOL    HW217730   9.051   1.401   2.705  0.0284  0.7673 -1.8266
 4295SOL     OW17731   4.738   5.494   3.021  0.5930  0.0329  0.4292
 4295SOL    HW117732   4.740   5.575   2.971  0.9184 -0.1084  0.2118
 4295SOL    HW217733   4.715   5.521   3.110  2.5484  0.5994  0.8097
 4296SOL     OW17734   3.143   2.788   4.767 -0.2543  0.2289  0.5274
 4296SOL    HW117735   3.081   2.773   4.839 -0.5483  2.2142  0.7646
 4296SOL    HW217736   3.229   2.779   4.807 -0.3962 -0.5393  0.6740
 4297SOL     OW17737   5.076   6.130   9.112 -0.4298 -0.0597  0.2991
 4297SOL    HW117738   5.035   6.128   9.198 -2.2908  0.8690 -0.5060
 4297SOL    HW217739   5.058   6.217   9.078 -0.6613 -0.7456 -1.4485
 4298SOL     OW17740   8.205   5.074   2.524  0.0370 -0.7384  0.1316
 4298SOL    HW117741   8.283   5.090   2.471  1.3193 -1.2348  1.7803
 4298SOL    HW217742   8.215   5.133   2.599 -1.8162  0.0810 -0.2302
 4299SOL     OW17743   5.237   8.496   5.314 -0.1672 -0.2058 -0.2007
 4299SOL    HW117744   5.163   8.551   5.340  0.7964 -0.0386  2.5269
 4299SOL    HW217745   5.300   8.556   5.275 -0.0911  0.2657  0.6160
 4300SOL     OW17746   6.569   6.055   4.522 -0.1407 -0.2832  0.0060
 4300SOL    HW117747   6.546   6.057   4.429  1.1212 -2.1532 -0.3965
 4300SOL    HW217748   6.630   5.981   4.531  0.9530  0.7613  2.0504
 4301SOL     OW17749   9.737   1.132   5.365  0.4013  0.6594 -0.4769
 4301SOL    HW117750   9.730   1.094   5.453  1.0451  0.3186 -0.5637
 4301SOL    HW217751   9.829   1.119   5.341  0.6309  2.2116 -0.5510
 4302SOL     OW17752   0.197   6.783   1.597  0.4905  0.1326 -0.3829
 4302SOL    HW117753   0.166   6.693   1.612  0.3930 -0.3341 -2.9762
 4302SOL    HW217754   0.178   6.800   1.505  0.7324  2.7623 -0.0106
 4303SOL     OW17755   2.806   7.920   4.756 -0.3142 -0.6057 -0.1000
 4303SOL    HW117756   2.837   7.841   4.711 -1.3557 -1.5163  0.7365
 4303SOL    HW217757   2.778   7.979   4.685  2.2560 -0.1405 -0.8530
 4304SOL     OW17758   1.533   8.207   2.583 -0.1295 -0.5331  0.3444
 4304SOL    HW117759   1.491   8.281   2.626 -0.9477 -1.1757  0.6858
 4304SOL    HW217760   1.496   8.130   2.627  0.5193 -1.1476 -0.1628
 4305SOL     OW17761   3.504   0.117   3.652  0.0890  0.3343 -0.4667
 4305SOL    HW117762   3.436   0.102   3.586  0.4363  2.9964 -1.5383
 4305SOL    HW217763   3.459   0.112   3.736 -0.5365 -2.1919 -0.8541
 4306SOL     OW17764   9.435   5.716   6.901 -0.2622 -0.3236 -0.3115
 4306SOL    HW117765   9.432   5.772   6.823 -2.6263 -0.8650 -0.6818
 4306SOL    HW217766   9.389   5.636   6.876 -0.4724 -0.7976  1.4305
 4307SOL     OW17767   6.024   7.671   6.961 -0.1574 -0.0225  0.1219
 4307SOL    HW117768   6.049   7.625   6.881  0.6082  1.8057 -0.7430
 4307SOL    HW217769   6.053   7.614   7.032  1.4211 -0.5557 -0.9018
 4308SOL     OW17770   0.525   1.067   7.456  0.2007 -0.5223 -0.0122
 4308SOL    HW117771   0.571   0.986   7.435  1.1546  0.0061  0.0018
 4308SOL    HW217772   0.594   1.131   7.472 -0.5318  0.0767  0.8641
 4309SOL     OW17773   8.861   7.093   7.344 -0.5859 -0.4362  0.0488
 4309SOL    HW117774   8.902   7.133   7.267  1.7907 -0.4017  1.2673
 4309SOL    HW217775   8.931   7.045   7.388 -1.7979 -0.2644  2.3401
 4310SOL     OW17776   4.997   7.834   1.293  0.5640  0.2321  0.5771
 4310SOL    HW117777   4.968   7.861   1.381 -0.5019 -0.6074  0.4938
 4310SOL    HW217778   5.092   7.839   1.297  0.5123  0.5871  1.6642
 4311SOL     OW17779   4.611   4.913   7.136  0.2012 -0.5577 -0.5240
 4311SOL    HW117780   4.563   4.985   7.095  0.3312 -0.5053 -0.5836
 4311SOL    HW217781   4.558   4.835   7.117 -0.2338 -0.4019  0.0149
 4312SOL     OW17782   4.364   5.547   3.863 -0.0433 -0.2275  0.2667
 4312SOL    HW117783   4.270   5.529   3.853  0.1354 -0.8104 -0.4413
 4312SOL    HW217784   4.368   5.638   3.892 -0.7885  0.1900 -0.8807
 4313SOL     OW17785   1.756   6.184   5.743 -0.0953 -0.3555  0.2909
 4313SOL    HW117786   1.819   6.251   5.772 -0.5781  0.4617 -0.4817
 4313SOL    HW217787   1.810   6.108   5.722  0.7086  0.4335 -0.6730
 4314SOL     OW17788   1.808   6.098   6.887 -0.5050 -0.0809  0.1886
 4314SOL    HW117789   1.721   6.136   6.873 -0.0348  0.9836  0.0837
 4314SOL    HW217790   1.869   6.166   6.859  0.3710 -0.8124  0.2714
 4315SOL     OW17791   3.944   0.061   5.585  0.0429  0.3014 -0.2318
 4315SOL    HW117792   3.953   0.057   5.490  2.8747  1.2615 -0.0993
 4315SOL    HW217793   4.032   0.044   5.619 -0.9553 -0.3748  2.2582
 4316SOL     OW17794   5.395   9.485   5.038  0.0603 -0.5273  0.0488
 4316SOL    HW117795   5.426   9.561   4.988  0.7207 -0.0972  1.0942
 4316SOL    HW217796   5.300   9.483   5.022  0.3030 -0.6544 -1.5506
 4317SOL     OW17797   6.117   7.623   7.451  0.0179 -0.4919 -0.1532
 4317SOL    HW117798   6.150   7.601   7.364  0.8189 -0.4090  0.1183
 4317SOL    HW217799   6.091   7.539   7.489 -1.6266 -0.3900 -0.9604
 4318SOL     OW17800   9.147   9.663   5.906 -0.1583  0.2418 -0.3086
 4318SOL    HW117801   9.191   9.747   5.891 -0.1268  0.1402 -0.7987
 4318SOL    HW217802   9.179   9.606   5.836 -0.2104 -0.1679 -0.0016
 4319SOL     OW17803   4.684   7.239   5.219 -0.2317 -0.0375  0.1136
 4319SOL    HW117804   4.678   7.291   5.138  0.8664  1.0912  0.7283
 4319SOL    HW217805   4.756   7.178   5.202  0.4664  0.6687  0.4734
 4320SOL     OW17806   1.371   6.433   0.156 -0.1119  0.3698  0.3069
 4320SOL    HW117807   1.448   6.390   0.194 -1.5451 -2.8875 -0.1184
 4320SOL    HW217808   1.316   6.456   0.231  1.0259  2.3891  0.5887
 4321SOL     OW17809   4.235   8.412   0.582 -0.0219 -0.1237 -0.7697
 4321SOL    HW117810   4.292   8.407   0.506  3.7293 -0.6472  1.8048
 4321SOL    HW217811   4.268   8.487   0.631 -1.5078 -0.5201  0.9310
 4322SOL     OW17812   5.861   8.215   8.854 -0.0954  0.2337 -0.2744
 4322SOL    HW117813   5.890   8.123   8.856 -0.9659 -0.0504 -0.0829
 4322SOL    HW217814   5.825   8.230   8.941 -0.3762  0.6218 -0.4570
 4323SOL     OW17815   8.453   3.101   3.233 -0.3066 -0.1412 -0.6866
 4323SOL    HW117816   8.519   3.155   3.276 -0.4100  0.9770 -1.8794
 4323SOL    HW217817   8.475   3.012   3.259  0.3087  0.3889  0.7392
 4324SOL     OW17818   3.849   5.086   6.364 -0.2369 -0.1023 -0.2728
 4324SOL    HW117819   3.814   5.049   6.283 -3.3208  1.2700  0.2637
 4324SOL    HW217820   3.887   5.170   6.339 -0.9543  0.2031 -0.3591
 4325SOL     OW17821   1.339   3.663   6.376  0.2471  0.6035 -0.0984
 4325SOL    HW117822   1.326   3.647   6.470 -0.3773  0.5981 -0.1807
 4325SOL    HW217823   1.327   3.577   6.336  0.0488  0.6908 -0.2275
 4326SOL     OW17824   2.425   2.921   3.063 -0.0720 -0.6644  0.1468
 4326SOL    HW117825   2.355   2.981   3.089  0.0255  0.2622 -1.5728
 4326SOL    HW217826   2.388   2.834   3.074 -1.7426 -0.1926 -1.2822
 4327SOL     OW17827   4.411   2.484   6.175 -0.2165  0.6496 -0.1350
 4327SOL    HW117828   4.363   2.403   6.161 -0.9402  0.8618  1.0051
 4327SOL    HW217829   4.370   2.524   6.252  0.3382  1.9317 -0.4688
 4328SOL     OW17830   2.871   0.059   3.644  0.0300  1.0072 -0.0617
 4328SOL    HW117831   2.959   0.055   3.681  0.9681 -0.5905 -2.2358
 4328SOL    HW217832   2.859  -0.025   3.601 -1.2175  2.3635 -2.6526
 4329SOL     OW17833   2.791   9.419   3.294 -0.5192  0.0239 -0.5206
 4329SOL    HW117834   2.848   9.346   3.271 -2.1467 -0.6349 -2.9284
 4329SOL    HW217835   2.849   9.495   3.294  0.6507 -0.8176 -1.3893
 4330SOL     OW17836   4.047   3.485   5.819 -0.1540  0.1472  0.8367
 4330SOL    HW117837   4.052   3.394   5.848  1.5273  0.9143  3.2900
 4330SOL    HW217838   4.132   3.522   5.842 -1.1957  2.6308  0.9663
 4331SOL     OW17839   4.368   3.281   5.658 -0.0944 -0.5449 -0.4847
 4331SOL    HW117840   4.356   3.315   5.569  1.2463 -0.4885 -0.6570
 4331SOL    HW217841   4.332   3.349   5.715 -0.5261 -0.3701 -0.9608
 4332SOL     OW17842   5.893   1.360   2.839 -0.1080  0.1077 -0.2952
 4332SOL    HW117843   5.909   1.324   2.926 -0.2483  0.9064  0.0645
 4332SOL    HW217844   5.835   1.296   2.797 -2.5840  1.1584  1.2963
 4333SOL     OW17845   4.181   7.757   9.367  0.1148  0.1666 -0.4939
 4333SOL    HW117846   4.147   7.674   9.401  0.4692 -0.0212 -0.5876
 4333SOL    HW217847   4.122   7.823   9.402  0.0048 -0.0983 -0.1649
 4334SOL     OW17848   8.283   8.957   1.037  0.1424  0.1583  0.0718
 4334SOL    HW117849   8.195   8.989   1.058  0.4167  1.1159 -0.1944
 4334SOL    HW217850   8.337   9.036   1.032  0.6384 -0.2446 -1.5232
 4335SOL     OW17851   6.425   6.956   8.747  0.0698  0.1532  0.0812
 4335SOL    HW117852   6.375   6.886   8.788  1.7735 -1.7133 -0.8417
 4335SOL    HW217853   6.423   7.028   8.809 -1.2911 -0.9161  1.3178
 4336SOL     OW17854   3.055   4.700   2.079  0.6610  0.5997 -0.6713
 4336SOL    HW117855   3.114   4.652   2.021  0.0607  0.4785 -1.2010
 4336SOL    HW217856   2.975   4.713   2.026 -1.2416 -2.4857  1.1761
 4337SOL     OW17857   6.029   5.394   9.351  0.0498 -0.6562 -0.4745
 4337SOL    HW117858   6.036   5.347   9.268  1.5465 -0.2204 -0.6455
 4337SOL    HW217859   5.994   5.480   9.327  0.2295 -0.6256 -0.6375
 4338SOL     OW17860   6.771   5.005   1.656  0.6056  0.2759  0.2276
 4338SOL    HW117861   6.844   5.034   1.601  1.1370 -0.1349  0.7018
 4338SOL    HW217862   6.697   5.060   1.630  1.0077  0.4931 -0.4699
 4339SOL     OW17863   8.912   4.464   0.005  0.3653  0.0262 -0.6724
 4339SOL    HW117864   8.881   4.479  -0.084 -1.7684 -0.0922 -0.0016
 4339SOL    HW217865   8.951   4.377   0.003 -0.6736 -0.4380 -1.2528
 4340SOL     OW17866   6.335   0.494   6.411  0.1280 -0.4012  0.3890
 4340SOL    HW117867   6.349   0.402   6.433 -0.2114 -1.0872 -1.9800
 4340SOL    HW217868   6.248   0.497   6.372  0.9276  0.5017 -1.4771
 4341SOL     OW17869   2.178   5.400   0.120  0.4269 -0.7123  0.0570
 4341SOL    HW117870   2.261   5.381   0.076 -0.6509 -0.4145 -2.2531
 4341SOL    HW217871   2.169   5.495   0.112  0.3666 -0.5879  1.3333
 4342SOL     OW17872   3.987   3.775   4.923 -0.4486  0.3523  0.5629
 4342SOL    HW117873   3.921   3.818   4.977 -1.3607 -0.3194  0.0151
 4342SOL    HW217874   3.940   3.704   4.880  0.8522 -0.7448  0.8885
 4343SOL     OW17875   1.766   4.741   7.047 -0.4231 -0.5677 -0.0703
 4343SOL    HW117876   1.750   4.674   6.980 -0.0932  0.4878 -1.2272
 4343SOL    HW217877   1.847   4.713   7.090 -0.2239 -0.8527 -0.6238
 4344SOL     OW17878   7.040   8.649   4.288  0.0869  0.0803 -0.5146
 4344SOL    HW117879   7.116   8.598   4.260 -0.5743 -1.7522  0.8822
 4344SOL    HW217880   7.068   8.740   4.277  2.6518 -0.5183  0.3128
 4345SOL     OW17881   3.111   8.069   5.957  0.2952  0.5466 -0.1087
 4345SOL    HW117882   3.052   8.102   5.889  0.3390  0.1270 -0.3605
 4345SOL    HW217883   3.064   8.082   6.039 -0.5158 -0.5396 -0.3742
 4346SOL     OW17884   2.609   5.166   0.811 -0.2321 -0.1040 -0.3353
 4346SOL    HW117885   2.599   5.259   0.789 -0.2884  0.1065  0.5274
 4346SOL    HW217886   2.522   5.128   0.797 -0.6148  0.3108  0.7653
 4347SOL     OW17887   6.916   6.456   9.054  0.2725  0.6715  0.2735
 4347SOL    HW117888   6.889   6.408   8.975  0.5084 -0.2441  0.7280
 4347SOL    HW217889   7.003   6.488   9.034 -0.0690  1.3131 -0.2067
 4348SOL     OW17890   8.140   3.186   9.674  0.3143 -0.1383 -0.0527
 4348SOL    HW117891   8.182   3.270   9.693  1.7696 -1.1077  1.1740
 4348SOL    HW217892   8.211   3.129   9.645 -0.6181 -1.0403 -0.6698
 4349SOL     OW17893   5.680   8.237   3.070  0.4021 -0.6451  0.0317
 4349SOL    HW117894   5.665   8.331   3.063 -1.7997 -1.0133 -0.9427
 4349SOL    HW217895   5.774   8.229   3.085  0.4259  1.7451  1.5929
 4350SOL     OW17896   4.950   8.227   4.461 -0.1081  0.1860 -0.0261
 4350SOL    HW117897   4.929   8.136   4.480  0.0709 -0.5197 -2.8026
 4350SOL    HW217898   4.995   8.258   4.540 -1.1175 -1.7611  1.4014
 4351SOL     OW17899   0.304   9.059   7.873  0.3240  0.3311  0.7033
 4351SOL    HW117900   0.299   9.148   7.908  0.7624  0.9475 -0.7323
 4351SOL    HW217901   0.397   9.036   7.878  0.0439 -0.6086  2.3287
 4352SOL     OW17902   7.504   0.817   3.720  0.2957 -0.0973  0.3238
 4352SOL    HW117903   7.572   0.883   3.735  2.5865 -2.0632 -0.8300
 4352SOL    HW217904   7.446   0.856   3.655  1.3012  0.9788  0.0447
 4353SOL     OW17905   6.786   1.597   4.949 -0.0381  0.5602  0.2293
 4353SOL    HW117906   6.827   1.679   4.977  0.7885  0.3100 -0.2432
 4353SOL    HW217907   6.830   1.574   4.867 -1.3555  0.4621 -0.4818
 4354SOL     OW17908   0.649   0.654   4.407  0.9345 -0.0392  0.0751
 4354SOL    HW117909   0.661   0.746   4.432  0.3949 -0.2698  1.2954
 4354SOL    HW217910   0.577   0.655   4.344 -0.8861  0.1766  2.0318
 4355SOL     OW17911   2.157   1.713   8.997 -0.1974 -0.1398  0.2104
 4355SOL    HW117912   2.110   1.640   9.037 -0.1186 -0.4759 -0.3040
 4355SOL    HW217913   2.242   1.714   9.041 -0.5058  0.1770  0.8129
 4356SOL     OW17914   6.508   6.647   7.919  0.0597  0.0547 -0.3358
 4356SOL    HW117915   6.415   6.633   7.900 -0.0831  0.4963  0.0227
 4356SOL    HW217916   6.542   6.559   7.935 -0.1910 -0.1553 -0.9193
 4357SOL     OW17917   2.511   1.136   4.226  0.0119  0.4236 -0.5546
 4357SOL    HW117918   2.545   1.136   4.137 -0.6158  0.6938 -0.8011
 4357SOL    HW217919   2.426   1.180   4.220  0.1277  0.7802  0.2411
 4358SOL     OW17920   0.038   2.070   0.432 -0.0415 -0.1763  0.1676
 4358SOL    HW117921   0.071   2.065   0.522 -0.1483 -1.2189  0.1593
 4358SOL    HW217922  -0.008   1.987   0.419 -1.0028  0.4342 -0.4707
 4359SOL     OW17923   6.829   8.387   0.187 -0.2303  0.3320  0.3569
 4359SOL    HW117924   6.767   8.368   0.257 -1.0590  0.2443 -0.3969
 4359SOL    HW217925   6.850   8.302   0.149 -0.3030  0.4492  0.0522
 4360SOL     OW17926   8.831   1.535   3.009  0.6645 -0.2481  0.1192
 4360SOL    HW117927   8.840   1.443   2.984 -3.2352 -0.4840 -0.9610
 4360SOL    HW217928   8.798   1.534   3.099 -1.3696 -0.0808 -0.5738
 4361SOL     OW17929   3.753   2.598   5.400 -0.0352  0.1780 -0.0596
 4361SOL    HW117930   3.756   2.678   5.453 -1.7337  0.2011  0.0444
 4361SOL    HW217931   3.701   2.622   5.324 -1.0414 -0.9633  0.2402
 4362SOL     OW17932   5.732   7.901   0.813  0.2043 -1.0409  0.0023
 4362SOL    HW117933   5.789   7.905   0.736  0.5938  1.2144  0.3305
 4362SOL    HW217934   5.781   7.848   0.876  1.1763 -0.5705 -0.3314
 4363SOL     OW17935   0.061   2.736   6.164  0.2475 -0.1317 -0.2087
 4363SOL    HW117936   0.118   2.812   6.149  0.0727 -0.2928 -1.8390
 4363SOL    HW217937  -0.002   2.766   6.230  1.6999  0.3075  1.0308
 4364SOL     OW17938   3.052   4.259   1.640 -0.1709  0.0499  0.5494
 4364SOL    HW117939   2.961   4.291   1.636 -0.0570  0.2837 -0.9998
 4364SOL    HW217940   3.076   4.267   1.732 -1.8769 -0.4701  1.0938
 4365SOL     OW17941   7.529   9.712   0.746 -0.3565  0.2073  0.1270
 4365SOL    HW117942   7.625   9.716   0.744 -0.4100  2.4585 -0.3414
 4365SOL    HW217943   7.507   9.733   0.837 -0.4110 -2.4234  0.7942
 4366SOL     OW17944   7.048   5.653   0.550 -0.0548 -0.3100  0.1486
 4366SOL    HW117945   7.030   5.659   0.456  0.8818 -3.8902 -0.4194
 4366SOL    HW217946   7.132   5.698   0.562  0.6966 -1.2863 -1.1383
 4367SOL     OW17947   4.520   6.504   3.548  0.5581 -0.0773  0.5532
 4367SOL    HW117948   4.450   6.462   3.498 -0.1801  0.4095  1.1642
 4367SOL    HW217949   4.535   6.444   3.621 -0.1671  0.4700  1.1642
 4368SOL     OW17950   0.440   8.637   2.762 -0.2554 -0.4000  0.2792
 4368SOL    HW117951   0.382   8.634   2.837 -0.9145 -0.3670 -0.2192
 4368SOL    HW217952   0.382   8.649   2.687  0.3736 -0.6140 -0.2558
 4369SOL     OW17953   0.464   7.875   1.449  0.4120 -0.5975 -0.6469
 4369SOL    HW117954   0.379   7.879   1.405  0.4494  1.0338 -0.6249
 4369SOL    HW217955   0.478   7.964   1.483  0.7641 -1.5560  1.9608
 4370SOL     OW17956   9.004   2.549   9.325 -0.1015  0.1752 -0.0990
 4370SOL    HW117957   8.923   2.536   9.374  0.4515  1.6869  1.3314
 4370SOL    HW217958   8.987   2.626   9.270 -0.0327 -0.2604 -0.7423
 4371SOL     OW17959   1.038   9.635   4.708 -0.2285  0.2270 -0.0328
 4371SOL    HW117960   0.978   9.688   4.657  0.0362  0.0256 -0.5592
 4371SOL    HW217961   1.026   9.546   4.675 -0.6557 -0.0464  0.8274
 4372SOL     OW17962   0.455   4.033   7.418  0.1623 -0.4393  0.1315
 4372SOL    HW117963   0.498   4.087   7.484  0.9050 -1.6783  0.6964
 4372SOL    HW217964   0.523   4.017   7.352 -0.2539 -0.1324 -0.3805
 4373SOL     OW17965   4.569   6.956   0.347 -0.4244 -0.3266 -0.0177
 4373SOL    HW117966   4.647   6.900   0.347  0.6120  1.0266 -0.7341
 4373SOL    HW217967   4.497   6.897   0.325  0.7519 -1.2346 -1.7242
 4374SOL     OW17968   7.370   5.328   0.816 -0.3537 -0.8107 -0.1890
 4374SOL    HW117969   7.451   5.310   0.864 -0.0097  1.6617  0.2671
 4374SOL    HW217970   7.389   5.301   0.726  0.5564 -1.3264  0.1494
 4375SOL     OW17971   8.362   8.024   4.007 -0.7411 -0.8621  0.1083
 4375SOL    HW117972   8.412   7.947   3.981 -1.1327 -0.3905 -2.3709
 4375SOL    HW217973   8.427   8.095   4.012 -0.7757 -0.7568 -0.6937
 4376SOL     OW17974   9.426   3.523   1.081 -0.1416 -0.4210 -0.3048
 4376SOL    HW117975   9.361   3.506   1.013 -1.0812  1.2900  0.1157
 4376SOL    HW217976   9.497   3.568   1.035  0.8665 -2.3662 -0.7809
 4377SOL     OW17977   0.715   4.928   4.918 -0.1617  0.3158 -0.6368
 4377SOL    HW117978   0.780   4.898   4.854 -0.0346 -1.8945  0.4108
 4377SOL    HW217979   0.689   4.848   4.963 -2.4254  1.3971  0.0880
 4378SOL     OW17980   1.053   8.126   5.256 -0.3902 -0.1092  0.1178
 4378SOL    HW117981   1.071   8.136   5.350 -2.1071  0.9990  0.3693
 4378SOL    HW217982   1.125   8.171   5.213  0.6765 -1.0282  0.8684
 4379SOL     OW17983   7.663   7.089   3.771  1.1323  0.1186  0.3032
 4379SOL    HW117984   7.638   7.129   3.687  1.1106 -1.5010 -0.4961
 4379SOL    HW217985   7.583   7.094   3.824  1.1810  1.2645  0.2879
 4380SOL     OW17986   3.478   1.124   6.228 -0.2022 -0.5727 -0.1522
 4380SOL    HW117987   3.412   1.188   6.254  1.9775  0.8888  2.2192
 4380SOL    HW217988   3.482   1.062   6.301 -0.5386 -2.0407 -1.3242
 4381SOL     OW17989   1.304   1.237   3.209 -0.1815  0.0235  0.6768
 4381SOL    HW117990   1.321   1.199   3.122  1.5300  0.1371  0.9264
 4381SOL    HW217991   1.239   1.305   3.193  1.6986  1.5665 -0.9293
 4382SOL     OW17992   2.562   5.863   1.772  0.2888 -0.0475 -0.7125
 4382SOL    HW117993   2.644   5.908   1.754  1.2186 -2.1734 -2.1401
 4382SOL    HW217994   2.507   5.930   1.814  2.7243  1.4311  0.3501
 4383SOL     OW17995   9.704   9.195   2.059 -0.7377  0.2168 -0.6837
 4383SOL    HW117996   9.647   9.154   2.125 -0.0109  1.7770  0.9765
 4383SOL    HW217997   9.656   9.273   2.031  0.2020  1.1248  0.1648
 4384SOL     OW17998   0.537   2.222   0.690  0.0691 -0.1093  1.2439
 4384SOL    HW117999   0.500   2.298   0.733 -1.2792 -0.7608  1.2836
 4384SOL    HW218000   0.595   2.258   0.623  1.5477  0.9148  2.9866
 4385SOL     OW18001   0.804   9.630   1.105  0.7654  0.1022 -0.5902
 4385SOL    HW118002   0.762   9.598   1.025  0.8273  0.3747 -0.7324
 4385SOL    HW218003   0.805   9.554   1.163 -2.3124  0.6775  0.4150
 4386SOL     OW18004   3.202   7.270   3.327  0.1251  0.0754  0.5937
 4386SOL    HW118005   3.223   7.197   3.268  0.4148  0.4431  0.2281
 4386SOL    HW218006   3.195   7.230   3.413 -2.0265 -0.7576  0.0814
 4387SOL     OW18007   5.819   4.262   6.179  0.1313  0.2906 -0.3729
 4387SOL    HW118008   5.817   4.174   6.216 -3.3241  0.7936  0.9500
 4387SOL    HW218009   5.801   4.249   6.086  2.2473 -0.4776 -0.7502
 4388SOL     OW18010   2.370   0.064   0.852 -0.5994 -0.2517 -0.2822
 4388SOL    HW118011   2.285   0.030   0.881 -0.6961  0.9367  0.9485
 4388SOL    HW218012   2.367   0.158   0.872  1.3237 -0.3297  0.6435
 4389SOL     OW18013   7.783   5.941   9.546 -0.0228 -0.1844 -0.3568
 4389SOL    HW118014   7.847   5.998   9.589 -0.3100  0.2979 -0.5641
 4389SOL    HW218015   7.809   5.853   9.572  0.3121  0.0498  0.1247
 4390SOL     OW18016   8.287   1.277   3.058  0.1016  0.4696 -0.5014
 4390SOL    HW118017   8.379   1.285   3.083 -0.0392 -1.2365  0.7533
 4390SOL    HW218018   8.280   1.190   3.020 -0.7861  1.0481 -1.7536
 4391SOL     OW18019   4.769   1.730   7.335  0.0366  0.4825  0.3551
 4391SOL    HW118020   4.857   1.765   7.348  1.2364 -1.4213 -1.9807
 4391SOL    HW218021   4.714   1.807   7.324  1.8425  1.6976 -0.5526
 4392SOL     OW18022   2.031   3.564   1.587 -0.3435 -0.6415  0.2815
 4392SOL    HW118023   2.004   3.628   1.520 -1.5629 -0.7079  0.6790
 4392SOL    HW218024   2.105   3.605   1.631 -1.8400  1.0977  1.3377
 4393SOL     OW18025   7.067   1.994   2.084  0.2724  0.1108 -0.1602
 4393SOL    HW118026   7.002   2.061   2.106  0.3519 -1.0098  4.5194
 4393SOL    HW218027   7.149   2.043   2.077 -0.0597  0.8397  0.7200
 4394SOL     OW18028   9.283   3.290   4.490  1.0087 -0.0881  0.4637
 4394SOL    HW118029   9.260   3.204   4.455 -1.1331  0.3687  0.6516
 4394SOL    HW218030   9.205   3.344   4.477  1.5632  1.2524  2.2617
 4395SOL     OW18031   6.723   7.291   1.137  0.1080  0.0214 -0.0887
 4395SOL    HW118032   6.700   7.377   1.102  0.5975 -0.3861 -1.4934
 4395SOL    HW218033   6.656   7.232   1.103  0.5982 -0.3918 -0.3515
 4396SOL     OW18034   0.678   8.322   3.128  0.0162  0.1850  0.4640
 4396SOL    HW118035   0.676   8.364   3.214  1.1874 -0.3782  0.7912
 4396SOL    HW218036   0.590   8.333   3.094 -0.1365  1.4747  1.2242
 4397SOL     OW18037   8.122   2.539   8.322  0.1800 -0.2751  0.0710
 4397SOL    HW118038   8.126   2.446   8.341  1.6684 -0.1151  0.6752
 4397SOL    HW218039   8.118   2.581   8.408 -1.7718  0.1991 -0.2163
 4398SOL     OW18040   9.580   9.047   7.071 -0.3389 -0.1383  0.0967
 4398SOL    HW118041   9.547   8.958   7.061 -2.2971  0.2998  1.9471
 4398SOL    HW218042   9.585   9.061   7.166 -1.4569  2.1352 -0.0999
 4399SOL     OW18043   8.028   3.693   5.808 -0.5268  0.0530 -0.0721
 4399SOL    HW118044   7.946   3.739   5.825 -1.4031 -1.0427 -1.1341
 4399SOL    HW218045   8.031   3.624   5.874 -0.3076  0.2691  0.1463
 4400SOL     OW18046   5.264   3.553   6.352  0.7881 -0.0126  0.4187
 4400SOL    HW118047   5.268   3.542   6.257  0.1191  0.2853  0.3524
 4400SOL    HW218048   5.356   3.551   6.380  1.0686  1.0752 -0.3646
 4401SOL     OW18049   5.264   2.496   0.339  0.1016  0.3417  0.0383
 4401SOL    HW118050   5.291   2.406   0.321 -0.2435  0.2586 -0.0669
 4401SOL    HW218051   5.224   2.527   0.258  0.0529  0.5277  0.1314
 4402SOL     OW18052   5.238   0.099   7.124 -0.3177 -0.2397  0.5459
 4402SOL    HW118053   5.168   0.034   7.123  0.9468 -1.6369 -0.9435
 4402SOL    HW218054   5.192   0.183   7.124 -1.9988 -1.1119 -0.0941
 4403SOL     OW18055   0.443   9.014   6.281 -0.7888 -0.6857 -0.3972
 4403SOL    HW118056   0.510   9.081   6.272  1.5958 -2.7452  0.9221
 4403SOL    HW218057   0.378   9.052   6.340 -0.0437  0.8109 -0.5051
 4404SOL     OW18058   6.906   8.610   8.429  0.1215  0.6056  0.1576
 4404SOL    HW118059   6.879   8.568   8.510 -1.3062  2.4342  0.6807
 4404SOL    HW218060   6.989   8.653   8.451 -0.7699  1.9531  0.9724
 4405SOL     OW18061   0.538   3.647   7.888  0.3815  0.1987 -0.3663
 4405SOL    HW118062   0.489   3.589   7.946 -0.3830  0.9101 -0.2846
 4405SOL    HW218063   0.474   3.675   7.822  0.8505  0.6102 -0.6529
 4406SOL     OW18064   0.678   3.687   1.622  0.0881  0.1740  0.6513
 4406SOL    HW118065   0.726   3.682   1.539  0.4481 -0.2473  0.8796
 4406SOL    HW218066   0.685   3.779   1.649 -3.5550  1.3900 -1.8381
 4407SOL     OW18067   3.814   0.795   7.176  0.0746  0.1027  0.4469
 4407SOL    HW118068   3.724   0.769   7.159 -0.3255  0.7296  1.5663
 4407SOL    HW218069   3.825   0.783   7.270  1.3258 -0.4599  0.2532
 4408SOL     OW18070   6.354   3.493   5.137 -0.1336 -0.0007  0.5108
 4408SOL    HW118071   6.378   3.400   5.141 -0.0868 -0.0862 -1.1653
 4408SOL    HW218072   6.259   3.492   5.132 -0.0673 -0.0753 -1.3175
 4409SOL     OW18073   1.587   4.635   6.477 -0.2043  0.5411  0.4229
 4409SOL    HW118074   1.509   4.590   6.510 -1.3699 -0.5178 -3.2318
 4409SOL    HW218075   1.573   4.727   6.499 -2.2744  0.2891  0.3747
 4410SOL     OW18076   4.189   8.545   1.488 -0.6049 -0.1601 -0.7218
 4410SOL    HW118077   4.248   8.620   1.475  0.2749  0.0849  3.1887
 4410SOL    HW218078   4.106   8.584   1.513 -0.4025 -0.4337  0.4444
 4411SOL     OW18079   1.621   7.767   7.516 -0.2845 -0.7915  0.1574
 4411SOL    HW118080   1.555   7.750   7.450  0.5764 -0.8858 -0.7019
 4411SOL    HW218081   1.611   7.860   7.536 -2.5909 -1.3764  2.2097
 4412SOL     OW18082   9.507   3.070   1.821 -0.4245 -0.7250  0.4340
 4412SOL    HW118083   9.527   3.140   1.758 -0.0812 -2.0244 -0.9571
 4412SOL    HW218084   9.548   3.099   1.902  0.3673  0.3379 -0.3036
 4413SOL     OW18085   2.581   1.590   6.286  0.0454  0.2960  0.4254
 4413SOL    HW118086   2.563   1.499   6.310 -0.3657  0.3877  0.4682
 4413SOL    HW218087   2.503   1.619   6.238  0.3002  0.5345  0.1518
 4414SOL     OW18088   5.283   7.821   1.277 -0.0642  0.0177  0.3586
 4414SOL    HW118089   5.360   7.765   1.284  0.1585  0.2431 -0.2296
 4414SOL    HW218090   5.305   7.899   1.328  0.2431  0.2365 -0.1040
 4415SOL     OW18091   6.468   6.740   0.472  0.2686 -0.1114  0.0240
 4415SOL    HW118092   6.499   6.821   0.431  1.0322 -0.0451  0.6992
 4415SOL    HW218093   6.509   6.670   0.421  0.8024 -0.0362  0.3380
 4416SOL     OW18094   1.315   4.774   0.858  0.8665  0.6759 -0.4207
 4416SOL    HW118095   1.324   4.839   0.788 -2.2896  1.4990 -0.1817
 4416SOL    HW218096   1.295   4.692   0.812  2.2445  0.4131 -0.5926
 4417SOL     OW18097   8.252   4.105   4.559 -0.0070  0.2915 -0.3811
 4417SOL    HW118098   8.237   4.018   4.522 -1.6715  1.0433 -1.5948
 4417SOL    HW218099   8.210   4.103   4.645 -0.5113  0.0444 -0.6298
 4418SOL     OW18100   7.998   9.286   2.109  0.2673 -0.3705  0.5375
 4418SOL    HW118101   8.006   9.272   2.014 -2.4077  1.4313 -0.0535
 4418SOL    HW218102   8.036   9.373   2.123 -2.7530  1.1082  0.3445
 4419SOL     OW18103   8.270   4.640   1.610 -0.3494 -0.2431  0.3030
 4419SOL    HW118104   8.226   4.614   1.529  0.8033  1.1012 -0.8097
 4419SOL    HW218105   8.261   4.735   1.612  1.0357 -0.1011  0.8953
 4420SOL     OW18106   8.133   6.844   9.033  0.0734 -0.3136  0.0580
 4420SOL    HW118107   8.133   6.748   9.038  0.7811 -0.2879  0.7539
 4420SOL    HW218108   8.066   6.870   9.096 -0.3721 -0.3591 -0.3957
 4421SOL     OW18109   0.858   2.191   0.577  0.2488 -0.6037 -0.0702
 4421SOL    HW118110   0.905   2.273   0.562 -0.9355  0.2972  1.0340
 4421SOL    HW218111   0.783   2.195   0.518 -0.4649 -0.3285  0.8385
 4422SOL     OW18112   2.951   4.249   7.029  0.0521  0.0789  0.5879
 4422SOL    HW118113   2.981   4.183   6.968  2.4967 -0.9993  2.7763
 4422SOL    HW218114   3.006   4.325   7.012  0.1680  0.0659  0.9061
 4423SOL     OW18115   1.343   7.737   1.838  0.1560  0.3575  0.2990
 4423SOL    HW118116   1.335   7.644   1.815 -0.5274  0.1138  1.4458
 4423SOL    HW218117   1.328   7.783   1.756 -0.8585 -0.5141 -0.0286
 4424SOL     OW18118   4.986   2.446   0.996 -0.0481 -0.1053 -0.2036
 4424SOL    HW118119   4.947   2.415   0.914 -1.6209 -0.1946  0.5603
 4424SOL    HW218120   4.921   2.505   1.033  0.5584 -0.2241  1.0993
 4425SOL     OW18121   1.593   6.717   0.264  0.3303 -0.7084  0.0841
 4425SOL    HW118122   1.650   6.718   0.187  1.6648 -0.8071  1.0523
 4425SOL    HW218123   1.539   6.796   0.255 -0.6051 -1.4867 -1.7064
 4426SOL     OW18124   1.855   5.325   0.408  0.2420  0.0222 -0.1320
 4426SOL    HW118125   1.767   5.313   0.372 -0.1783 -0.6587  1.0615
 4426SOL    HW218126   1.889   5.236   0.416  0.7374  0.2361  0.1679
 4427SOL     OW18127   0.835   0.155   9.130 -0.2683 -0.3918 -0.2647
 4427SOL    HW118128   0.893   0.169   9.056 -0.8818 -1.2151 -0.9083
 4427SOL    HW218129   0.759   0.211   9.113 -0.4642 -0.6717 -0.3198
 4428SOL     OW18130   1.356   7.686   5.631  0.7405 -0.0424 -0.3306
 4428SOL    HW118131   1.383   7.606   5.588 -0.7511 -0.4606 -0.5681
 4428SOL    HW218132   1.326   7.743   5.560  2.6713  1.1272 -0.2614
 4429SOL     OW18133   9.052   7.296   3.719  0.3477 -0.1446  0.8454
 4429SOL    HW118134   8.979   7.235   3.729  1.3971 -1.0765  3.8173
 4429SOL    HW218135   9.128   7.240   3.703  0.7254  0.7034 -0.5008
 4430SOL     OW18136   1.835   7.185   9.085 -0.0699 -0.2830  0.5369
 4430SOL    HW118137   1.903   7.135   9.129  0.6493  0.7643  0.6446
 4430SOL    HW218138   1.881   7.242   9.024 -0.8606  0.2015  0.3646
 4431SOL     OW18139   0.237   3.351   3.009  0.3680 -0.6950  0.1453
 4431SOL    HW118140   0.149   3.371   2.977  0.3638 -2.0278 -0.7461
 4431SOL    HW218141   0.294   3.366   2.934  0.7837 -0.7467  0.4464
 4432SOL     OW18142   8.020   9.596   6.757 -0.1250  0.0837 -0.5747
 4432SOL    HW118143   8.005   9.677   6.806  2.3161  0.7672 -0.8172
 4432SOL    HW218144   8.052   9.534   6.822  1.8996  0.6052 -1.0083
 4433SOL     OW18145   0.974   5.530   5.020 -0.3758  0.2959  0.0500
 4433SOL    HW118146   0.974   5.543   5.115  4.2638 -0.1943  0.3618
 4433SOL    HW218147   1.020   5.447   5.007 -1.0012  0.2878 -2.6732
 4434SOL     OW18148   7.224   0.654   8.252 -0.1158  0.2605 -0.1743
 4434SOL    HW118149   7.160   0.602   8.204 -0.7599  0.4496  0.4662
 4434SOL    HW218150   7.250   0.598   8.326 -0.0097  0.4263 -0.0856
 4435SOL     OW18151   3.131   7.277   2.286 -0.6198 -0.1508  0.3478
 4435SOL    HW118152   3.052   7.322   2.317 -0.7437  0.8935 -1.3278
 4435SOL    HW218153   3.203   7.333   2.315 -0.7673  1.1733 -1.6231
 4436SOL     OW18154   6.923   5.801   0.236  0.6496 -0.0256 -0.3773
 4436SOL    HW118155   6.943   5.708   0.246 -0.7635 -0.6473 -2.5408
 4436SOL    HW218156   6.911   5.812   0.141 -0.2146  2.1415 -0.0605
 4437SOL     OW18157   5.220   6.148   7.864 -0.3151  0.1805 -0.4591
 4437SOL    HW118158   5.185   6.160   7.776 -0.8616  0.5004 -0.2041
 4437SOL    HW218159   5.301   6.198   7.866 -0.1823 -0.0179 -0.8488
 4438SOL     OW18160   7.879   0.469   3.556 -0.3188 -0.2671  0.4552
 4438SOL    HW118161   7.933   0.394   3.582 -1.1265 -0.6254  1.1317
 4438SOL    HW218162   7.935   0.545   3.570  0.5784 -0.7444 -0.4219
 4439SOL     OW18163   8.939   5.804   0.114  0.5019  0.1604 -0.3951
 4439SOL    HW118164   9.022   5.766   0.086  0.3170  0.6098 -1.6121
 4439SOL    HW218165   8.920   5.872   0.049  0.2041  1.4860  1.0256
 4440SOL     OW18166   5.374   4.114   7.405  0.3068 -0.5125 -0.3516
 4440SOL    HW118167   5.294   4.157   7.373  1.5265  1.3100 -1.2049
 4440SOL    HW218168   5.444   4.152   7.350  2.1920  0.6125  2.5657
 4441SOL     OW18169   9.611   8.950   9.181 -0.2395  0.1643 -0.6781
 4441SOL    HW118170   9.623   8.893   9.105  0.4344 -1.2129  0.4082
 4441SOL    HW218171   9.669   8.913   9.248 -2.3914 -0.0210  1.2195
 4442SOL     OW18172   6.569   8.581   4.133  0.1231  0.0527  0.0774
 4442SOL    HW118173   6.641   8.637   4.162 -0.4016  0.3285  0.8664
 4442SOL    HW218174   6.602   8.492   4.143 -0.2299  0.1052  2.1026
 4443SOL     OW18175   8.680   1.672   4.502  0.0819  0.3584 -0.2148
 4443SOL    HW118176   8.672   1.713   4.588  0.0252 -1.3497  0.6526
 4443SOL    HW218177   8.645   1.583   4.515  1.5377 -0.4711 -1.5817
 4444SOL     OW18178   9.183   1.719   5.140 -0.0188  0.0550 -0.4224
 4444SOL    HW118179   9.133   1.788   5.097  0.8207  1.2747  0.4964
 4444SOL    HW218180   9.124   1.643   5.140 -1.1632  0.9180 -0.9693
 4445SOL     OW18181   7.653   4.251   6.667 -0.3475 -0.6116  0.3686
 4445SOL    HW118182   7.737   4.251   6.712  0.0014  2.6082 -0.0779
 4445SOL    HW218183   7.647   4.164   6.627  3.4581 -0.4869 -0.8684
 4446SOL     OW18184   1.358   4.842   3.674  0.3114 -0.1118  0.2127
 4446SOL    HW118185   1.342   4.879   3.761 -0.8671 -1.2752  0.5363
 4446SOL    HW218186   1.281   4.787   3.658 -1.0378  2.3083 -2.8207
 4447SOL     OW18187   8.299   4.748   0.723  0.2550 -0.0616  0.6695
 4447SOL    HW118188   8.357   4.804   0.672 -1.8112  2.5124  0.9478
 4447SOL    HW218189   8.211   4.781   0.704 -0.8197 -0.9923  3.5192
 4448SOL     OW18190   5.300   6.853   0.996 -0.3703  0.1886  0.2098
 4448SOL    HW118191   5.328   6.937   0.961  0.4185  1.1127  2.7955
 4448SOL    HW218192   5.359   6.789   0.955  0.1229  1.0955 -0.5229
 4449SOL     OW18193   3.479   1.589   7.909 -0.3553  0.6113  0.2543
 4449SOL    HW118194   3.559   1.578   7.856 -0.9923  0.0866 -0.6299
 4449SOL    HW218195   3.492   1.531   7.984 -1.5780 -2.8199 -1.9244
 4450SOL     OW18196   6.286   3.388   0.963  0.4522 -0.1192 -0.0000
 4450SOL    HW118197   6.197   3.418   0.981  0.7265  0.1752  0.9038
 4450SOL    HW218198   6.283   3.294   0.976  0.0238 -0.2612 -1.0373
 4451SOL     OW18199   8.110   3.504   3.652  0.6562 -0.1863 -0.3553
 4451SOL    HW118200   8.131   3.548   3.569  0.9789 -1.3777 -0.9350
 4451SOL    HW218201   8.103   3.412   3.628  1.9449 -0.7214  1.1422
 4452SOL     OW18202   6.591   5.221   0.263  0.5505  0.4709  0.6714
 4452SOL    HW118203   6.658   5.275   0.221  0.7341  0.0323  0.3949
 4452SOL    HW218204   6.641   5.156   0.314  0.4075 -1.1939 -1.1901
 4453SOL     OW18205   7.180   1.468   1.140 -0.5056  0.2293  0.4138
 4453SOL    HW118206   7.114   1.537   1.130  0.8002  1.5937  1.0085
 4453SOL    HW218207   7.264   1.511   1.124  0.2218 -1.8707 -2.2941
 4454SOL     OW18208   3.023   2.067   8.115  0.3216 -0.5806 -0.7192
 4454SOL    HW118209   3.056   1.977   8.112  1.4257 -0.1761 -2.8919
 4454SOL    HW218210   2.959   2.071   8.044  0.6662  0.4674 -0.9956
 4455SOL     OW18211   6.983   2.037   0.869 -0.0020 -0.3648  0.1464
 4455SOL    HW118212   7.077   2.054   0.870  0.1008 -0.8299  2.5050
 4455SOL    HW218213   6.973   1.960   0.813  1.2995 -1.5802  1.5001
 4456SOL     OW18214   4.980   7.296   2.177 -0.3812 -0.3049 -0.2671
 4456SOL    HW118215   4.959   7.209   2.210  0.9984 -1.0235 -1.1581
 4456SOL    HW218216   4.895   7.338   2.164 -1.0465 -1.1356  1.1023
 4457SOL     OW18217   7.058   5.268   8.164  0.1925  0.0513 -0.4378
 4457SOL    HW118218   7.114   5.311   8.230  0.8566  0.6810 -1.3919
 4457SOL    HW218219   6.990   5.333   8.145 -0.3318 -0.3528  0.0341
 4458SOL     OW18220   2.969   8.471   5.110  0.3070 -0.1942 -0.1375
 4458SOL    HW118221   2.956   8.383   5.145 -0.6628 -0.2823 -0.7025
 4458SOL    HW218222   2.904   8.525   5.154  1.2691  0.3820  0.6329
 4459SOL     OW18223   6.112   0.466   2.771 -0.0688  0.2511  0.1549
 4459SOL    HW118224   6.063   0.473   2.689  1.0502  0.6400 -0.5008
 4459SOL    HW218225   6.182   0.404   2.751  0.1898  0.3212  0.8327
 4460SOL     OW18226   3.608   3.243   0.610  0.5346 -0.0234 -0.0003
 4460SOL    HW118227   3.518   3.277   0.611  0.5580  0.0456  0.5638
 4460SOL    HW218228   3.621   3.209   0.699  1.0886  0.0317 -0.0565
 4461SOL     OW18229   6.953   7.318   1.314  0.1861 -0.4668 -0.1901
 4461SOL    HW118230   6.994   7.403   1.298  1.0058 -0.4717  1.6183
 4461SOL    HW218231   6.866   7.339   1.349  0.4830 -0.3532  0.4906
 4462SOL     OW18232   4.492   2.417   0.513  0.1447 -0.0490 -0.3461
 4462SOL    HW118233   4.555   2.475   0.555  0.7899 -1.1012  0.1732
 4462SOL    HW218234   4.499   2.334   0.561 -1.2309 -0.3689 -0.6347
 4463SOL     OW18235   5.050   4.172   9.342  0.1670 -0.5588 -0.0178
 4463SOL    HW118236   5.085   4.091   9.304  0.4473 -1.1823  1.4976
 4463SOL    HW218237   5.116   4.198   9.407 -0.7782 -0.1067  0.7813
 4464SOL     OW18238   7.227   6.821   4.820  0.0814  0.3453  0.2776
 4464SOL    HW118239   7.277   6.806   4.900  0.5024  1.6466  0.2789
 4464SOL    HW218240   7.292   6.844   4.754 -0.1229 -1.9326 -0.8160
 4465SOL     OW18241   0.146   1.071   1.641  0.2309  0.5236 -0.3546
 4465SOL    HW118242   0.212   1.070   1.571 -0.4423 -1.5228 -1.0495
 4465SOL    HW218243   0.195   1.049   1.720  0.6734  0.8336 -0.5387
 4466SOL     OW18244   4.305   8.185   7.047 -0.6932  0.1007 -0.2414
 4466SOL    HW118245   4.383   8.131   7.063  0.1901  1.7613  1.4854
 4466SOL    HW218246   4.232   8.124   7.051  0.4361 -1.4029 -1.2647
 4467SOL     OW18247   0.073   1.484   6.750 -0.4144 -0.2210 -0.0424
 4467SOL    HW118248   0.059   1.497   6.656 -1.1104 -0.6318 -0.0030
 4467SOL    HW218249   0.109   1.396   6.757 -0.8773 -0.4043  0.1103
 4468SOL     OW18250   9.747   0.378   0.167 -0.0117  0.2811 -0.0675
 4468SOL    HW118251   9.705   0.349   0.087 -0.7913 -2.7021  1.2725
 4468SOL    HW218252   9.803   0.451   0.140 -1.4102  0.4082 -2.9879
 4469SOL     OW18253   5.141   3.260   9.731  0.2186  0.2711  0.0577
 4469SOL    HW118254   5.159   3.185   9.788 -0.0628  0.2249  0.0869
 4469SOL    HW218255   5.152   3.337   9.788  1.6579  0.3330 -0.2470
 4470SOL     OW18256   4.640   1.437   8.235 -0.3896 -0.5328 -0.3072
 4470SOL    HW118257   4.602   1.523   8.256 -0.9593 -1.4572  3.0132
 4470SOL    HW218258   4.712   1.427   8.297 -1.4674 -3.1465  0.6601
 4471SOL     OW18259   5.347   3.901   5.134 -0.1447 -0.3066  0.2275
 4471SOL    HW118260   5.402   3.941   5.067 -0.4471  0.0405  0.1798
 4471SOL    HW218261   5.262   3.887   5.090  0.1581 -1.6718  0.0230
 4472SOL     OW18262   8.776   4.686   7.624  0.0399  0.4392 -0.4030
 4472SOL    HW118263   8.837   4.731   7.683  0.5361 -1.1939  0.3676
 4472SOL    HW218264   8.781   4.736   7.542  0.5090  1.8208  0.4386
 4473SOL     OW18265   4.018   9.348   1.306  0.6041  0.1119  0.8580
 4473SOL    HW118266   3.947   9.295   1.343 -1.1862  0.1874 -2.1695
 4473SOL    HW218267   4.038   9.307   1.222  3.7814  0.4923  1.3132
 4474SOL     OW18268   9.187   1.034   9.481  1.3551  0.5564 -0.9700
 4474SOL    HW118269   9.122   0.965   9.465  0.8514  0.3419  1.5376
 4474SOL    HW218270   9.149   1.112   9.441 -1.1403  0.7135  1.4232
 4475SOL     OW18271   4.967   5.132   8.454 -0.3242  0.7910 -0.1870
 4475SOL    HW118272   5.061   5.146   8.459 -0.5593  2.8438 -0.4044
 4475SOL    HW218273   4.953   5.043   8.488  1.6671  0.4447 -0.1845
 4476SOL     OW18274   5.236   8.400   6.497  1.2587 -0.4186  0.1025
 4476SOL    HW118275   5.266   8.450   6.573  1.1429 -0.2910  0.0650
 4476SOL    HW218276   5.167   8.454   6.459  2.3013  0.2164 -0.9467
 4477SOL     OW18277   6.508   5.990   5.986  0.0521 -0.1330 -0.2875
 4477SOL    HW118278   6.521   5.895   5.992 -2.4887 -0.4627  1.5476
 4477SOL    HW218279   6.415   6.000   5.969  0.4326  2.0585 -1.3383
 4478SOL     OW18280   8.861   1.948   2.552  0.0089 -0.4289 -0.5406
 4478SOL    HW118281   8.861   2.016   2.485  3.2232 -2.1607 -2.6073
 4478SOL    HW218282   8.919   1.982   2.621  0.5680 -0.5365 -0.9530
 4479SOL     OW18283   4.220   8.324   2.693  0.4595 -0.2950 -0.0045
 4479SOL    HW118284   4.216   8.253   2.758 -1.1025  0.4070  0.7256
 4479SOL    HW218285   4.255   8.282   2.614  1.1818 -1.4698  0.9077
 4480SOL     OW18286   1.391   8.452   5.441 -0.6033  1.0821 -0.0478
 4480SOL    HW118287   1.480   8.472   5.412 -1.1437  2.4960 -0.8006
 4480SOL    HW218288   1.364   8.529   5.491 -1.0183  0.1938  1.1594
 4481SOL     OW18289   8.964   3.045   3.886  0.1763  0.1192 -0.1393
 4481SOL    HW118290   8.915   3.086   3.957 -1.6401 -0.9194 -0.7071
 4481SOL    HW218291   8.916   3.071   3.807 -0.7748 -2.5653 -0.5595
 4482SOL     OW18292   6.861   1.167   7.551 -0.6321  0.0614 -0.6800
 4482SOL    HW118293   6.944   1.204   7.523 -0.5520  0.7313  0.3747
 4482SOL    HW218294   6.808   1.243   7.575 -0.7836 -0.4371  0.6572
 4483SOL     OW18295   5.534   8.104   8.601  0.0978 -0.2877  0.1264
 4483SOL    HW118296   5.560   8.170   8.537  0.9269  0.1973  0.9443
 4483SOL    HW218297   5.445   8.129   8.626 -0.4087 -0.7296 -1.1210
 4484SOL     OW18298   0.615   2.616   8.918 -0.0373 -0.0488  0.3144
 4484SOL    HW118299   0.655   2.555   8.856  1.2614  1.0538  0.0164
 4484SOL    HW218300   0.688   2.648   8.971 -0.7438  0.9370  0.7278
 4485SOL     OW18301   0.356   5.913   4.854 -0.4008  0.2059  0.1532
 4485SOL    HW118302   0.338   5.929   4.947  0.4884  1.7417  0.1041
 4485SOL    HW218303   0.437   5.961   4.837  0.3497 -1.3991 -1.0519
 4486SOL     OW18304   9.716   3.550   0.713  0.0862  0.0454  0.3646
 4486SOL    HW118305   9.680   3.471   0.673  0.6436 -0.9408  1.7363
 4486SOL    HW218306   9.705   3.618   0.647 -2.6533 -0.5989  0.0295
 4487SOL     OW18307   3.798   4.574   1.265  0.0457  0.2458 -0.5067
 4487SOL    HW118308   3.735   4.551   1.196  0.1468 -0.6994 -0.3039
 4487SOL    HW218309   3.845   4.650   1.230 -0.2921  0.1300 -1.2365
 4488SOL     OW18310   9.243   8.825   5.381 -0.5271  0.0976  0.2668
 4488SOL    HW118311   9.300   8.876   5.323 -0.9075  0.3621  0.1144
 4488SOL    HW218312   9.253   8.735   5.352  2.6274 -0.4539  2.5755
 4489SOL     OW18313   3.208   2.719   1.205  0.4514  0.3043 -0.3279
 4489SOL    HW118314   3.206   2.809   1.172  1.3987  0.1400 -0.8521
 4489SOL    HW218315   3.126   2.680   1.174  0.2222  0.8614 -0.4352
 4490SOL     OW18316   7.228   4.130   7.225  0.3187 -0.2734 -0.4791
 4490SOL    HW118317   7.138   4.109   7.199  0.7701 -1.7256 -0.9264
 4490SOL    HW218318   7.281   4.112   7.147  1.3219 -1.9911  0.5292
 4491SOL     OW18319   2.272   3.067   2.627 -0.3539  0.3851  0.0021
 4491SOL    HW118320   2.362   3.066   2.597  0.0817  0.9921  1.2339
 4491SOL    HW218321   2.271   3.009   2.704 -1.0989  0.0627 -0.2362
 4492SOL     OW18322   5.519   7.708   8.892  0.0501 -0.1642 -0.5761
 4492SOL    HW118323   5.574   7.679   8.965 -1.0398 -0.9304 -0.0197
 4492SOL    HW218324   5.566   7.782   8.854  1.8675 -1.2935 -0.6543
 4493SOL     OW18325   0.557   7.012   3.532 -0.0810 -0.5136  0.1821
 4493SOL    HW118326   0.540   6.923   3.501 -0.6561  0.1294 -1.4994
 4493SOL    HW218327   0.646   7.031   3.501 -0.0850 -0.3924  0.2462
 4494SOL     OW18328   5.884   1.443   9.117 -0.6142  0.4134 -0.8284
 4494SOL    HW118329   5.940   1.431   9.040  0.4692 -1.5163  0.1934
 4494SOL    HW218330   5.946   1.452   9.190 -1.6054 -0.5841  0.1724
 4495SOL     OW18331   4.963   9.545   5.738 -0.3660 -0.2710  0.0660
 4495SOL    HW118332   4.870   9.564   5.727 -0.3971 -0.0486  0.6853
 4495SOL    HW218333   5.005   9.588   5.663 -0.7210 -0.0491 -0.0091
 4496SOL     OW18334   9.531   2.338   3.156  0.5581 -0.7268 -0.9882
 4496SOL    HW118335   9.474   2.409   3.128  0.5851 -1.1299 -2.1289
 4496SOL    HW218336   9.549   2.288   3.076  0.8858 -1.7693 -0.2941
 4497SOL     OW18337   9.085   7.474   4.697 -0.3801  0.0704 -0.2817
 4497SOL    HW118338   9.115   7.498   4.784  1.7227 -0.5292 -0.7893
 4497SOL    HW218339   9.111   7.383   4.687 -0.7262  0.0881 -1.4774
 4498SOL     OW18340   3.426   4.299   6.093 -0.5145  0.1054  0.5045
 4498SOL    HW118341   3.386   4.364   6.151 -0.7434 -1.1545  1.8140
 4498SOL    HW218342   3.408   4.332   6.005 -1.9645  1.0395  1.0983
 4499SOL     OW18343   4.280   5.986   7.980 -0.2132  0.2772 -0.1000
 4499SOL    HW118344   4.287   5.975   7.885 -1.0086 -0.8680 -0.0555
 4499SOL    HW218345   4.289   6.080   7.994  0.7849  0.3706 -1.2200
 4500SOL     OW18346   7.932   6.760   4.409  0.0002 -0.2183 -0.6060
 4500SOL    HW118347   7.960   6.678   4.367 -2.4592 -0.6271 -1.6505
 4500SOL    HW218348   7.948   6.827   4.343 -0.5268 -0.3100 -0.8359
 4501SOL     OW18349   6.913   6.818   3.838  0.2918 -0.0869  0.7845
 4501SOL    HW118350   6.907   6.880   3.910 -0.2704  1.4289 -0.5183
 4501SOL    HW218351   6.823   6.809   3.806  0.8100  1.0753 -1.1677
 4502SOL     OW18352   8.474   7.000   7.918  0.2314 -0.3742 -0.0426
 4502SOL    HW118353   8.508   6.970   7.834 -0.9596  0.9855 -1.0668
 4502SOL    HW218354   8.537   7.066   7.947 -0.7090  1.1259 -1.2493
 4503SOL     OW18355   5.048   0.561   4.719 -0.4037  0.2534 -0.6473
 4503SOL    HW118356   5.077   0.648   4.747 -3.3726  1.7371 -1.8049
 4503SOL    HW218357   5.085   0.550   4.631 -1.6808  1.3170 -1.3542
 4504SOL     OW18358   6.624   7.830   0.770  0.1112 -0.1129  0.2697
 4504SOL    HW118359   6.533   7.826   0.739  0.3487 -1.1405 -0.3670
 4504SOL    HW218360   6.658   7.911   0.733  0.1292 -0.8852 -1.5127
 4505SOL     OW18361   3.778   3.640   8.545 -0.1894  0.4671 -0.0241
 4505SOL    HW118362   3.785   3.562   8.490  0.2722  0.6504 -0.2255
 4505SOL    HW218363   3.686   3.642   8.572 -0.2057 -0.1410 -0.0267
 4506SOL     OW18364   8.107   8.664   7.775  0.0140  0.2357  0.0067
 4506SOL    HW118365   8.186   8.644   7.726 -0.1204 -0.7775  0.1731
 4506SOL    HW218366   8.131   8.650   7.866 -0.0297  1.0899  0.1558
 4507SOL     OW18367   0.075   1.542   3.873  0.0206 -0.1597  0.1291
 4507SOL    HW118368   0.165   1.522   3.847  0.4337 -0.5199  1.7102
 4507SOL    HW218369   0.049   1.613   3.814  0.7295 -1.1575 -1.4584
 4508SOL     OW18370   3.206   0.973   7.272 -0.1738 -0.1361  0.2249
 4508SOL    HW118371   3.288   1.014   7.243  0.6618 -1.6494  0.3434
 4508SOL    HW218372   3.183   1.021   7.352  1.0599 -0.2263  0.6600
 4509SOL     OW18373   3.143   1.568   1.744  0.2237  0.3523  0.5544
 4509SOL    HW118374   3.210   1.509   1.710 -2.5174 -2.3569 -0.6359
 4509SOL    HW218375   3.117   1.621   1.669 -1.8084 -1.6243 -0.2666
 4510SOL     OW18376   3.060   3.869   4.075  0.0748 -0.4015 -0.4684
 4510SOL    HW118377   3.046   3.961   4.051 -0.2741 -0.4371 -0.4083
 4510SOL    HW218378   2.981   3.844   4.123  0.7110 -0.3714  0.6135
 4511SOL     OW18379   8.877   6.068   1.714 -0.1443 -0.3539 -0.2240
 4511SOL    HW118380   8.939   6.020   1.768  1.2749  0.9345 -0.6421
 4511SOL    HW218381   8.831   6.001   1.663  1.1041 -1.3136 -0.1140
 4512SOL     OW18382   0.777   9.094   9.410  0.1408  0.1467  0.0882
 4512SOL    HW118383   0.724   9.169   9.382 -1.4484 -0.7965  0.4576
 4512SOL    HW218384   0.827   9.070   9.332 -0.8617  0.3275 -0.6277
 4513SOL     OW18385   4.311   8.241   7.479 -0.1238 -0.1757  0.2011
 4513SOL    HW118386   4.262   8.297   7.538  0.3206  1.1892 -0.6801
 4513SOL    HW218387   4.366   8.301   7.428  0.9659 -1.4738 -0.2338
 4514SOL     OW18388   5.232   1.062   5.392  0.0848  0.0588  0.1428
 4514SOL    HW118389   5.167   1.125   5.421 -0.0802  0.1510 -0.4078
 4514SOL    HW218390   5.215   0.983   5.442  0.5225  0.5591  1.1068
 4515SOL     OW18391   4.530   3.698   7.293  0.1416 -0.5473 -0.5531
 4515SOL    HW118392   4.604   3.649   7.257 -0.2095 -0.9328 -0.7572
 4515SOL    HW218393   4.472   3.713   7.219  1.0452  1.7217 -0.8821
 4516SOL     OW18394   3.717   7.904   4.220  0.5171 -0.2813 -0.1445
 4516SOL    HW118395   3.770   7.925   4.297  1.5309  0.8638 -1.0989
 4516SOL    HW218396   3.755   7.824   4.186  0.9042 -0.0915 -0.1699
 4517SOL     OW18397   8.592   7.919   5.406 -0.1591 -0.2691 -0.3757
 4517SOL    HW118398   8.606   7.831   5.371 -0.2486 -0.8093  0.8816
 4517SOL    HW218399   8.497   7.926   5.416 -0.1483 -0.0489 -0.4169
 4518SOL     OW18400   8.371   1.296   6.753 -0.2126  0.8112  0.4027
 4518SOL    HW118401   8.335   1.366   6.807 -0.9909  1.6480 -1.1426
 4518SOL    HW218402   8.352   1.322   6.663 -0.8373 -1.5438 -0.2280
 4519SOL     OW18403   9.676   8.669   4.937  0.1688  0.6610 -0.1242
 4519SOL    HW118404   9.750   8.657   4.996 -1.9278  0.3303  2.6538
 4519SOL    HW218405   9.647   8.580   4.916 -0.4457  0.7811  0.1913
 4520SOL     OW18406   6.980   2.817   7.599 -0.4106  0.9538  0.3085
 4520SOL    HW118407   6.888   2.830   7.576 -0.5541 -0.4464 -0.0293
 4520SOL    HW218408   7.009   2.746   7.541 -0.1415 -1.1450  2.7993
 4521SOL     OW18409   8.898   0.703   7.158  0.0794 -0.0180  0.1171
 4521SOL    HW118410   8.848   0.622   7.165  0.3057 -0.4810 -2.4783
 4521SOL    HW218411   8.985   0.675   7.128  0.2662  1.1247 -0.4684
 4522SOL     OW18412   5.734   9.448   9.216  0.0680  0.9873  0.5541
 4522SOL    HW118413   5.706   9.455   9.307  0.9793 -0.1664  0.9334
 4522SOL    HW218414   5.796   9.520   9.204 -1.2243  2.1300  0.3558
 4523SOL     OW18415   1.728   4.984   5.708 -0.0824 -0.3194 -0.3351
 4523SOL    HW118416   1.805   4.929   5.697 -0.4293 -1.0427  0.6600
 4523SOL    HW218417   1.702   4.970   5.799  1.3073  3.4658  0.8393
 4524SOL     OW18418   3.087   8.085   8.174  0.2725 -0.3235 -0.0431
 4524SOL    HW118419   3.041   8.168   8.165  1.9917  0.5461 -1.4530
 4524SOL    HW218420   3.075   8.042   8.090 -0.5848 -1.5336  0.6689
 4525SOL     OW18421   5.848   3.618   3.463 -0.6784 -0.1702 -0.3450
 4525SOL    HW118422   5.857   3.682   3.533 -0.8587  0.1958 -0.6499
 4525SOL    HW218423   5.835   3.534   3.508  3.2019 -0.6696  0.1524
 4526SOL     OW18424   7.455   3.461   3.546  0.0318 -0.3472 -0.2927
 4526SOL    HW118425   7.438   3.436   3.637  2.0503  1.7957  0.7948
 4526SOL    HW218426   7.382   3.519   3.523  1.7384  2.9246  1.7520
 4527SOL     OW18427   5.396   0.944   0.866 -0.8344  0.1070 -0.0681
 4527SOL    HW118428   5.321   0.917   0.812 -1.2517 -0.0135  0.5530
 4527SOL    HW218429   5.400   1.039   0.856 -1.0541  0.1109 -0.1231
 4528SOL     OW18430   8.629   1.375   1.507 -0.6046  0.2583 -0.3028
 4528SOL    HW118431   8.676   1.338   1.433  0.4801  0.0557  0.4757
 4528SOL    HW218432   8.538   1.379   1.478 -0.1697  0.3505 -1.7067
 4529SOL     OW18433   7.769   7.377   7.947 -0.5158 -0.1712  0.1953
 4529SOL    HW118434   7.847   7.353   7.898 -1.1259 -1.2553 -0.2714
 4529SOL    HW218435   7.800   7.397   8.035  0.1436 -1.8704  0.3805
 4530SOL     OW18436   4.926   3.292   5.760 -0.1773  0.2899 -0.4944
 4530SOL    HW118437   4.875   3.216   5.787 -0.0709  0.7616  1.1492
 4530SOL    HW218438   4.903   3.305   5.668 -0.2072 -1.7051 -0.8161
 4531SOL     OW18439   8.585   8.649   1.356  0.6069  0.0833  0.2511
 4531SOL    HW118440   8.503   8.666   1.311 -0.2035 -1.4159  1.0919
 4531SOL    HW218441   8.632   8.733   1.352 -1.2498  1.1941  0.3929
 4532SOL     OW18442   8.668   1.604   0.416 -0.2173 -0.1321 -0.5248
 4532SOL    HW118443   8.753   1.641   0.394 -0.0626 -0.2081 -0.0629
 4532SOL    HW218444   8.622   1.674   0.462  0.4616 -0.8213  1.2717
 4533SOL     OW18445   4.724   4.444   7.407 -0.5350 -0.5162 -0.0589
 4533SOL    HW118446   4.739   4.359   7.448  2.7049  0.1889  0.4158
 4533SOL    HW218447   4.696   4.501   7.479 -0.3721 -0.6105  0.0779
 4534SOL     OW18448   2.197   0.491   3.978 -0.0381  0.2058  0.4164
 4534SOL    HW118449   2.218   0.448   3.895  0.3128  0.9973  0.0875
 4534SOL    HW218450   2.102   0.494   3.981 -0.0489  1.0702 -0.4334
 4535SOL     OW18451   4.122   3.697   2.149 -0.1407  0.4469  0.1715
 4535SOL    HW118452   4.041   3.706   2.098  1.0069  2.0454 -1.5132
 4535SOL    HW218453   4.094   3.655   2.231 -1.8928 -3.5712 -2.1954
 4536SOL     OW18454   8.381   7.775   0.818  0.6471 -0.7292 -0.6006
 4536SOL    HW118455   8.387   7.870   0.832  0.7826 -0.8513  0.2460
 4536SOL    HW218456   8.458   7.753   0.766 -0.0017 -0.2128 -1.8322
 4537SOL     OW18457   0.162   3.352   0.023 -0.5477  0.4450  0.1506
 4537SOL    HW118458   0.081   3.402   0.035  0.2510  1.6738  0.5951
 4537SOL    HW218459   0.232   3.415   0.039  0.5102 -0.6275 -0.0933
 4538SOL     OW18460   0.448   0.520   8.818  0.0589 -0.3064 -0.4505
 4538SOL    HW118461   0.422   0.460   8.888 -0.8285 -0.7332 -1.1186
 4538SOL    HW218462   0.424   0.607   8.852 -0.5209 -0.5228 -0.2820
 4539SOL     OW18463   0.581   5.957   0.715  1.1509  0.1106  0.4105
 4539SOL    HW118464   0.562   5.917   0.630  0.9779  0.5634  0.2308
 4539SOL    HW218465   0.559   5.890   0.779 -0.3319  0.3315  0.1748
 4540SOL     OW18466   8.453   1.853   9.463  0.4829 -0.1366  0.1438
 4540SOL    HW118467   8.421   1.763   9.469 -0.4974  0.1822 -0.0331
 4540SOL    HW218468   8.417   1.885   9.380  0.1778  0.6490  0.5703
 4541SOL     OW18469   0.719   5.651   4.647 -0.1760  0.0511  0.3278
 4541SOL    HW118470   0.639   5.666   4.596 -2.2321 -3.2828  2.1435
 4541SOL    HW218471   0.710   5.708   4.724  0.4678  1.4672 -0.6195
 4542SOL     OW18472   8.129   3.612   3.402  0.1493  0.5898 -0.1206
 4542SOL    HW118473   8.055   3.670   3.420 -1.8933 -1.2770 -1.8523
 4542SOL    HW218474   8.197   3.670   3.367 -1.7728  2.0380 -1.7045
 4543SOL     OW18475   9.239   5.671   4.153 -0.0399  0.4819  0.0044
 4543SOL    HW118476   9.173   5.683   4.221 -2.0049  1.3564 -1.9326
 4543SOL    HW218477   9.193   5.622   4.084  2.5266 -2.4065  0.1389
 4544SOL     OW18478   7.368   0.458   0.428 -0.4098  0.0262  0.5328
 4544SOL    HW118479   7.426   0.385   0.452  0.2653  0.2009 -0.5359
 4544SOL    HW218480   7.327   0.483   0.511 -0.2716 -1.2271  1.0123
 4545SOL     OW18481   5.702   8.112   7.878 -0.4802 -1.1724  0.0964
 4545SOL    HW118482   5.773   8.050   7.860  0.1068 -0.1732 -1.1318
 4545SOL    HW218483   5.683   8.152   7.794 -1.2288 -0.0782  0.7620
 4546SOL     OW18484   7.947   4.285   4.523 -0.2933  0.2160 -0.4718
 4546SOL    HW118485   7.903   4.218   4.575  1.5050 -0.7138 -0.0753
 4546SOL    HW218486   7.880   4.315   4.461 -1.5177 -0.9929  0.2222
 4547SOL     OW18487   0.376   3.068   8.837 -0.2296 -0.0742 -0.1935
 4547SOL    HW118488   0.310   3.134   8.817  1.3925  1.5262 -0.6117
 4547SOL    HW218489   0.421   3.054   8.753 -0.9835 -2.2912 -0.2858
 4548SOL     OW18490   5.529   8.841   7.881  0.5473  0.1010 -0.2109
 4548SOL    HW118491   5.619   8.824   7.853  0.5284  1.4956 -1.2202
 4548SOL    HW218492   5.479   8.768   7.844  1.0985 -0.1016 -0.5810
 4549SOL     OW18493   4.256   3.144   6.573 -0.1103 -0.2506  0.3376
 4549SOL    HW118494   4.196   3.219   6.575  0.2839  0.0500  1.2278
 4549SOL    HW218495   4.290   3.138   6.662  0.8615 -0.6777 -0.0502
 4550SOL     OW18496   4.877   9.268   3.928  0.0981 -0.0709  0.5562
 4550SOL    HW118497   4.957   9.220   3.908 -0.7892 -0.6010 -2.1737
 4550SOL    HW218498   4.901   9.360   3.917  0.9529 -0.0097  2.4928
 4551SOL     OW18499   3.337   2.520   8.065  0.0006  0.0461 -0.3059
 4551SOL    HW118500   3.323   2.598   8.118  0.7154  1.1927 -1.7535
 4551SOL    HW218501   3.314   2.447   8.123 -1.5562  1.3454  0.7758
 4552SOL     OW18502   9.513   9.568   5.079  0.1284 -0.2145 -0.0390
 4552SOL    HW118503   9.494   9.496   5.019  1.9341 -1.9358  1.3191
 4552SOL    HW218504   9.479   9.539   5.163 -0.7002  1.3526  0.2197
 4553SOL     OW18505   5.452   7.818   2.381  0.1457  0.5458  0.5391
 4553SOL    HW118506   5.447   7.875   2.304 -0.7044 -1.9233 -1.3468
 4553SOL    HW218507   5.481   7.876   2.451  1.4650  2.8096 -1.7069
 4554SOL     OW18508   0.918   1.124   8.219  0.2449 -0.1820 -0.0773
 4554SOL    HW118509   0.976   1.195   8.247  2.0361 -1.2638 -0.8091
 4554SOL    HW218510   0.902   1.073   8.299 -1.1520  1.0602  0.4755
 4555SOL     OW18511   4.052   5.027   5.977 -0.0835  0.0141  0.3229
 4555SOL    HW118512   4.002   4.994   6.052  1.8818 -0.7851  1.3465
 4555SOL    HW218513   4.002   5.103   5.947 -1.0041  0.3100  2.3884
 4556SOL     OW18514   0.617   5.912   2.988  0.3274  0.3689  0.3037
 4556SOL    HW118515   0.656   5.964   3.058 -1.5711  2.0858  0.1738
 4556SOL    HW218516   0.629   5.821   3.016  3.3946  0.7884  0.7263
 4557SOL     OW18517   0.323   9.662   4.220 -0.6639 -0.0593  0.4700
 4557SOL    HW118518   0.353   9.728   4.158  0.4409 -0.5157  0.4959
 4557SOL    HW218519   0.228   9.674   4.224 -1.3432 -2.0928 -3.8131
 4558SOL     OW18520   3.345   0.845   3.323 -0.0844  0.2568  0.2896
 4558SOL    HW118521   3.431   0.885   3.330  0.2034 -0.2543 -0.1491
 4558SOL    HW218522   3.332   0.834   3.228 -1.3157  1.7513  0.2502
 4559SOL     OW18523   6.348   7.256   7.541 -0.0757  0.2472 -0.1184
 4559SOL    HW118524   6.319   7.229   7.453 -1.2334 -1.5405  0.7665
 4559SOL    HW218525   6.411   7.326   7.524 -0.6913  0.3534 -2.3579
 4560SOL     OW18526   8.884   9.412   1.914 -0.1572 -0.1342 -0.2388
 4560SOL    HW118527   8.812   9.467   1.884  0.6336 -0.0446 -2.1376
 4560SOL    HW218528   8.841   9.344   1.967 -1.4820  0.6204 -0.2894
 4561SOL     OW18529   6.237   7.142   8.572 -0.0310 -0.4909  0.5342
 4561SOL    HW118530   6.205   7.051   8.571 -0.7033 -0.2604 -0.2070
 4561SOL    HW218531   6.157   7.195   8.569  0.3756  0.1238  0.4706
 4562SOL     OW18532   6.760   3.703   2.257  0.4867  0.1039 -0.2473
 4562SOL    HW118533   6.824   3.669   2.319 -0.0855 -0.5303  0.0085
 4562SOL    HW218534   6.769   3.799   2.262  2.1315  0.0199 -0.9922
 4563SOL     OW18535   7.758   1.513   6.496 -0.2048  0.2024  0.1774
 4563SOL    HW118536   7.669   1.523   6.463 -0.1853 -0.0273  0.0549
 4563SOL    HW218537   7.762   1.422   6.527 -0.1716  0.3604  0.6517
 4564SOL     OW18538   4.326   0.934   4.322 -0.1997  0.1341 -0.3600
 4564SOL    HW118539   4.323   0.884   4.240  1.7248 -1.3177  0.3819
 4564SOL    HW218540   4.366   1.018   4.297  0.9021 -0.5117 -0.8361
 4565SOL     OW18541   3.042   7.434   9.513 -0.3965 -0.5443  0.0910
 4565SOL    HW118542   2.999   7.365   9.564 -1.1734 -0.9398 -1.0752
 4565SOL    HW218543   2.975   7.503   9.507  0.5547  0.5971  1.7212
 4566SOL     OW18544   1.206   8.999   2.955  0.6957 -0.1024 -0.8380
 4566SOL    HW118545   1.164   9.082   2.936  0.5660  0.5366  1.7767
 4566SOL    HW218546   1.300   9.016   2.946  0.6876  0.4791  0.0326
 4567SOL     OW18547   9.718   6.871   7.766 -0.7104 -0.1586  0.1841
 4567SOL    HW118548   9.791   6.810   7.759  0.7081  1.2905  1.6418
 4567SOL    HW218549   9.642   6.821   7.735  0.6853 -2.0579 -0.3349
 4568SOL     OW18550   0.906   5.734   1.299 -0.4767  0.0863  0.5889
 4568SOL    HW118551   0.958   5.714   1.222 -1.8569 -1.1685 -0.0570
 4568SOL    HW218552   0.819   5.699   1.280 -1.4954  1.8240  1.7640
 4569SOL     OW18553   5.103   1.702   4.453  0.8756  0.7971  0.4668
 4569SOL    HW118554   5.158   1.625   4.437 -0.8511  0.0991 -3.0678
 4569SOL    HW218555   5.132   1.765   4.388 -1.0111  1.2082 -0.0283
 4570SOL     OW18556   6.839   7.966   6.685  0.1377  0.0034  0.5415
 4570SOL    HW118557   6.803   7.978   6.598 -1.4606  0.9836  1.2911
 4570SOL    HW218558   6.929   7.937   6.670 -0.5136 -1.1681 -1.4064
 4571SOL     OW18559   8.451   6.997   9.711 -0.2619 -0.4578  0.2526
 4571SOL    HW118560   8.419   6.907   9.708 -0.6508 -0.3091 -0.4849
 4571SOL    HW218561   8.374   7.050   9.692  0.0400  0.0146  0.3239
 4572SOL     OW18562   7.215   7.890   6.214 -0.6035 -0.0562 -0.8447
 4572SOL    HW118563   7.233   7.865   6.123 -0.0109  1.6293 -1.2332
 4572SOL    HW218564   7.275   7.963   6.231  0.6169 -1.5097  1.5361
 4573SOL     OW18565   0.665   8.854   8.548  0.2240 -0.2895  0.0617
 4573SOL    HW118566   0.732   8.872   8.483 -0.2018  1.1259 -0.0293
 4573SOL    HW218567   0.597   8.807   8.500  0.7663 -0.9837 -0.0392
 4574SOL     OW18568   1.284   1.215   3.690  0.2886 -0.3174 -0.4127
 4574SOL    HW118569   1.311   1.274   3.620 -0.5840 -0.1186 -0.6039
 4574SOL    HW218570   1.358   1.213   3.750  1.5513 -1.4447 -1.9254
 4575SOL     OW18571   1.223   5.983   7.495 -0.6508  0.1053 -0.1845
 4575SOL    HW118572   1.140   5.950   7.460 -0.7264  0.7361 -0.6001
 4575SOL    HW218573   1.239   5.928   7.572 -2.2881  1.0079  0.8698
 4576SOL     OW18574   0.320   0.641   4.314  0.5982  0.1179 -0.4163
 4576SOL    HW118575   0.340   0.645   4.221 -2.3133 -0.0318 -1.1356
 4576SOL    HW218576   0.230   0.608   4.319  0.9067 -0.6232  2.4972
 4577SOL     OW18577   6.623   7.593   8.765  0.1883 -0.4263 -0.6116
 4577SOL    HW118578   6.605   7.682   8.735 -1.5040 -0.6417 -0.3757
 4577SOL    HW218579   6.536   7.552   8.771  0.5794 -1.0572  2.4318
 4578SOL     OW18580   2.507   7.533   6.454  0.5560  0.0317  0.0829
 4578SOL    HW118581   2.422   7.492   6.436  0.9813 -1.5039  1.3769
 4578SOL    HW218582   2.513   7.604   6.390 -2.0617  0.7409  0.4857
 4579SOL     OW18583   1.806   9.031   2.281  0.2298  0.5080  0.3176
 4579SOL    HW118584   1.773   8.963   2.340 -0.3981 -0.8005 -1.4626
 4579SOL    HW218585   1.899   9.012   2.271 -0.1640 -0.8187 -1.0524
 4580SOL     OW18586   4.039   5.209   9.435  0.0543 -0.7735 -0.1789
 4580SOL    HW118587   4.132   5.209   9.455  0.4713  3.1516 -1.1322
 4580SOL    HW218588   3.997   5.235   9.518  0.3521  1.6000 -0.6914
 4581SOL     OW18589   2.100   8.372   3.796 -0.3975  0.7625  0.0802
 4581SOL    HW118590   2.007   8.361   3.773 -0.2894  0.6593 -0.3175
 4581SOL    HW218591   2.137   8.284   3.785 -0.0747  0.9755 -0.5943
 4582SOL     OW18592   1.713   5.711   5.501 -0.2043  0.6936 -0.1598
 4582SOL    HW118593   1.671   5.641   5.552  0.3138 -1.8094 -2.9217
 4582SOL    HW218594   1.640   5.755   5.456 -0.2788 -1.6016 -2.4911
 4583SOL     OW18595   4.443   7.607   1.990 -0.3159 -0.1054  0.6113
 4583SOL    HW118596   4.352   7.594   1.965 -0.6877  1.0021  1.3092
 4583SOL    HW218597   4.447   7.581   2.082 -0.7053  2.7254  1.5502
 4584SOL     OW18598   2.272   1.512   5.934  0.0684  0.3964 -0.3723
 4584SOL    HW118599   2.328   1.436   5.946  1.2695  1.2266 -0.5299
 4584SOL    HW218600   2.242   1.507   5.843  0.2509  0.1876 -0.4195
 4585SOL     OW18601   0.627   0.861   6.237 -0.1952  0.4408 -0.4287
 4585SOL    HW118602   0.563   0.932   6.232 -0.1929  0.4321 -0.5898
 4585SOL    HW218603   0.581   0.789   6.278 -0.5572  0.1347 -1.3571
 4586SOL     OW18604   4.135   0.039   7.045 -0.4615 -0.1214 -0.5680
 4586SOL    HW118605   4.199  -0.029   7.022 -0.6657 -0.3473 -0.4736
 4586SOL    HW218606   4.088   0.057   6.964  1.1160  1.5652 -1.1886
 4587SOL     OW18607   2.395   2.126   0.040 -0.0837 -0.1220 -0.1724
 4587SOL    HW118608   2.426   2.210   0.074  3.6077 -1.0099 -0.9644
 4587SOL    HW218609   2.369   2.078   0.119 -1.8237  1.5124  0.3293
 4588SOL     OW18610   0.200   7.324   0.323 -0.6918 -0.1351 -0.1368
 4588SOL    HW118611   0.127   7.334   0.262 -1.1282 -0.6905  0.2838
 4588SOL    HW218612   0.247   7.407   0.317 -2.0700  0.7466  0.4992
 4589SOL     OW18613   1.086   0.692   2.281 -0.3672 -0.3452 -0.0720
 4589SOL    HW118614   1.117   0.783   2.285 -2.0309  0.2425  0.3447
 4589SOL    HW218615   1.028   0.690   2.205 -0.7480 -0.9230  0.2261
 4590SOL     OW18616   2.074   5.067   4.779  0.4185 -0.1895  0.0559
 4590SOL    HW118617   2.099   5.144   4.831  0.6435  0.4701 -0.9985
 4590SOL    HW218618   2.029   5.010   4.841  0.6987  0.5667  0.9796
 4591SOL     OW18619   7.102   9.002   2.438  0.3923 -0.0493  0.1291
 4591SOL    HW118620   7.111   9.095   2.457 -0.7091  0.1910 -0.4436
 4591SOL    HW218621   7.189   8.973   2.412  0.4208  1.1672 -1.1895
 4592SOL     OW18622   3.826   7.718   0.093  0.4165  0.0130 -0.0648
 4592SOL    HW118623   3.907   7.755   0.058  0.7336  1.6344  2.1575
 4592SOL    HW218624   3.776   7.794   0.124 -0.9691 -1.1202  0.5799
 4593SOL     OW18625   3.190   2.663   6.828 -0.2333 -0.5499  0.2552
 4593SOL    HW118626   3.197   2.626   6.916 -0.8006  2.7075  1.8159
 4593SOL    HW218627   3.120   2.613   6.786 -0.8546 -1.3016  2.1221
 4594SOL     OW18628   5.255   6.124   6.370 -0.0333  0.4804  0.6987
 4594SOL    HW118629   5.328   6.125   6.308 -1.6177 -1.7799 -1.3900
 4594SOL    HW218630   5.191   6.185   6.333  0.1254  1.2922  1.7073
 4595SOL     OW18631   5.892   0.367   7.652  0.1570  0.1186  0.0649
 4595SOL    HW118632   5.964   0.374   7.589 -0.4489  1.6634 -0.5101
 4595SOL    HW218633   5.890   0.452   7.695 -1.5918  0.2676 -0.2552
 4596SOL     OW18634   9.071   5.715   3.623  0.3809  0.3464 -0.0805
 4596SOL    HW118635   9.055   5.794   3.572  0.6305  1.5906  1.7030
 4596SOL    HW218636   9.149   5.676   3.582  0.1033  0.8666 -1.1410
 4597SOL     OW18637   2.141   2.344   1.812 -0.0723  0.4075 -0.4326
 4597SOL    HW118638   2.149   2.289   1.734 -3.5122  0.7607 -1.1679
 4597SOL    HW218639   2.197   2.301   1.877  1.2484 -1.0850 -2.4171
 4598SOL     OW18640   0.883   4.496   7.113 -0.0223 -0.0825  0.1408
 4598SOL    HW118641   0.895   4.558   7.041 -1.7715  0.8279  0.5731
 4598SOL    HW218642   0.832   4.425   7.075  0.0180 -0.1435  0.2014
 4599SOL     OW18643   7.130   8.335   2.835  0.7269  0.4279 -0.6007
 4599SOL    HW118644   7.081   8.292   2.765 -0.9603 -0.2766  0.9077
 4599SOL    HW218645   7.140   8.266   2.901  2.3633  1.0338 -0.1896
 4600SOL     OW18646   4.208   9.707   0.884 -0.6050  0.3140  0.1083
 4600SOL    HW118647   4.131   9.744   0.929 -0.2298  0.5798  0.5457
 4600SOL    HW218648   4.179   9.695   0.794 -0.3560  2.9232 -0.3900
 4601SOL     OW18649   3.452   5.399   0.401  0.4649 -0.0652 -0.8673
 4601SOL    HW118650   3.405   5.378   0.481  0.7946  0.0820 -0.6339
 4601SOL    HW218651   3.384   5.400   0.333  0.0545  0.5838 -0.4564
 4602SOL     OW18652   9.370   5.909   5.552 -0.1988 -0.6532  0.5145
 4602SOL    HW118653   9.459   5.880   5.530 -0.1575 -1.3878  1.5966
 4602SOL    HW218654   9.316   5.831   5.541 -0.9277  0.0478 -1.2032
 4603SOL     OW18655   2.421   7.203   8.804 -0.2441 -0.0882  1.0294
 4603SOL    HW118656   2.501   7.256   8.803 -0.1732 -0.1846 -0.4757
 4603SOL    HW218657   2.447   7.122   8.848 -0.0859  0.6785  2.4148
 4604SOL     OW18658   2.433   5.945   8.096 -0.1199 -0.4419 -0.2859
 4604SOL    HW118659   2.352   5.979   8.058 -0.4768  0.5386  1.3127
 4604SOL    HW218660   2.423   5.849   8.090 -0.7524 -0.3259 -1.3840
 4605SOL     OW18661   4.098   0.691   3.882  0.0658 -0.2322 -0.1398
 4605SOL    HW118662   4.012   0.675   3.843  0.5906  2.1292 -2.5168
 4605SOL    HW218663   4.149   0.612   3.861 -0.5426 -0.2280 -1.7525
 4606SOL     OW18664   0.070   0.830   1.251 -0.4553  0.2399  0.3080
 4606SOL    HW118665   0.026   0.744   1.252 -1.0576  0.5456  1.4678
 4606SOL    HW218666   0.026   0.880   1.319  1.2711  0.7894  1.0679
 4607SOL     OW18667   8.776   4.317   3.156  0.2471  0.4795 -0.6118
 4607SOL    HW118668   8.806   4.316   3.066 -0.1711 -1.6317 -0.7889
 4607SOL    HW218669   8.752   4.226   3.174 -0.8275  1.0761  1.2402
 4608SOL     OW18670   1.424   4.579   5.735  0.1965  0.5696 -0.4677
 4608SOL    HW118671   1.453   4.664   5.700  1.8647 -0.0589 -0.7339
 4608SOL    HW218672   1.506   4.531   5.749 -0.6872 -0.7439  0.3321
 4609SOL     OW18673   8.830   4.878   6.798  0.0270  0.5002 -0.2757
 4609SOL    HW118674   8.925   4.886   6.790  0.0097  1.0819  0.0216
 4609SOL    HW218675   8.796   4.964   6.772 -0.4184  0.2782 -0.4299
 4610SOL     OW18676   4.697   3.298   6.846 -0.3236  0.1906 -0.0358
 4610SOL    HW118677   4.687   3.374   6.789 -2.2643 -1.2057 -1.7399
 4610SOL    HW218678   4.768   3.321   6.905  0.4339  2.5522 -1.7168
 4611SOL     OW18679   6.748   5.012   4.571  0.3576 -0.3506  0.1487
 4611SOL    HW118680   6.664   4.967   4.581 -0.5953  0.8331 -1.9338
 4611SOL    HW218681   6.793   4.964   4.502  0.0597  0.7813 -0.8740
 4612SOL     OW18682   6.744   9.058   1.382  0.0671  0.1484  0.6322
 4612SOL    HW118683   6.794   9.121   1.435  0.5956 -0.5112  0.9322
 4612SOL    HW218684   6.809   9.020   1.324 -0.3068  0.0688  0.2636
 4613SOL     OW18685   0.435   0.970   3.378  0.2189 -0.0766 -0.6086
 4613SOL    HW118686   0.490   0.950   3.302 -0.0692 -0.0216 -0.8335
 4613SOL    HW218687   0.452   0.898   3.439  1.4119  0.5431 -0.1973
 4614SOL     OW18688   6.057   7.191   2.117 -0.4971 -0.0628 -0.0883
 4614SOL    HW118689   5.975   7.239   2.103  0.0734  0.9190 -0.1358
 4614SOL    HW218690   6.088   7.222   2.202  0.9092  1.2017 -1.0242
 4615SOL     OW18691   2.935   1.640   6.869  0.4607 -0.1641  0.1449
 4615SOL    HW118692   2.949   1.581   6.795  0.3462  0.4723 -0.4042
 4615SOL    HW218693   2.856   1.607   6.912  0.6738 -0.6913  0.1380
 4616SOL     OW18694   3.452   4.286   5.083  0.1782  0.0153 -0.1111
 4616SOL    HW118695   3.491   4.270   4.997  0.5501 -0.3183  0.1163
 4616SOL    HW218696   3.400   4.365   5.071 -0.8276 -0.7463 -0.9842
 4617SOL     OW18697   2.489   8.267   7.590 -0.1306  0.3966 -0.0158
 4617SOL    HW118698   2.508   8.272   7.497  3.3932 -1.1959  0.4491
 4617SOL    HW218699   2.406   8.220   7.595  0.1705 -0.5392 -2.3490
 4618SOL     OW18700   0.648   7.377   3.783 -0.1600  0.1595 -0.1743
 4618SOL    HW118701   0.646   7.373   3.687  0.7920  0.9802 -0.2452
 4618SOL    HW218702   0.637   7.470   3.803  1.1755  0.2047  0.4471
 4619SOL     OW18703   6.417   3.773   2.238  0.2150 -0.2744  0.5974
 4619SOL    HW118704   6.469   3.731   2.306 -1.8836 -1.4194  1.6291
 4619SOL    HW218705   6.399   3.703   2.175  0.4924  0.2738 -0.1026
 4620SOL     OW18706   6.383   0.285   0.916  0.4067  0.6889  0.3515
 4620SOL    HW118707   6.361   0.323   1.001  0.1682  0.2386  0.4934
 4620SOL    HW218708   6.299   0.256   0.881  0.0479  3.4153 -1.3190
 4621SOL     OW18709   8.602   4.661   1.079  0.3418 -0.2592  0.1429
 4621SOL    HW118710   8.595   4.599   1.006  0.2112 -0.2071  0.1104
 4621SOL    HW218711   8.620   4.606   1.155 -1.7455 -0.5650  0.4831
 4622SOL     OW18712   8.315   2.394   9.510  0.2596 -0.5413  0.1928
 4622SOL    HW118713   8.267   2.431   9.436 -2.1427 -1.3836  1.2285
 4622SOL    HW218714   8.313   2.300   9.495  1.5905 -0.5959  0.2895
 4623SOL     OW18715   0.801   5.431   2.989  0.2148 -0.3024 -0.1574
 4623SOL    HW118716   0.743   5.505   3.008  0.7770  0.3953 -1.0966
 4623SOL    HW218717   0.889   5.465   3.003  0.5194 -0.5528 -1.3420
 4624SOL     OW18718   7.647   7.876   7.184 -0.1041 -0.2291  0.6750
 4624SOL    HW118719   7.705   7.928   7.239  1.3239  0.1968 -1.1371
 4624SOL    HW218720   7.560   7.914   7.197  0.7539  2.1534  0.0409
 4625SOL     OW18721   5.835   5.527   8.843  0.4102 -0.2986 -0.1450
 4625SOL    HW118722   5.911   5.499   8.793  0.1851 -0.5884 -0.3245
 4625SOL    HW218723   5.797   5.447   8.877 -0.1135 -0.2030 -0.4875
 4626SOL     OW18724   2.659   1.872   9.386  0.4345 -0.0008  0.1901
 4626SOL    HW118725   2.567   1.859   9.407  0.8064 -3.0564  0.3846
 4626SOL    HW218726   2.704   1.870   9.471  0.8624 -0.8857 -0.0405
 4627SOL     OW18727   8.736   0.456   0.435  0.3547  0.0115 -0.2476
 4627SOL    HW118728   8.687   0.510   0.372  0.0481 -0.5992 -0.5414
 4627SOL    HW218729   8.721   0.499   0.519  0.9079  0.9372 -0.6047
 4628SOL     OW18730   8.946   5.170   7.579  0.0137  0.8733  0.5406
 4628SOL    HW118731   8.982   5.096   7.529  1.0555  2.1209 -0.6325
 4628SOL    HW218732   8.881   5.130   7.637  1.3138 -1.1041  0.7309
 4629SOL     OW18733   3.006   9.159   7.512 -0.0723  0.2447 -0.2330
 4629SOL    HW118734   3.079   9.152   7.450  1.5481  0.5785  1.5040
 4629SOL    HW218735   2.964   9.074   7.510 -0.0872  0.2723 -1.7963
 4630SOL     OW18736   1.781   2.501   1.764  0.4822  0.2544  0.4168
 4630SOL    HW118737   1.793   2.408   1.743  0.9447 -0.0971  2.1037
 4630SOL    HW218738   1.686   2.512   1.765  0.4299 -0.0713 -0.2991
 4631SOL     OW18739   0.453   6.933   6.971 -0.0559 -0.3065  0.1828
 4631SOL    HW118740   0.427   6.863   7.029  0.5955 -0.4884  0.2628
 4631SOL    HW218741   0.466   6.891   6.886 -3.2528  0.2947 -0.7655
 4632SOL     OW18742   2.255   9.131   1.834  0.4017 -0.4758  0.2810
 4632SOL    HW118743   2.238   9.223   1.852 -0.5118 -0.9360  2.0368
 4632SOL    HW218744   2.307   9.131   1.754 -0.8295  1.4785 -0.5946
 4633SOL     OW18745   1.978   1.397   4.245 -0.2768  0.2486  0.4349
 4633SOL    HW118746   2.027   1.442   4.176 -2.2983  2.0025  0.0645
 4633SOL    HW218747   1.935   1.324   4.199 -0.0341  0.2067  0.2664
 4634SOL     OW18748   9.151   5.925   5.068  0.1632  0.4616 -0.6564
 4634SOL    HW118749   9.143   5.973   4.985  2.1874 -0.8786 -1.7140
 4634SOL    HW218750   9.244   5.904   5.074 -0.1595 -0.6284  1.3203
 4635SOL     OW18751   4.989   3.078   2.810  0.0169  0.0512 -0.1378
 4635SOL    HW118752   4.947   3.013   2.865  0.3090 -0.3191 -0.3482
 4635SOL    HW218753   4.920   3.107   2.750 -0.0510 -0.2352 -0.1980
 4636SOL     OW18754   4.909   2.730   8.773  0.1369 -0.2896  0.0659
 4636SOL    HW118755   4.820   2.701   8.795  0.5912 -1.5212  0.3832
 4636SOL    HW218756   4.939   2.775   8.852 -0.9727  2.1721 -0.8106
 4637SOL     OW18757   6.919   4.321   7.341 -0.5365  0.0287 -0.2102
 4637SOL    HW118758   6.863   4.390   7.304 -0.1437 -0.0158 -0.8941
 4637SOL    HW218759   7.006   4.360   7.343 -0.5410  0.0356  0.7005
 4638SOL     OW18760   3.803   5.246   4.735  0.2714  0.0051  0.0220
 4638SOL    HW118761   3.899   5.235   4.732  0.3166  0.2528  0.4954
 4638SOL    HW218762   3.783   5.298   4.657  0.6895  1.1449  0.6521
 4639SOL     OW18763   1.473   1.830   0.036  0.0900  0.0854  0.0017
 4639SOL    HW118764   1.414   1.780  -0.020  0.6254  0.4492 -0.9158
 4639SOL    HW218765   1.500   1.768   0.104 -3.0394  0.4923  1.8052
 4640SOL     OW18766   6.183   0.354   8.772 -0.3311  0.2554  0.1108
 4640SOL    HW118767   6.190   0.260   8.756 -2.7790  0.3965 -2.8482
 4640SOL    HW218768   6.187   0.363   8.867  2.9638 -2.4226  0.3971
 4641SOL     OW18769   2.002   5.909   1.925 -0.1275  0.2386  0.2239
 4641SOL    HW118770   2.000   5.988   1.871 -3.2414 -1.0425 -1.8556
 4641SOL    HW218771   1.932   5.922   1.989 -0.8888 -0.9091 -0.3467
 4642SOL     OW18772   3.406   1.314   2.661  0.3694 -0.7277 -0.2078
 4642SOL    HW118773   3.484   1.282   2.705  1.6115 -2.1559 -3.1461
 4642SOL    HW218774   3.351   1.236   2.651  0.4478 -0.6231 -1.7051
 4643SOL     OW18775   4.667   0.118   3.675  0.4273 -0.0264 -0.5123
 4643SOL    HW118776   4.686   0.050   3.611  1.2708 -1.0224  0.7548
 4643SOL    HW218777   4.612   0.076   3.740 -0.9261  1.1367 -0.8556
 4644SOL     OW18778   7.131   5.132   9.310 -0.5436  0.0819  0.0835
 4644SOL    HW118779   7.054   5.078   9.328 -0.7001  0.0307 -0.7197
 4644SOL    HW218780   7.182   5.081   9.247 -1.1382  1.2388 -1.4123
 4645SOL     OW18781   8.848   5.731   9.302  0.2192  0.2174 -0.0032
 4645SOL    HW118782   8.810   5.670   9.365  0.0141  0.4487  0.0986
 4645SOL    HW218783   8.919   5.774   9.350  1.0747 -0.7115 -0.4025
 4646SOL     OW18784   0.252   2.015   8.737  0.1115 -0.2038 -0.4328
 4646SOL    HW118785   0.201   2.074   8.793 -0.6207 -0.6344 -0.6221
 4646SOL    HW218786   0.255   1.933   8.787 -0.5015 -0.5733 -0.9826
 4647SOL     OW18787   8.620   3.401   6.250 -0.1815 -0.4064  0.6054
 4647SOL    HW118788   8.639   3.348   6.172  1.5429  0.5697  0.3153
 4647SOL    HW218789   8.540   3.448   6.228  1.8466  2.2511 -1.9733
 4648SOL     OW18790   1.292   9.656   7.931 -0.6992 -0.1401 -0.3747
 4648SOL    HW118791   1.382   9.630   7.912  0.1249  1.7992  0.6103
 4648SOL    HW218792   1.242   9.630   7.853  0.5887 -1.7576 -0.6960
 4649SOL     OW18793   3.596   2.575   1.271  0.0334  0.2585  0.5838
 4649SOL    HW118794   3.683   2.600   1.305 -0.2931  1.2416  0.7467
 4649SOL    HW218795   3.535   2.609   1.337 -0.4622 -0.8857  0.7322
 4650SOL     OW18796   0.451   3.228   8.500 -0.6745 -0.5992 -0.0018
 4650SOL    HW118797   0.504   3.165   8.549  0.0091  0.1114  0.1989
 4650SOL    HW218798   0.514   3.290   8.465 -1.3820  0.3581  0.3643
 4651SOL     OW18799   1.009   6.605   2.491 -0.4299 -0.2752 -0.3590
 4651SOL    HW118800   0.997   6.638   2.580 -0.2123  0.2435 -0.5195
 4651SOL    HW218801   1.081   6.541   2.499 -0.2555 -0.0597 -0.2055
 4652SOL     OW18802   8.325   8.201   5.365  0.0803  1.0506  0.5654
 4652SOL    HW118803   8.381   8.262   5.318  0.2306 -0.6237 -1.5634
 4652SOL    HW218804   8.358   8.114   5.342 -1.2377  0.0825  2.0305
 4653SOL     OW18805   7.804   6.568   5.134 -0.0924  0.4113  0.4472
 4653SOL    HW118806   7.819   6.656   5.168  1.6245  0.0040  0.8403
 4653SOL    HW218807   7.862   6.512   5.185  0.4266 -0.6565 -1.2289
 4654SOL     OW18808   8.159   4.599   2.879  0.3792  0.0072 -0.0428
 4654SOL    HW118809   8.201   4.555   2.805  0.6223  0.3095 -0.0887
 4654SOL    HW218810   8.067   4.574   2.873  0.5371 -0.5945  0.0119
 4655SOL     OW18811   5.382   4.125   1.263 -0.1125 -0.3942 -0.2276
 4655SOL    HW118812   5.360   4.084   1.346  1.3082  3.4768  2.3218
 4655SOL    HW218813   5.476   4.141   1.267 -0.3961  2.1119 -1.3836
 4656SOL     OW18814   5.718   2.098   2.773 -0.2680 -0.7491  0.5562
 4656SOL    HW118815   5.629   2.130   2.781 -0.0928 -0.4050  1.1499
 4656SOL    HW218816   5.772   2.177   2.767  0.1507 -0.9077  1.8839
 4657SOL     OW18817   4.649   1.312   7.207  0.4534 -0.2103 -0.0134
 4657SOL    HW118818   4.695   1.285   7.128  0.5965  0.7442 -0.2726
 4657SOL    HW218819   4.648   1.408   7.202 -0.3130 -0.1726  0.6978
 4658SOL     OW18820   4.339   8.152   6.724  0.2395 -0.0682  0.0745
 4658SOL    HW118821   4.293   8.180   6.645  0.2693  0.2627  0.1729
 4658SOL    HW218822   4.322   8.221   6.788 -0.0264 -0.4749  0.4527
 4659SOL     OW18823   7.953   7.217   4.240 -0.6014  0.5523 -0.0638
 4659SOL    HW118824   7.988   7.132   4.264  0.8603  1.4992  1.3472
 4659SOL    HW218825   7.925   7.207   4.149  1.6345 -0.8192 -0.6628
 4660SOL     OW18826   4.749   9.122   7.848  0.4320  0.3973  0.0333
 4660SOL    HW118827   4.778   9.109   7.758  2.3207  0.9021  0.5328
 4660SOL    HW218828   4.655   9.141   7.840  0.4612 -0.0033 -1.7720
 4661SOL     OW18829   3.618   2.542   8.493 -0.5252 -0.1738  0.3384
 4661SOL    HW118830   3.656   2.620   8.533 -1.5937 -0.2150  1.5092
 4661SOL    HW218831   3.622   2.558   8.399 -0.0077  0.9359  0.5381
 4662SOL     OW18832   6.345   7.822   0.732  0.1168  0.4350  0.1801
 4662SOL    HW118833   6.326   7.811   0.825  0.1588  0.2473  0.1664
 4662SOL    HW218834   6.349   7.733   0.698  1.1401  0.4630  0.2084
 4663SOL     OW18835   7.692   2.295   2.278 -0.0772  0.1972 -0.5569
 4663SOL    HW118836   7.753   2.368   2.273 -0.2519  0.2779 -1.7196
 4663SOL    HW218837   7.719   2.246   2.356  0.8723  0.7511 -0.5301
 4664SOL     OW18838   4.460   2.654   4.802 -0.0544  0.8320  0.1260
 4664SOL    HW118839   4.519   2.659   4.728 -1.2561 -0.9409 -1.0193
 4664SOL    HW218840   4.373   2.645   4.764 -0.8233  0.8224  1.7590
 4665SOL     OW18841   4.575   6.322   0.667  0.2912 -0.5990  0.1227
 4665SOL    HW118842   4.488   6.335   0.705  0.2890  3.4043 -0.7803
 4665SOL    HW218843   4.557   6.288   0.580 -0.3226 -0.7632  0.3037
 4666SOL     OW18844   7.670   9.534   8.570 -0.4976 -0.0927  0.6449
 4666SOL    HW118845   7.742   9.554   8.629  1.0188 -0.0078 -1.1360
 4666SOL    HW218846   7.707   9.543   8.482 -2.4188 -1.0146 -0.3404
 4667SOL     OW18847   5.588   7.679   3.210  0.5947  0.4864 -0.4950
 4667SOL    HW118848   5.650   7.752   3.221 -0.7013  1.4156  1.0791
 4667SOL    HW218849   5.603   7.623   3.286  0.3770  0.0264 -0.7848
 4668SOL     OW18850   0.628   4.452   6.317 -0.8443  0.5236 -0.1861
 4668SOL    HW118851   0.612   4.486   6.229 -0.6953  1.1681  0.0271
 4668SOL    HW218852   0.674   4.524   6.361 -1.6597  0.5268  0.6774
 4669SOL     OW18853   6.787   9.071   0.287  0.0283 -0.0052  0.1147
 4669SOL    HW118854   6.797   9.056   0.381  2.0585 -1.6787 -0.3016
 4669SOL    HW218855   6.824   9.158   0.273 -0.6664  0.4317  0.9004
 4670SOL     OW18856   9.226   6.485   2.750 -0.1806 -0.5618 -0.7100
 4670SOL    HW118857   9.254   6.550   2.686  1.1715  0.3444  0.7155
 4670SOL    HW218858   9.273   6.509   2.830 -1.2821 -2.0455  0.4394
 4671SOL     OW18859   1.342   4.629   7.594  0.0006  0.1745 -0.1875
 4671SOL    HW118860   1.310   4.539   7.591  1.2768 -0.3137  0.0997
 4671SOL    HW218861   1.290   4.675   7.528 -1.3519 -0.5289  0.3582
 4672SOL     OW18862   0.400   6.066   7.435 -0.3527 -0.3422 -0.7033
 4672SOL    HW118863   0.306   6.078   7.436 -0.2139  1.0264  0.8504
 4672SOL    HW218864   0.429   6.099   7.520  1.5303 -0.6599 -1.1745
 4673SOL     OW18865   2.289   2.304   9.448  0.3012  0.0452  0.3848
 4673SOL    HW118866   2.230   2.240   9.487 -1.9156  0.2957 -2.2502
 4673SOL    HW218867   2.243   2.388   9.455  1.8325  0.8807  1.1125
 4674SOL     OW18868   9.708   7.375   5.163 -0.4681 -0.0783 -0.3371
 4674SOL    HW118869   9.759   7.417   5.233  1.4631 -1.8593 -0.5805
 4674SOL    HW218870   9.728   7.427   5.085  3.0222 -2.0231 -0.9306
 4675SOL     OW18871   0.984   1.257   8.918 -0.5849  0.2752 -0.1394
 4675SOL    HW118872   1.062   1.279   8.969  0.1618 -0.4105 -0.9504
 4675SOL    HW218873   0.957   1.172   8.951 -0.1460 -0.1349 -0.8037
 4676SOL     OW18874   9.409   0.328   7.458  0.1436  0.4774 -0.5298
 4676SOL    HW118875   9.471   0.288   7.519 -0.0462  0.6222 -0.2355
 4676SOL    HW218876   9.448   0.317   7.372  0.4336  0.3022 -0.3752
 4677SOL     OW18877   8.409   8.448   2.902  0.2095  0.3659 -0.3387
 4677SOL    HW118878   8.434   8.520   2.960  0.9093 -0.2131  0.0919
 4677SOL    HW218879   8.365   8.491   2.829  0.6726  1.2388 -0.1197
 4678SOL     OW18880   6.134   9.516   1.334 -0.2010 -0.5536 -0.1911
 4678SOL    HW118881   6.066   9.538   1.399 -0.6583 -3.9495  0.6474
 4678SOL    HW218882   6.098   9.547   1.251 -1.1434  0.8626  0.6872
 4679SOL     OW18883   1.344   4.878   0.292 -0.3727 -0.3893  0.0792
 4679SOL    HW118884   1.373   4.791   0.266 -1.2556 -0.9354  0.8435
 4679SOL    HW218885   1.296   4.911   0.215  0.3434 -0.3811 -0.3728
 4680SOL     OW18886   9.646   5.685   3.074 -0.3714  0.0907  0.1795
 4680SOL    HW118887   9.675   5.596   3.091 -1.8095 -0.3997  0.1871
 4680SOL    HW218888   9.727   5.736   3.067  0.4347 -0.7234  2.6909
 4681SOL     OW18889   6.684   2.471   0.581  0.0528 -0.4152  0.5566
 4681SOL    HW118890   6.619   2.406   0.553 -1.4764  1.7281 -1.2562
 4681SOL    HW218891   6.672   2.544   0.520  2.9398  0.8507  1.3410
 4682SOL     OW18892   0.008   6.615   3.692  0.0513 -0.1003  0.2808
 4682SOL    HW118893  -0.015   6.568   3.612 -2.2013  1.7456 -0.2446
 4682SOL    HW218894   0.033   6.702   3.663 -1.1883  0.7217  1.5746
 4683SOL     OW18895   3.526   0.928   6.444  0.5737  0.0225  0.5244
 4683SOL    HW118896   3.543   0.880   6.363  1.5126  1.3024 -0.0868
 4683SOL    HW218897   3.500   0.861   6.507 -0.0004 -1.0305 -0.7745
 4684SOL     OW18898   8.543   7.723   9.568  0.0723 -0.4850 -0.1038
 4684SOL    HW118899   8.638   7.713   9.566  0.0432 -0.7317 -0.3466
 4684SOL    HW218900   8.529   7.809   9.607  0.3470 -1.0873  1.3772
 4685SOL     OW18901   6.803   7.678   3.335 -0.1324 -0.1667  0.6423
 4685SOL    HW118902   6.804   7.774   3.339 -0.3567  0.0452 -2.2111
 4685SOL    HW218903   6.744   7.658   3.262  1.4866 -2.3965 -0.1475
 4686SOL     OW18904   4.985   3.279   7.828 -0.9468 -0.1626 -0.6192
 4686SOL    HW118905   5.042   3.308   7.757 -1.5535 -0.3002 -1.1727
 4686SOL    HW218906   4.917   3.347   7.834 -2.2562 -1.3116 -1.7828
 4687SOL     OW18907   5.324   2.094   7.357  0.1511  0.2817 -0.0122
 4687SOL    HW118908   5.378   2.022   7.326  0.7482  1.2076 -1.2100
 4687SOL    HW218909   5.335   2.094   7.452 -0.2272 -1.4653  0.0617
 4688SOL     OW18910   4.776   4.766   8.301  0.3449  0.4452  0.0754
 4688SOL    HW118911   4.700   4.715   8.327  0.5922  0.2214  0.3687
 4688SOL    HW218912   4.850   4.722   8.344  0.6049  0.8196  0.0124
 4689SOL     OW18913   0.262   1.857   3.872 -0.5178 -0.6982  0.1895
 4689SOL    HW118914   0.167   1.854   3.864 -0.4556 -1.7417 -0.4019
 4689SOL    HW218915   0.291   1.771   3.840  0.8099  0.7007 -2.7694
 4690SOL     OW18916   9.361   3.460   9.457  0.2680  0.2696 -0.4421
 4690SOL    HW118917   9.424   3.440   9.388 -0.4829  1.2239 -1.4358
 4690SOL    HW218918   9.346   3.377   9.501 -0.1483 -0.6305 -2.2036
 4691SOL     OW18919   4.941   4.923   2.467 -0.1991  0.3197  0.1449
 4691SOL    HW118920   4.899   4.843   2.500 -1.8919  0.2911 -1.8673
 4691SOL    HW218921   5.016   4.891   2.417  0.7380  0.2115  1.5465
 4692SOL     OW18922   7.170   8.779   7.899 -0.0298  0.1961 -0.0375
 4692SOL    HW118923   7.260   8.805   7.920  0.1942 -1.2533  0.9322
 4692SOL    HW218924   7.180   8.699   7.848 -0.7673 -1.3141  2.0555
 4693SOL     OW18925   6.378   8.399   5.133 -0.2553  0.6123 -0.0136
 4693SOL    HW118926   6.294   8.443   5.130 -0.0008  1.0658 -0.6324
 4693SOL    HW218927   6.443   8.470   5.136  0.1622  0.3014 -1.1990
 4694SOL     OW18928   6.607   7.379   3.774  0.3572  0.1414  0.3574
 4694SOL    HW118929   6.616   7.287   3.747  3.8208 -0.0514  1.6714
 4694SOL    HW218930   6.610   7.428   3.692  2.6910 -0.7992 -0.2141
 4695SOL     OW18931   3.274   4.485   2.459  0.5774  0.1086  0.0640
 4695SOL    HW118932   3.304   4.406   2.505 -0.1288 -0.6972 -0.8269
 4695SOL    HW218933   3.247   4.544   2.530  1.9292 -0.0820  0.7787
 4696SOL     OW18934   6.115   2.141   6.486  0.2466 -0.2099 -0.9745
 4696SOL    HW118935   6.044   2.095   6.531  0.5890 -0.2414 -0.4604
 4696SOL    HW218936   6.075   2.222   6.454 -0.0182 -0.2222 -0.6781
 4697SOL     OW18937   7.545   0.011   5.884  0.1359 -0.0892 -0.3859
 4697SOL    HW118938   7.532   0.102   5.860 -0.1151  0.4042  1.4934
 4697SOL    HW218939   7.482  -0.037   5.831  0.4673  0.7615 -1.6056
 4698SOL     OW18940   5.969   0.511   9.597 -0.0398  0.1119 -0.4346
 4698SOL    HW118941   6.047   0.473   9.558 -0.5504 -1.6845  0.2130
 4698SOL    HW218942   5.911   0.437   9.614 -1.1016  1.1792  0.8815
 4699SOL     OW18943   4.169   3.339   2.222 -0.0004 -0.5265  0.0561
 4699SOL    HW118944   4.111   3.405   2.182 -1.2887 -1.6295  0.0359
 4699SOL    HW218945   4.120   3.308   2.298  2.1878  1.1867  2.3204
 4700SOL     OW18946   0.760   2.786   1.030  0.4323  0.3833  0.6558
 4700SOL    HW118947   0.678   2.764   0.987  1.0702 -1.8241  0.4433
 4700SOL    HW218948   0.809   2.837   0.966 -0.3978  0.9311  0.4519
 4701SOL     OW18949   5.913   2.166   7.966  0.3489  0.0488  0.1508
 4701SOL    HW118950   5.826   2.176   8.006 -1.1954  1.1834 -3.1248
 4701SOL    HW218951   5.919   2.073   7.944 -1.2776  0.3613 -1.9244
 4702SOL     OW18952   6.154   7.536   9.089  0.0623  0.5846 -0.2253
 4702SOL    HW118953   6.179   7.621   9.054  1.4596 -0.6359 -2.3855
 4702SOL    HW218954   6.138   7.481   9.012  0.3280 -1.4322  1.0647
 4703SOL     OW18955   5.684   4.488   9.263 -0.9579  0.4350 -0.4527
 4703SOL    HW118956   5.611   4.539   9.227 -0.9434  1.8371  1.3302
 4703SOL    HW218957   5.646   4.441   9.336 -0.2419  0.5753  0.0141
 4704SOL     OW18958   7.147   6.105   0.165  0.0986 -0.0179 -0.2361
 4704SOL    HW118959   7.119   6.014   0.173  0.7634 -0.4513 -2.2379
 4704SOL    HW218960   7.078   6.146   0.112  0.4396  0.3221 -0.4147
 4705SOL     OW18961   4.491   0.712   7.481  0.1414 -0.1558  0.2387
 4705SOL    HW118962   4.486   0.706   7.576  0.4321  0.8783  0.3250
 4705SOL    HW218963   4.400   0.726   7.453  0.2738  1.4118  0.5179
 4706SOL     OW18964   4.123   0.833   0.683 -0.3055  0.3562  0.5785
 4706SOL    HW118965   4.192   0.854   0.746  0.9128  1.8499 -1.1229
 4706SOL    HW218966   4.053   0.794   0.735  1.4680 -0.4338  2.5108
 4707SOL     OW18967   8.088   2.847   8.082 -0.1225 -0.2486 -0.4565
 4707SOL    HW118968   8.115   2.916   8.143 -1.1362 -1.1317  1.0657
 4707SOL    HW218969   7.993   2.857   8.076 -0.1588 -0.8925 -0.9934
 4708SOL     OW18970   3.070   2.813   5.119  0.6262  0.6066  0.5075
 4708SOL    HW118971   2.975   2.808   5.112  0.4654  1.0815  2.0163
 4708SOL    HW218972   3.101   2.734   5.074 -0.5428 -0.2238  1.1051
 4709SOL     OW18973   8.645   1.025   3.883  0.1359  0.1316 -0.0408
 4709SOL    HW118974   8.612   0.942   3.918 -0.4400  0.4993  0.3079
 4709SOL    HW218975   8.713   1.000   3.820  0.8563 -0.5590  0.9883
 4710SOL     OW18976   1.522   5.821   4.860  0.2188 -0.0901 -0.3350
 4710SOL    HW118977   1.475   5.890   4.814 -1.0152 -0.2616  0.5758
 4710SOL    HW218978   1.481   5.819   4.947  1.9837 -0.2322  0.5230
 4711SOL     OW18979   4.600   8.995   9.208 -0.3564 -0.3270 -0.2206
 4711SOL    HW118980   4.567   9.033   9.126 -0.0022  0.0446 -0.1929
 4711SOL    HW218981   4.693   8.982   9.192  0.1133  1.5359  0.7865
 4712SOL     OW18982   8.689   5.518   9.134 -0.4348 -0.0405  0.2293
 4712SOL    HW118983   8.778   5.540   9.162  0.2073 -1.0967 -0.8875
 4712SOL    HW218984   8.699   5.435   9.087 -2.0216 -0.1916  0.1170
 4713SOL     OW18985   5.475   9.123   1.381  0.1994  0.1118  0.0763
 4713SOL    HW118986   5.536   9.071   1.434 -0.0345 -0.2390  0.0058
 4713SOL    HW218987   5.521   9.206   1.365  0.5351 -0.0359  0.2736
 4714SOL     OW18988   8.981   4.434   8.326 -0.0671 -0.5637  0.0072
 4714SOL    HW118989   8.972   4.361   8.265 -1.2186  0.0963 -0.6476
 4714SOL    HW218990   8.894   4.445   8.363  0.0212  0.6209 -0.0910
 4715SOL     OW18991   9.423   4.844   5.749 -0.3616  0.3308  0.1743
 4715SOL    HW118992   9.350   4.900   5.725  0.1618  0.1652 -1.9876
 4715SOL    HW218993   9.491   4.904   5.782 -0.3143  0.8341 -0.8150
 4716SOL     OW18994   7.311   3.360   8.695  0.1838  0.3838 -0.1718
 4716SOL    HW118995   7.333   3.317   8.612  0.6894  1.0830 -0.4191
 4716SOL    HW218996   7.388   3.347   8.750  0.5924  1.4289 -0.4553
 4717SOL     OW18997   7.363   6.071   8.778  0.0008  0.0114 -0.1513
 4717SOL    HW118998   7.329   6.055   8.689 -2.5779  1.3264  0.5022
 4717SOL    HW218999   7.321   6.004   8.832  1.8297 -1.0039  0.0891
 4718SOL     OW19000   5.884   0.709   6.007 -0.7524  0.1580 -0.1460
 4718SOL    HW119001   5.925   0.649   5.945  0.7380  0.4057  0.5507
 4718SOL    HW219002   5.840   0.774   5.952 -0.7523 -0.4841 -0.9216
 4719SOL     OW19003   8.976   6.161   3.926 -0.1255  0.1885 -0.2041
 4719SOL    HW119004   8.998   6.083   3.875  0.5264 -0.1729  0.6057
 4719SOL    HW219005   8.906   6.203   3.876 -0.2640 -0.7387 -0.8241
 4720SOL     OW19006   3.302   7.361   0.627  0.6230 -0.9381  0.1097
 4720SOL    HW119007   3.208   7.367   0.612  0.3043  0.7881  2.2531
 4720SOL    HW219008   3.337   7.322   0.547 -1.8172 -1.0524 -0.9900
 4721SOL     OW19009   7.906   0.617   8.039 -0.2525  0.4394 -0.3968
 4721SOL    HW119010   7.932   0.525   8.043 -0.4404  0.4322  0.7408
 4721SOL    HW219011   7.987   0.664   8.018  0.6859  0.3748  2.6857
 4722SOL     OW19012   0.028   7.443   3.753  0.4782 -0.3636  0.1618
 4722SOL    HW119013  -0.037   7.431   3.684  1.3005  0.6127 -0.8233
 4722SOL    HW219014   0.073   7.524   3.729  2.3212 -1.2233  0.5928
 4723SOL     OW19015   6.256   5.253   1.977  0.6508 -0.4156 -0.1695
 4723SOL    HW119016   6.248   5.273   1.883  1.1306 -0.9514 -0.3303
 4723SOL    HW219017   6.166   5.259   2.010  0.4737 -0.2342 -0.6644
 4724SOL     OW19018   8.765   2.353   1.707 -0.0062 -0.4469 -0.0116
 4724SOL    HW119019   8.749   2.427   1.767  0.7834  1.4590 -2.0199
 4724SOL    HW219020   8.820   2.390   1.638  2.2357 -3.4678 -0.0613
 4725SOL     OW19021   2.685   6.932   7.770 -0.7030  0.3768  0.2528
 4725SOL    HW119022   2.659   6.867   7.704 -1.2484 -0.2112  1.0167
 4725SOL    HW219023   2.681   6.883   7.852  1.5540  0.6366  0.5641
 4726SOL     OW19024   8.289   6.017   7.221 -0.3233 -0.8166 -0.5686
 4726SOL    HW119025   8.220   6.074   7.255 -0.4767 -1.0797 -0.4329
 4726SOL    HW219026   8.246   5.933   7.208 -0.3336 -0.6522 -1.6707
 4727SOL     OW19027   4.601   1.798   6.959 -0.1535  0.1323  0.0106
 4727SOL    HW119028   4.658   1.846   6.899  1.8751 -0.2291  1.5270
 4727SOL    HW219029   4.565   1.866   7.017 -0.7015  0.2743 -0.4860
 4728SOL     OW19030   8.652   9.473   5.985 -0.3097  0.4662 -0.6540
 4728SOL    HW119031   8.572   9.420   5.986 -0.6056  0.8932  1.0295
 4728SOL    HW219032   8.622   9.561   5.962 -0.2374  0.5043 -0.6001
 4729SOL     OW19033   5.179   9.163   1.446  0.2198 -0.3704 -0.0252
 4729SOL    HW119034   5.271   9.181   1.428  0.3499 -0.8023  0.2043
 4729SOL    HW219035   5.180   9.096   1.514 -0.2709  0.3492  0.7043
 4730SOL     OW19036   0.131   1.224   5.894  0.2624  0.0105  0.6272
 4730SOL    HW119037   0.041   1.230   5.863 -0.0086  0.2457  1.4420
 4730SOL    HW219038   0.131   1.152   5.957  1.0106 -1.0790 -0.5599
 4731SOL     OW19039   6.411   8.996   5.677  0.1081 -0.1533  0.3852
 4731SOL    HW119040   6.365   8.970   5.598 -0.9063  0.5035  0.7388
 4731SOL    HW219041   6.460   8.918   5.703  1.6054  0.0202 -1.6360
 4732SOL     OW19042   3.052   5.984   0.200 -0.6348 -0.2399 -0.0054
 4732SOL    HW119043   3.057   6.079   0.215  2.8091  0.0030 -1.8191
 4732SOL    HW219044   3.127   5.949   0.247 -1.3990 -2.0206 -0.0431
 4733SOL     OW19045   8.932   3.947   5.059  0.1061 -0.0022  0.1272
 4733SOL    HW119046   8.951   3.979   5.147 -0.9048 -0.7913  0.6418
 4733SOL    HW219047   8.973   4.012   5.001  0.3867  0.7666  1.1599
 4734SOL     OW19048   5.213   3.097   2.575 -0.7594 -0.0482 -0.2233
 4734SOL    HW119049   5.179   3.078   2.663 -0.6742 -2.0350 -0.5845
 4734SOL    HW219050   5.135   3.098   2.519 -0.8820  1.7673 -0.0949
 4735SOL     OW19051   8.195   7.532   7.510  0.4651 -0.0099  0.0033
 4735SOL    HW119052   8.243   7.462   7.465 -0.6326 -2.4984  2.4119
 4735SOL    HW219053   8.263   7.581   7.557  1.5379  2.1816 -3.4677
 4736SOL     OW19054   0.436   5.796   1.952 -0.6880 -0.2768 -0.0487
 4736SOL    HW119055   0.412   5.855   2.024 -0.0102  0.0809 -0.1143
 4736SOL    HW219056   0.510   5.746   1.986  0.7447  1.0665 -1.0701
 4737SOL     OW19057   4.820   8.059   5.251 -0.3703  0.2192 -0.1694
 4737SOL    HW119058   4.729   8.031   5.239 -0.8327  1.2534  0.7664
 4737SOL    HW219059   4.839   8.112   5.174 -0.7216  0.4136 -0.1218
 4738SOL     OW19060   2.895   3.549   9.135  0.0235  0.0246  0.5945
 4738SOL    HW119061   2.822   3.580   9.190 -1.2547 -2.1009  0.2163
 4738SOL    HW219062   2.852   3.501   9.064  1.7894 -1.9863  0.7966
 4739SOL     OW19063   0.441   9.042   0.300 -0.1912 -1.1162  0.1105
 4739SOL    HW119064   0.385   9.015   0.228 -0.6342  2.0073 -0.8891
 4739SOL    HW219065   0.396   9.011   0.379 -1.7148 -1.3436 -0.8077
 4740SOL     OW19066   4.713   1.210   6.484 -0.1804  0.5923 -0.3605
 4740SOL    HW119067   4.635   1.172   6.524 -0.7038  1.6734 -0.3001
 4740SOL    HW219068   4.719   1.169   6.398 -0.0380 -0.4784  0.1440
 4741SOL     OW19069   7.339   9.176   5.404  0.0092 -0.0122 -0.1811
 4741SOL    HW119070   7.387   9.197   5.484 -1.8308 -1.1695  1.3199
 4741SOL    HW219071   7.388   9.104   5.365  1.2019  0.8898 -0.4122
 4742SOL     OW19072   1.044   2.950   0.452  0.4129  0.4130 -0.0786
 4742SOL    HW119073   0.965   2.971   0.502  0.5667  0.2617  0.2304
 4742SOL    HW219074   1.024   2.979   0.363  0.4536  1.4546  0.2388
 4743SOL     OW19075   0.180   6.245   4.145  0.4723  0.3661  0.8626
 4743SOL    HW119076   0.193   6.236   4.240  0.5431 -1.2448  0.7163
 4743SOL    HW219077   0.265   6.273   4.112  0.7333 -0.0634  1.1590
 4744SOL     OW19078   8.495   6.651   7.480 -0.0823 -0.0351  0.2175
 4744SOL    HW119079   8.403   6.677   7.486  0.0050 -0.0455  3.0954
 4744SOL    HW219080   8.541   6.729   7.449 -1.1111 -0.3694 -2.4008
 4745SOL     OW19081   4.392   4.005   5.727 -0.4219  0.3679 -0.0822
 4745SOL    HW119082   4.451   4.015   5.653 -0.6870  0.3705 -0.2970
 4745SOL    HW219083   4.447   4.015   5.805 -0.1342  0.3055 -0.2805
 4746SOL     OW19084   0.813   6.782   3.154  0.5063  0.1871 -0.1920
 4746SOL    HW119085   0.863   6.822   3.083  0.1436 -0.3788 -0.7814
 4746SOL    HW219086   0.790   6.695   3.121  3.7308 -1.7619  2.1069
 4747SOL     OW19087   0.890   7.048   4.454 -0.3306  0.4210 -0.0333
 4747SOL    HW119088   0.956   7.069   4.388 -0.7406  0.0373 -0.5736
 4747SOL    HW219089   0.832   7.124   4.455 -0.0229  0.6582  0.2770
 4748SOL     OW19090   9.713   7.318   4.547 -0.3860  0.0050 -0.1619
 4748SOL    HW119091   9.792   7.328   4.494 -0.2782 -1.5785 -0.3319
 4748SOL    HW219092   9.711   7.397   4.601  2.2689 -0.6710  1.1000
 4749SOL     OW19093   1.895   2.829   5.028  0.0534 -0.5795 -0.3249
 4749SOL    HW119094   1.849   2.763   4.976  0.4000 -0.6699 -0.5183
 4749SOL    HW219095   1.866   2.812   5.118 -1.5671  0.4120 -0.6207
 4750SOL     OW19096   6.563   2.888   8.183  0.6661 -0.1462 -0.4172
 4750SOL    HW119097   6.522   2.887   8.097 -0.7933  0.8361  0.2393
 4750SOL    HW219098   6.633   2.823   8.176  0.7027  0.0366 -2.3858
 4751SOL     OW19099   0.420   2.624   6.662  0.1468  0.4273 -0.1422
 4751SOL    HW119100   0.413   2.702   6.718 -0.6460 -1.0494  1.9603
 4751SOL    HW219101   0.442   2.553   6.723 -1.1091 -1.3552 -1.6600
 4752SOL     OW19102   4.221   7.702   6.876  0.1448  0.2878 -0.5156
 4752SOL    HW119103   4.177   7.661   6.950  1.7324 -0.3383  0.1106
 4752SOL    HW219104   4.152   7.712   6.810 -0.9947 -0.3638  0.5389
 4753SOL     OW19105   7.765   8.280   8.068 -0.1150  0.1498 -0.4422
 4753SOL    HW119106   7.685   8.295   8.119  0.1089 -2.1962  0.7568
 4753SOL    HW219107   7.739   8.214   8.004  1.0162 -1.3252  0.5517
 4754SOL     OW19108   3.027   5.420   4.079  0.1021  0.8495 -0.5008
 4754SOL    HW119109   3.109   5.401   4.034 -0.3082  2.4795 -2.0806
 4754SOL    HW219110   3.028   5.364   4.156  2.2471  0.1356 -0.9773
 4755SOL     OW19111   2.233   0.213   5.284  0.9545  0.0659  0.1656
 4755SOL    HW119112   2.201   0.247   5.367 -1.2447  0.5867 -0.8077
 4755SOL    HW219113   2.193   0.127   5.275  2.2468 -0.5639  0.2188
 4756SOL     OW19114   0.322   1.718   4.339 -0.1567  0.1136  0.0642
 4756SOL    HW119115   0.255   1.663   4.298 -0.8116  0.5084  0.5924
 4756SOL    HW219116   0.278   1.801   4.356  1.0556  1.1179 -1.4671
 4757SOL     OW19117   6.386   2.466   8.373  0.3350  0.1520  1.6572
 4757SOL    HW119118   6.456   2.448   8.310 -0.3363 -0.2442  1.0088
 4757SOL    HW219119   6.427   2.522   8.439  0.6190  2.0762 -0.0385
 4758SOL     OW19120   6.744   7.203   5.864 -0.0499 -0.4892 -0.1433
 4758SOL    HW119121   6.665   7.161   5.900 -0.5777  1.0008  0.5298
 4758SOL    HW219122   6.718   7.230   5.776  0.3246 -1.6057 -0.6188
 4759SOL     OW19123   4.469   9.063   4.618  0.4241  0.7678  0.3622
 4759SOL    HW119124   4.415   9.113   4.556  1.6307  0.9074 -0.6258
 4759SOL    HW219125   4.477   9.119   4.694 -1.0645  0.6140  0.6717
 4760SOL     OW19126   6.561   3.993   3.383  0.1981  0.9494  0.0840
 4760SOL    HW119127   6.583   3.991   3.290  0.5472  2.0958  0.1266
 4760SOL    HW219128   6.466   4.005   3.385  0.3723  2.5571 -0.1526
 4761SOL     OW19129   3.780   1.541   4.361  0.0966 -0.1034 -0.0640
 4761SOL    HW119130   3.850   1.488   4.400 -0.0035  0.0439  0.3218
 4761SOL    HW219131   3.773   1.509   4.271  1.7080  0.8799 -0.6036
 4762SOL     OW19132   6.611   8.726   3.587  0.2835 -0.2733 -0.1976
 4762SOL    HW119133   6.528   8.703   3.545  1.5275 -0.2774 -2.8639
 4762SOL    HW219134   6.648   8.642   3.615 -0.2710 -0.3506  0.3003
 4763SOL     OW19135   7.955   5.105   5.581 -0.2504 -0.1072  0.1809
 4763SOL    HW119136   7.921   5.076   5.665  0.2693 -1.6467 -0.1084
 4763SOL    HW219137   7.910   5.051   5.517  0.3071  0.1436 -0.4312
 4764SOL     OW19138   7.751   3.486   3.544  0.0740 -0.2640  0.6593
 4764SOL    HW119139   7.656   3.497   3.544  0.2004  1.2179 -1.0944
 4764SOL    HW219140   7.783   3.561   3.593  0.4112  0.0975 -0.1171
 4765SOL     OW19141   9.023   2.077   0.411  0.7394  0.2503 -0.5828
 4765SOL    HW119142   9.026   2.027   0.492  2.6522 -0.2744 -0.9258
 4765SOL    HW219143   8.998   2.166   0.437  0.2677 -0.1739  0.4253
 4766SOL     OW19144   2.277   9.647   9.165 -0.0660  0.2334  0.0816
 4766SOL    HW119145   2.185   9.645   9.138  0.7029 -0.2952 -2.8343
 4766SOL    HW219146   2.297   9.556   9.188 -0.0449  0.1856 -0.1247
 4767SOL     OW19147   7.423   3.988   5.889  0.4284  0.8095 -0.6504
 4767SOL    HW119148   7.350   4.050   5.891  2.0945  2.9989 -1.8338
 4767SOL    HW219149   7.460   3.991   5.978  0.5646  1.6615 -0.7267
 4768SOL     OW19150   3.694   8.354   9.320 -0.3207 -0.3040 -0.7876
 4768SOL    HW119151   3.655   8.435   9.287 -1.6789 -1.2914 -1.7258
 4768SOL    HW219152   3.625   8.288   9.309  0.4299 -1.4202  0.7857
 4769SOL     OW19153   1.990   9.345   4.863 -0.3867 -0.6002 -0.0480
 4769SOL    HW119154   1.923   9.377   4.803 -1.2794 -0.4387  1.0233
 4769SOL    HW219155   2.041   9.284   4.810 -0.8432 -0.0909 -1.1122
 4770SOL     OW19156   9.612   3.661   2.678 -0.2201 -0.4367  0.4464
 4770SOL    HW119157   9.700   3.625   2.666 -0.0190  0.7834 -2.6854
 4770SOL    HW219158   9.625   3.756   2.679 -1.3237 -0.2732  2.2667
 4771SOL     OW19159   5.200   5.656   2.506 -0.5415  0.0344 -0.7019
 4771SOL    HW119160   5.291   5.628   2.500 -1.2012 -2.1527 -1.7152
 4771SOL    HW219161   5.162   5.632   2.421 -2.2662  0.0380  0.0283
 4772SOL     OW19162   5.372   7.964   6.587 -0.3657  0.1146  0.1964
 4772SOL    HW119163   5.462   7.931   6.577 -0.3018  0.2858  0.2000
 4772SOL    HW219164   5.354   8.009   6.505  0.3283  1.9424  0.9933
 4773SOL     OW19165   9.162   2.036   8.609 -0.2599  0.3078  0.2463
 4773SOL    HW119166   9.245   1.989   8.599 -0.8283 -0.5141 -0.9471
 4773SOL    HW219167   9.160   2.064   8.700  1.2257  0.1455  0.3439
 4774SOL     OW19168   4.082   3.811   7.653  0.0012  0.5254 -0.2206
 4774SOL    HW119169   4.049   3.793   7.741 -0.7230 -1.3042 -0.8164
 4774SOL    HW219170   4.177   3.803   7.661  0.0092  1.3505  0.5872
 4775SOL     OW19171   5.087   5.358   0.043  0.2948  0.8030  0.0623
 4775SOL    HW119172   5.112   5.347   0.135 -0.0746 -3.0604 -0.1632
 4775SOL    HW219173   5.000   5.397   0.047 -0.3544 -0.6916  1.4362
 4776SOL     OW19174   4.059   6.726   1.361 -0.4305 -0.0752  0.0035
 4776SOL    HW119175   3.997   6.687   1.299 -2.2739  2.2222  0.2665
 4776SOL    HW219176   4.068   6.660   1.430 -0.4084 -1.5847 -1.3654
 4777SOL     OW19177   5.344   3.705   0.523  0.5110 -0.0512 -0.6516
 4777SOL    HW119178   5.414   3.684   0.584 -0.9207 -2.5297  0.3200
 4777SOL    HW219179   5.276   3.746   0.577 -0.0741 -0.6873 -0.8841
 4778SOL     OW19180   8.112   7.716   1.261 -0.2009  0.5618  0.1568
 4778SOL    HW119181   8.182   7.766   1.303 -2.3477  2.2833  1.9441
 4778SOL    HW219182   8.101   7.639   1.317 -0.1745  0.6277  0.2528
 4779SOL     OW19183   5.814   2.389   2.476 -0.9589  0.3773 -1.1667
 4779SOL    HW119184   5.870   2.312   2.468 -0.4538  0.6692 -0.5873
 4779SOL    HW219185   5.728   2.354   2.501 -0.0454  0.0917  2.1777
 4780SOL     OW19186   1.087   2.562   7.229  0.1543 -0.3456  0.1481
 4780SOL    HW119187   1.013   2.617   7.257  0.8468 -0.2525  1.9397
 4780SOL    HW219188   1.138   2.618   7.171 -0.9672 -0.2894 -0.8159
 4781SOL     OW19189   3.518   6.749   0.677  0.3669  0.0048  0.0186
 4781SOL    HW119190   3.571   6.828   0.666 -0.8356  0.8443  0.1025
 4781SOL    HW219191   3.431   6.781   0.700 -0.6315 -1.2657 -1.7271
 4782SOL     OW19192   5.357   0.982   4.293 -0.0163 -0.4183 -0.9353
 4782SOL    HW119193   5.375   0.928   4.216  0.6342 -0.3275 -0.8571
 4782SOL    HW219194   5.398   0.935   4.365  0.3560  0.0520 -0.8290
 4783SOL     OW19195   4.538   0.206   9.572  0.3240  0.1868  0.2168
 4783SOL    HW119196   4.594   0.280   9.550 -0.6743  1.5275  1.9423
 4783SOL    HW219197   4.566   0.180   9.660 -1.3080  0.4677  0.8443
 4784SOL     OW19198   3.872   8.540   1.441 -0.1125  0.0919 -0.0607
 4784SOL    HW119199   3.841   8.468   1.497  1.1057  0.4643  1.1422
 4784SOL    HW219200   3.837   8.619   1.483  0.3982  0.3408 -0.0983
 4785SOL     OW19201   2.930   8.596   3.471 -0.3188  0.6159 -0.2586
 4785SOL    HW119202   2.870   8.617   3.399 -1.7039 -1.3856  0.2356
 4785SOL    HW219203   3.010   8.566   3.428 -1.2177 -0.7963 -1.0103
 4786SOL     OW19204   5.627   4.174   6.439 -0.4728  0.2657  0.1129
 4786SOL    HW119205   5.627   4.110   6.368  0.6987  0.4952 -0.1145
 4786SOL    HW219206   5.580   4.249   6.404  0.4789  0.5529 -0.6086
 4787SOL     OW19207   5.377   7.105   4.932 -0.4434 -0.2266 -0.9652
 4787SOL    HW119208   5.333   7.026   4.900 -1.7684  0.2432 -0.3674
 4787SOL    HW219209   5.470   7.087   4.918 -0.4700 -2.9180  1.3369
 4788SOL     OW19210   7.273   8.397   2.447  0.2399 -0.3736  0.1532
 4788SOL    HW119211   7.200   8.341   2.421 -0.4101  0.0449  1.0381
 4788SOL    HW219212   7.315   8.421   2.365  0.3879 -1.9521 -0.2645
 4789SOL     OW19213   0.717   9.269   4.818 -0.3865 -0.5014 -0.1652
 4789SOL    HW119214   0.727   9.275   4.723  1.7970 -0.7908 -0.0169
 4789SOL    HW219215   0.660   9.342   4.842 -0.7734 -0.2914 -1.6735
 4790SOL     OW19216   1.939   5.170   4.070 -0.6342 -0.2933 -0.2678
 4790SOL    HW119217   1.967   5.248   4.021  1.5382  0.5015  1.9921
 4790SOL    HW219218   1.918   5.106   4.003 -0.8489  1.6810 -2.2227
 4791SOL     OW19219   8.462   4.114   3.718 -0.6158 -0.0499 -0.4918
 4791SOL    HW119220   8.442   4.039   3.663 -0.5597 -0.4019 -0.0406
 4791SOL    HW219221   8.492   4.076   3.801  2.8784  0.3878 -1.4044
 4792SOL     OW19222   1.828   3.947   7.011  0.0101  0.1805 -0.1974
 4792SOL    HW119223   1.880   4.027   7.015  0.2024  0.0265  0.4157
 4792SOL    HW219224   1.754   3.970   6.954  0.5020  0.5327 -0.7142
 4793SOL     OW19225   8.958   8.346   6.881 -0.2295 -0.1991  0.2238
 4793SOL    HW119226   9.052   8.355   6.862 -0.1227 -0.7784  0.4734
 4793SOL    HW219227   8.922   8.432   6.859  0.2300 -0.2002 -0.6053
 4794SOL     OW19228   8.893   0.668   3.700 -0.4858 -0.2934  0.0494
 4794SOL    HW119229   8.957   0.729   3.663  1.0431 -2.1169 -0.5379
 4794SOL    HW219230   8.865   0.708   3.781  1.1581  0.7686  0.1436
 4795SOL     OW19231   2.093   1.560   5.424 -0.1233 -0.1200 -0.3653
 4795SOL    HW119232   2.159   1.524   5.366 -1.1132 -0.4786 -1.2858
 4795SOL    HW219233   2.068   1.643   5.384  0.0257  0.1981  0.1826
 4796SOL     OW19234   6.844   7.267   0.848 -0.3115  0.8707 -0.2917
 4796SOL    HW119235   6.772   7.234   0.793  1.4641 -1.7822 -1.2044
 4796SOL    HW219236   6.918   7.274   0.788  0.7092  1.6856  1.0173
 4797SOL     OW19237   2.494   1.361   6.596  0.3120 -0.2491 -0.2483
 4797SOL    HW119238   2.573   1.396   6.639  0.3100  0.7610 -1.0168
 4797SOL    HW219239   2.428   1.429   6.608 -0.2550 -0.8021 -0.1788
 4798SOL     OW19240   4.962   0.799   7.797 -0.0405  0.0126  0.1121
 4798SOL    HW119241   5.029   0.830   7.736 -0.9294 -0.1529 -0.9834
 4798SOL    HW219242   4.905   0.743   7.744 -0.7516 -0.2640  1.1368
 4799SOL     OW19243   7.516   8.367   0.531 -0.3095  0.6330  0.4108
 4799SOL    HW119244   7.462   8.339   0.457 -2.8416  0.0455  2.3431
 4799SOL    HW219245   7.457   8.362   0.607  2.2550  0.8316  2.5491
 4800SOL     OW19246   3.881   6.508   6.344  0.0010 -0.0364 -0.0096
 4800SOL    HW119247   3.963   6.556   6.350 -0.9277  1.5718  0.3874
 4800SOL    HW219248   3.855   6.493   6.435  0.0521 -0.9319 -0.1322
 4801SOL     OW19249   7.643   4.859   7.001  0.4326 -0.0772 -0.1063
 4801SOL    HW119250   7.634   4.909   7.082  3.3397  0.7092 -0.1377
 4801SOL    HW219251   7.707   4.909   6.949 -0.0965 -1.4105 -2.1788
 4802SOL     OW19252   2.350   4.520   7.712 -0.3784 -0.4044 -0.1886
 4802SOL    HW119253   2.312   4.603   7.741  0.1868  0.7740 -2.6180
 4802SOL    HW219254   2.275   4.462   7.697 -0.7982 -0.2031  0.9720
 4803SOL     OW19255   4.161   5.962   4.820  0.1699  0.9340  0.6400
 4803SOL    HW119256   4.235   5.938   4.765  0.0613  0.3260  0.7577
 4803SOL    HW219257   4.147   6.055   4.801  0.5997  0.9144  0.1960
 4804SOL     OW19258   5.293   5.161   0.819 -0.2293 -0.0494  0.2477
 4804SOL    HW119259   5.339   5.241   0.793  1.4458 -0.9043  0.4382
 4804SOL    HW219260   5.352   5.119   0.882  0.2388 -2.7501 -1.7935
 4805SOL     OW19261   3.456   8.219   0.011  0.2140  0.0356 -0.1308
 4805SOL    HW119262   3.435   8.305  -0.027  1.0431 -0.2544 -1.3072
 4805SOL    HW219263   3.393   8.159  -0.029 -0.6071  0.1307  0.9724
 4806SOL     OW19264   1.396   6.319   1.027 -0.1861  0.6477 -0.5367
 4806SOL    HW119265   1.457   6.348   1.095  0.5237  0.2214 -0.9766
 4806SOL    HW219266   1.309   6.341   1.061  0.2485  2.0734 -0.2753
 4807SOL     OW19267   8.856   3.475   7.477 -0.2695  0.0704  0.5337
 4807SOL    HW119268   8.809   3.417   7.417 -0.6972  1.2500 -0.2922
 4807SOL    HW219269   8.821   3.452   7.564  0.9287 -2.2029  0.5175
 4808SOL     OW19270   2.316   1.277   7.923 -0.2938 -0.6186  0.7795
 4808SOL    HW119271   2.366   1.337   7.868 -1.0396  0.1283  0.8822
 4808SOL    HW219272   2.325   1.313   8.012 -1.3743 -0.1967  0.7356
 4809SOL     OW19273   1.853   8.325   0.803  0.3145 -0.5750  1.1946
 4809SOL    HW119274   1.761   8.340   0.780  0.5688 -0.8436 -0.0522
 4809SOL    HW219275   1.850   8.292   0.893 -0.7427  0.2317  1.4708
 4810SOL     OW19276   0.863   1.191   4.223  0.2327 -0.2222 -0.1052
 4810SOL    HW119277   0.803   1.116   4.224 -1.3329  0.9640  1.4404
 4810SOL    HW219278   0.856   1.228   4.311 -0.6292  2.8985 -1.3322
 4811SOL     OW19279   6.157   5.300   0.203  0.3781 -0.4699 -0.2977
 4811SOL    HW119280   6.129   5.289   0.112  1.4991  0.2286 -0.7534
 4811SOL    HW219281   6.241   5.345   0.197  0.1534  0.1949  1.1251
 4812SOL     OW19282   1.203   2.103   9.564 -0.1076  0.2434 -0.8099
 4812SOL    HW119283   1.204   2.041   9.637  0.1443  0.5190 -0.5762
 4812SOL    HW219284   1.141   2.066   9.502 -1.2934  0.6461  0.1070
 4813SOL     OW19285   3.986   6.049   1.394 -0.4197  0.3461 -0.5278
 4813SOL    HW119286   3.986   5.955   1.377 -0.1378  0.0131  1.1269
 4813SOL    HW219287   4.021   6.088   1.314 -3.6392 -0.6410 -2.5849
 4814SOL     OW19288   5.724   7.215   0.601  0.2880  0.1820 -0.4409
 4814SOL    HW119289   5.723   7.136   0.654 -0.1632  1.2702  1.2748
 4814SOL    HW219290   5.710   7.185   0.512 -2.0459 -1.5127  0.3971
 4815SOL     OW19291   7.517   7.014   9.577 -0.1267  0.6527  0.1384
 4815SOL    HW119292   7.572   7.008   9.656 -0.1572  2.5444  0.3553
 4815SOL    HW219293   7.473   6.929   9.572 -0.8652  0.7910  2.7324
 4816SOL     OW19294   9.743   7.997   7.513 -0.1542 -0.1877 -0.3848
 4816SOL    HW119295   9.765   8.063   7.579 -0.0203  0.4548 -1.0563
 4816SOL    HW219296   9.825   7.951   7.497  1.2194  2.8971 -3.6581
 4817SOL     OW19297   9.343   6.560   4.128 -0.2934  0.2809 -0.2743
 4817SOL    HW119298   9.280   6.616   4.174 -1.5974 -2.2746  1.2769
 4817SOL    HW219299   9.393   6.518   4.197  1.6678  0.6004 -1.4427
 4818SOL     OW19300   2.639   2.270   0.598  0.5914 -0.0919 -0.1228
 4818SOL    HW119301   2.733   2.276   0.584  0.3493  0.8521 -1.5683
 4818SOL    HW219302   2.600   2.295   0.514 -0.9560  0.1338  0.6172
 4819SOL     OW19303   6.292   4.415   9.497 -0.1703 -0.6401 -0.3891
 4819SOL    HW119304   6.296   4.464   9.579  0.7852 -0.0930 -0.7477
 4819SOL    HW219305   6.364   4.352   9.503  0.6713  0.2030 -1.2901
 4820SOL     OW19306   7.471   6.229   0.256  0.5550  0.2134 -0.0835
 4820SOL    HW119307   7.455   6.307   0.204  0.1462  0.0564 -0.1980
 4820SOL    HW219308   7.383   6.198   0.280  0.7443  0.4755  0.9869
 4821SOL     OW19309   7.644   9.753   2.797 -0.8402 -0.0889 -0.3718
 4821SOL    HW119310   7.633   9.845   2.776 -1.1325 -0.2937 -1.1194
 4821SOL    HW219311   7.729   9.729   2.760 -0.1741  0.1757  0.8981
 4822SOL     OW19312   7.813   1.982   6.540 -0.2321  0.6974  0.2039
 4822SOL    HW119313   7.823   1.997   6.446  2.5822 -0.7339  0.1832
 4822SOL    HW219314   7.865   2.052   6.581 -1.3955  1.2792  0.7287
 4823SOL     OW19315   3.004   1.979   9.540  0.2843 -0.2534 -0.1142
 4823SOL    HW119316   2.945   1.907   9.562  0.0071  0.2026  0.6617
 4823SOL    HW219317   3.075   1.937   9.490 -0.0996 -0.9858 -0.0596
 4824SOL     OW19318   2.729   7.468   9.073 -0.1514  0.5533 -0.1902
 4824SOL    HW119319   2.807   7.458   9.128  0.6013 -0.4928 -1.3996
 4824SOL    HW219320   2.670   7.399   9.103 -0.8196  1.6031  1.0028
 4825SOL     OW19321   3.489   0.465   8.296  0.2927  0.1115 -0.0950
 4825SOL    HW119322   3.575   0.460   8.256  1.7370 -0.6863  2.8907
 4825SOL    HW219323   3.484   0.554   8.331  0.8364 -0.4616  1.5344
 4826SOL     OW19324   8.286   4.537   2.608 -0.2844 -0.1780  0.1374
 4826SOL    HW119325   8.347   4.521   2.536  0.6759  0.9667  0.6579
 4826SOL    HW219326   8.232   4.610   2.577  0.5169  0.7147  0.7599
 4827SOL     OW19327   1.720   5.365   0.677 -0.3958  0.0031  0.6200
 4827SOL    HW119328   1.734   5.282   0.631 -0.9354 -1.5414  3.0224
 4827SOL    HW219329   1.807   5.404   0.684 -0.4740  1.1528 -2.9886
 4828SOL     OW19330   8.755   4.036   4.275  0.1700 -0.5246  0.2382
 4828SOL    HW119331   8.753   4.088   4.356  0.6610 -1.8742  1.1582
 4828SOL    HW219332   8.810   4.087   4.215  1.1268 -0.2473  1.3162
 4829SOL     OW19333   7.515   6.972   5.498  0.3772  0.0700 -0.2608
 4829SOL    HW119334   7.455   6.900   5.518  1.2064 -0.4087  0.6053
 4829SOL    HW219335   7.591   6.956   5.555  0.7581  1.3917 -0.3645
 4830SOL     OW19336   3.581   7.950   2.194 -0.0818 -0.3483 -0.2364
 4830SOL    HW119337   3.589   7.898   2.274  1.1230 -0.1327 -0.1880
 4830SOL    HW219338   3.502   8.001   2.205 -0.7962 -1.4931  0.1169
 4831SOL     OW19339   8.663   8.457   8.256  0.3255 -0.6289 -0.0877
 4831SOL    HW119340   8.758   8.464   8.262  0.1451  0.5336  3.0442
 4831SOL    HW219341   8.639   8.523   8.191  1.5134  0.9064  0.9586
 4832SOL     OW19342   9.260   2.496   9.425  0.5909 -0.0188  0.4246
 4832SOL    HW119343   9.251   2.403   9.444  0.5201 -0.3367 -1.0365
 4832SOL    HW219344   9.172   2.526   9.404  0.7362  0.1701  0.0613
 4833SOL     OW19345   3.857   9.519   7.220  0.3027 -0.1430  0.4390
 4833SOL    HW119346   3.888   9.538   7.132  0.2935  0.4771  0.5635
 4833SOL    HW219347   3.869   9.601   7.268 -1.2211  0.0160  0.5878
 4834SOL     OW19348   6.901   1.074   0.234 -0.2192 -0.2991  0.0084
 4834SOL    HW119349   6.995   1.076   0.217 -0.3355 -1.9336 -1.0642
 4834SOL    HW219350   6.892   1.107   0.323  1.3217  0.2056  0.0133
 4835SOL     OW19351   2.677   6.024   0.019  0.3944 -0.3119  0.5085
 4835SOL    HW119352   2.694   6.090   0.085  0.4139 -1.9812  2.2735
 4835SOL    HW219353   2.762   5.980   0.007  0.4766  0.1753 -0.9165
 4836SOL     OW19354   7.624   0.198   5.484 -0.3697 -0.2495 -0.1342
 4836SOL    HW119355   7.590   0.168   5.400  0.3383 -0.7992 -0.2332
 4836SOL    HW219356   7.702   0.248   5.462 -0.9315  0.7758  0.1114
 4837SOL     OW19357   3.331   5.097   7.584  0.1839  0.9065  0.7206
 4837SOL    HW119358   3.317   5.147   7.664 -0.4699 -0.6922  1.6650
 4837SOL    HW219359   3.286   5.014   7.600  0.3267  0.4200 -1.1837
 4838SOL     OW19360   4.714   4.361   7.761 -0.5250  0.3551 -0.0070
 4838SOL    HW119361   4.805   4.370   7.789  0.7986 -0.3862 -3.5216
 4838SOL    HW219362   4.678   4.449   7.766  0.8298  0.9259  0.1262
 4839SOL     OW19363   2.093   5.131   5.917  0.3335 -0.2100  0.5536
 4839SOL    HW119364   2.088   5.164   5.827 -0.0792 -0.1445  0.6011
 4839SOL    HW219365   2.054   5.043   5.913  1.5655 -0.7699  0.3976
 4840SOL     OW19366   6.142   0.063   6.736 -0.5692 -0.1231  0.3686
 4840SOL    HW119367   6.178   0.028   6.655 -2.2862 -0.1027 -0.4641
 4840SOL    HW219368   6.125   0.155   6.717 -0.8878 -0.0909  0.7818
 4841SOL     OW19369   3.952   4.529   4.259 -0.2545  0.0143  0.2106
 4841SOL    HW119370   3.882   4.584   4.225 -1.6109 -0.7039  1.6931
 4841SOL    HW219371   3.922   4.439   4.242 -1.4238 -0.4489  3.7296
 4842SOL     OW19372   0.373   8.784   5.293  0.3051  0.2077  0.7297
 4842SOL    HW119373   0.279   8.799   5.304  0.5139  0.9852  1.4600
 4842SOL    HW219374   0.391   8.814   5.204  0.0596  1.0123  0.9503
 4843SOL     OW19375   6.444   2.323   7.973 -1.0236  0.0092  0.8782
 4843SOL    HW119376   6.360   2.346   7.933  0.3224 -0.1458 -2.2975
 4843SOL    HW219377   6.509   2.344   7.906  1.5906  0.7248  3.4434
 4844SOL     OW19378   2.741   0.123   1.670  0.2368  0.3958 -0.0086
 4844SOL    HW119379   2.799   0.174   1.613  0.6476  1.9678  1.7010
 4844SOL    HW219380   2.654   0.136   1.633  0.5916  0.6544 -0.7845
 4845SOL     OW19381   1.722   0.467   8.701  0.4226  0.5198 -0.1755
 4845SOL    HW119382   1.711   0.503   8.613 -3.3169  3.9984  1.3923
 4845SOL    HW219383   1.650   0.405   8.710  1.7160 -1.0201  0.0506
 4846SOL     OW19384   8.721   0.739   3.936  0.0646 -0.2979  1.5681
 4846SOL    HW119385   8.725   0.716   4.029 -2.9384 -2.9112  1.2018
 4846SOL    HW219386   8.640   0.700   3.905 -1.3691  4.1344 -1.2802
 4847SOL     OW19387   5.742   7.211   7.991  0.4411  0.2356  0.2281
 4847SOL    HW119388   5.730   7.118   8.014  0.0103 -0.0749 -1.0957
 4847SOL    HW219389   5.660   7.234   7.947 -0.1372  1.7511  1.9905
 4848SOL     OW19390   7.618   8.401   8.554 -0.4817  0.6200 -0.2318
 4848SOL    HW119391   7.653   8.489   8.543  0.4957  0.6649  2.5773
 4848SOL    HW219392   7.686   8.343   8.519 -0.9989  0.9220 -1.8057
 4849SOL     OW19393   5.536   1.584   8.280 -0.0305  0.7606 -0.3571
 4849SOL    HW119394   5.469   1.593   8.347  0.7707  0.9139  0.4555
 4849SOL    HW219395   5.553   1.490   8.275 -0.4135  0.7085 -0.6751
 4850SOL     OW19396   2.179   0.784   3.014 -0.0997 -0.6074  0.1753
 4850SOL    HW119397   2.196   0.772   2.921 -1.5663  0.8931 -0.3482
 4850SOL    HW219398   2.245   0.846   3.044 -0.0247 -0.5923 -0.0243
 4851SOL     OW19399   0.825   5.035   9.474 -0.4870  0.2769 -0.3996
 4851SOL    HW119400   0.856   4.946   9.458  0.1048  0.4273 -0.0913
 4851SOL    HW219401   0.876   5.090   9.415 -1.9641  0.2525 -1.7674
 4852SOL     OW19402   2.276   9.208   9.647  0.0899 -0.3229 -0.1007
 4852SOL    HW119403   2.183   9.227   9.638  0.5048  1.1075 -2.1865
 4852SOL    HW219404   2.291   9.133   9.589  0.7940  1.7602 -2.8077
 4853SOL     OW19405   2.976   9.543   0.051  0.8124  0.5277  0.0794
 4853SOL    HW119406   2.975   9.608  -0.019 -0.6162  1.9146  1.3289
 4853SOL    HW219407   2.918   9.474   0.021  1.5123  0.2976 -0.7970
 4854SOL     OW19408   3.290   4.501   0.727 -0.1296  0.0649  0.3444
 4854SOL    HW119409   3.298   4.595   0.711 -1.7170  0.0211 -0.9526
 4854SOL    HW219410   3.207   4.491   0.772 -0.8028 -0.8457 -1.0409
 4855SOL     OW19411   6.970   2.328   3.909  0.0096  0.2343  0.4562
 4855SOL    HW119412   6.990   2.332   3.816 -1.4374  0.8358  0.1423
 4855SOL    HW219413   6.916   2.249   3.918 -1.3048  1.1049  0.4568
 4856SOL     OW19414   3.475   1.454   0.536 -0.2633 -0.3774  0.6440
 4856SOL    HW119415   3.453   1.410   0.454  0.7769 -1.5229  0.9485
 4856SOL    HW219416   3.536   1.394   0.580  0.5883  1.0063  1.4362
 4857SOL     OW19417   0.579   6.123   4.053 -0.0970 -0.5207 -0.2954
 4857SOL    HW119418   0.655   6.133   3.996 -0.7076 -0.7965 -1.1720
 4857SOL    HW219419   0.613   6.078   4.130  0.6985 -0.3021 -0.5062
 4858SOL     OW19420   1.985   3.237   3.243 -0.5751  0.4954  0.3443
 4858SOL    HW119421   2.027   3.284   3.315 -0.4612 -0.1499  0.7097
 4858SOL    HW219422   1.962   3.305   3.180 -0.6716  1.0758  0.9883
 4859SOL     OW19423   9.026   1.540   9.383  0.1347 -0.3563 -0.1622
 4859SOL    HW119424   9.055   1.627   9.357  0.4701 -1.0958 -2.4935
 4859SOL    HW219425   9.053   1.532   9.474  0.4988  1.7844 -0.0301
 4860SOL     OW19426   7.836   5.084   1.423  0.1591  0.0557  0.3570
 4860SOL    HW119427   7.872   5.032   1.495  1.8588 -0.2770 -0.6682
 4860SOL    HW219428   7.743   5.093   1.443  0.6778  0.4981  2.9068
 4861SOL     OW19429   2.266   3.080   6.925  0.1225 -0.4466  0.1971
 4861SOL    HW119430   2.216   2.998   6.923 -1.1617  0.2859 -2.2904
 4861SOL    HW219431   2.240   3.122   7.007 -1.5059 -1.2127  0.1137
 4862SOL     OW19432   9.073   4.940   7.441 -0.1120  0.0842 -0.0709
 4862SOL    HW119433   9.140   4.968   7.379 -0.0011 -0.4672 -0.2066
 4862SOL    HW219434   9.107   4.859   7.479 -1.4995 -1.2474 -1.5101
 4863SOL     OW19435   0.041   9.701   2.079 -0.0931  0.4822  0.3771
 4863SOL    HW119436   0.074   9.788   2.056  0.4269  0.2357  0.1835
 4863SOL    HW219437   0.093   9.641   2.027 -1.1655  0.1043 -0.2731
 4864SOL     OW19438   3.430   0.835   4.559 -0.7936  0.3876  0.0965
 4864SOL    HW119439   3.344   0.832   4.603 -1.7508 -1.2893 -1.6849
 4864SOL    HW219440   3.409   0.857   4.468  0.9571  2.2015  0.0771
 4865SOL     OW19441   1.086   2.049   5.884  0.3839 -0.4023  0.4301
 4865SOL    HW119442   1.118   2.023   5.798  0.1650  1.7321 -0.3386
 4865SOL    HW219443   1.151   2.112   5.916  0.8806 -1.7397  2.2156
 4866SOL     OW19444   2.563   2.719   3.822  0.0792  0.4068 -0.2303
 4866SOL    HW119445   2.521   2.665   3.889  0.5536 -0.6321 -0.7438
 4866SOL    HW219446   2.656   2.713   3.842  0.1758  0.5837 -0.6219
 4867SOL     OW19447   1.925   8.523   7.887 -0.8062 -0.4370 -0.3222
 4867SOL    HW119448   1.899   8.610   7.856  1.2241  0.3645  0.0030
 4867SOL    HW219449   1.970   8.540   7.970  0.8977 -1.5736 -0.9475
 4868SOL     OW19450   4.048   9.721   4.715 -0.8860 -0.1959 -0.0630
 4868SOL    HW119451   4.138   9.741   4.740 -0.9118  0.4849 -0.5171
 4868SOL    HW219452   4.050   9.714   4.620 -1.3977  0.2422 -0.1086
 4869SOL     OW19453   1.318   7.793   7.619  0.0573  0.7498 -0.1688
 4869SOL    HW119454   1.339   7.815   7.710 -0.8555  1.2221 -0.0646
 4869SOL    HW219455   1.237   7.743   7.625 -0.9389  2.2301 -0.8334
 4870SOL     OW19456   3.613   1.901   2.159 -0.3434 -0.2277  0.3735
 4870SOL    HW119457   3.682   1.929   2.098 -1.2506 -0.0775 -0.6226
 4870SOL    HW219458   3.644   1.818   2.193  0.4136 -0.0834  0.0706
 4871SOL     OW19459   0.926   8.017   3.923 -0.1874 -0.3587 -0.4290
 4871SOL    HW119460   0.912   7.938   3.975 -1.9252  0.4951  0.4618
 4871SOL    HW219461   0.895   7.994   3.836  0.0675 -0.8996 -0.3843
 4872SOL     OW19462   9.481   1.072   3.850  0.8369  0.3179 -0.0634
 4872SOL    HW119463   9.487   1.093   3.943  1.3782 -0.5869  0.1238
 4872SOL    HW219464   9.476   0.976   3.847  1.0278  0.3204 -0.9753
 4873SOL     OW19465   4.936   3.954   8.857  0.3843 -0.4902  0.1424
 4873SOL    HW119466   5.026   3.946   8.827  0.7677 -2.5583  1.6282
 4873SOL    HW219467   4.932   4.041   8.897  1.7031 -0.3662  0.0553
 4874SOL     OW19468   3.754   2.471   2.761 -0.7869  0.0876 -0.1437
 4874SOL    HW119469   3.690   2.446   2.694 -0.5738 -2.2642  0.4352
 4874SOL    HW219470   3.715   2.442   2.843  0.0071  0.7687  0.4938
 4875SOL     OW19471   1.249   8.115   2.659 -0.3702  0.1544 -0.0625
 4875SOL    HW119472   1.259   8.123   2.754  0.4065  2.0851 -0.2554
 4875SOL    HW219473   1.247   8.020   2.643  2.9263 -0.3595  1.5702
 4876SOL     OW19474   7.673   7.304   1.458 -0.2622 -0.3949  0.7042
 4876SOL    HW119475   7.635   7.351   1.531 -2.4895  1.0058 -1.2189
 4876SOL    HW219476   7.598   7.266   1.412  0.9194 -0.3109 -1.4356
 4877SOL     OW19477   3.049   5.174   8.708  0.2227 -0.8380  0.2490
 4877SOL    HW119478   3.087   5.197   8.792 -0.6020 -1.2262  0.7417
 4877SOL    HW219479   3.119   5.131   8.660  1.2754  1.0803 -0.0085
 4878SOL     OW19480   5.001   1.545   8.801 -0.0089 -0.1444 -0.6372
 4878SOL    HW119481   5.019   1.567   8.709 -0.5854 -2.4500 -1.3764
 4878SOL    HW219482   5.069   1.591   8.850 -1.0785  3.1337 -1.9067
 4879SOL     OW19483   2.700   3.998   4.545 -0.0384 -0.0243  0.0337
 4879SOL    HW119484   2.729   4.025   4.632 -0.8587  2.3219 -0.3297
 4879SOL    HW219485   2.760   4.044   4.485 -1.7905  1.5288 -0.6400
 4880SOL     OW19486   1.763   9.644   1.446 -0.3943  0.5284  0.1485
 4880SOL    HW119487   1.720   9.634   1.531 -0.7624 -1.8087 -0.2488
 4880SOL    HW219488   1.692   9.634   1.382  0.1622  0.4466 -0.4626
 4881SOL     OW19489   5.636   8.753   9.464  0.1556  0.0884 -1.0161
 4881SOL    HW119490   5.723   8.725   9.490 -0.5993  0.2422  2.1282
 4881SOL    HW219491   5.644   8.847   9.449  0.1497  0.6362  1.8259
 4882SOL     OW19492   4.997   7.216   1.134  0.9005 -0.8402  0.2273
 4882SOL    HW119493   5.000   7.217   1.229 -0.7484 -1.9614  0.3271
 4882SOL    HW219494   4.904   7.217   1.112  1.2083  2.3307 -1.4714
 4883SOL     OW19495   5.372   8.544   3.044 -0.8421  0.2329 -0.2472
 4883SOL    HW119496   5.303   8.501   3.093 -1.6343  1.5185 -0.1681
 4883SOL    HW219497   5.400   8.617   3.100 -0.4946  0.6396 -0.9315
 4884SOL     OW19498   1.816   9.428   0.511  0.5286 -0.0219 -0.3427
 4884SOL    HW119499   1.728   9.398   0.530 -0.3221  2.3009 -0.2405
 4884SOL    HW219500   1.803   9.510   0.462  2.5427  1.6992  1.7598
 4885SOL     OW19501   4.824   5.411   3.847  0.1638 -0.0740 -0.0510
 4885SOL    HW119502   4.743   5.401   3.896 -0.5581  1.6233 -0.8044
 4885SOL    HW219503   4.796   5.447   3.762  1.6186 -0.3125 -0.6618
 4886SOL     OW19504   5.599   2.024   4.127 -0.7364 -0.2358  0.0728
 4886SOL    HW119505   5.583   2.010   4.034 -0.5496 -3.0957  0.3807
 4886SOL    HW219506   5.686   2.062   4.131 -1.7660  2.4573 -0.9743
 4887SOL     OW19507   4.007   4.866   2.104 -0.6534  0.0764 -0.3819
 4887SOL    HW119508   3.967   4.939   2.057 -1.4776 -0.3424 -0.3487
 4887SOL    HW219509   3.968   4.787   2.065 -1.2995 -0.2852  0.9075
 4888SOL     OW19510   8.040   8.745   1.955 -0.3848  0.3639 -0.2427
 4888SOL    HW119511   8.020   8.815   2.017  0.8961  0.6855 -0.1561
 4888SOL    HW219512   8.129   8.718   1.978  0.3796  0.9306 -2.3417
 4889SOL     OW19513   1.817   5.983   1.285  0.1875  0.0040  0.0539
 4889SOL    HW119514   1.731   5.960   1.249  0.6185 -0.9778 -0.3947
 4889SOL    HW219515   1.833   6.072   1.253  0.0247 -0.3957 -1.2017
 4890SOL     OW19516   5.925   5.624   5.095  0.6280 -0.3971  0.2452
 4890SOL    HW119517   5.935   5.539   5.137  0.3052 -0.9292 -0.7285
 4890SOL    HW219518   5.870   5.607   5.019 -0.6177  0.9458  0.8153
 4891SOL     OW19519   0.351   0.852   2.748 -0.2560  0.1091  0.5124
 4891SOL    HW119520   0.267   0.894   2.729 -0.8763 -1.3412 -0.0708
 4891SOL    HW219521   0.414   0.897   2.692 -1.0902 -0.3894 -0.8772
 4892SOL     OW19522   3.095   2.939   6.016 -0.5151  0.3161  0.3320
 4892SOL    HW119523   3.139   2.855   6.028 -0.5881  0.4388  1.5328
 4892SOL    HW219524   3.004   2.917   5.998 -0.4726  0.1341  0.3414
 4893SOL     OW19525   8.688   7.740   2.804  0.1083 -0.4188  0.0594
 4893SOL    HW119526   8.643   7.820   2.776  0.2825  0.5486  2.2879
 4893SOL    HW219527   8.648   7.670   2.753 -0.7573  0.9628 -1.2444
 4894SOL     OW19528   5.068   4.530   2.638 -0.2453 -0.2502  0.1555
 4894SOL    HW119529   5.122   4.529   2.718 -0.1695 -1.3159  0.1026
 4894SOL    HW219530   5.131   4.528   2.567 -0.3345 -1.2873  0.0918
 4895SOL     OW19531   3.353   2.470   0.482  0.5684  0.0086 -0.2858
 4895SOL    HW119532   3.263   2.494   0.505  0.9596 -0.1226  1.4698
 4895SOL    HW219533   3.381   2.409   0.550  2.3737  0.9321 -0.1239
 4896SOL     OW19534   2.798   8.503   0.887 -0.2670  0.0713 -0.2300
 4896SOL    HW119535   2.873   8.445   0.874 -0.1087  0.1638  0.2660
 4896SOL    HW219536   2.826   8.565   0.954 -0.3444  0.8936 -0.9488
 4897SOL     OW19537   4.303   2.930   6.219 -0.5809 -0.5571  0.0913
 4897SOL    HW119538   4.269   2.939   6.130 -3.2737  2.8120  1.2328
 4897SOL    HW219539   4.393   2.963   6.213 -1.3467  1.4785 -1.1276
 4898SOL     OW19540   6.490   6.432   6.553  0.2998  0.3095 -0.0681
 4898SOL    HW119541   6.509   6.381   6.631  1.2101  2.8548  1.5154
 4898SOL    HW219542   6.576   6.456   6.519 -0.0371  2.2292  0.3242
 4899SOL     OW19543   3.043   0.716   0.274  0.1676 -0.2720 -0.3579
 4899SOL    HW119544   2.999   0.705   0.358 -1.6040  1.9349 -0.9136
 4899SOL    HW219545   3.136   0.704   0.294 -0.0811  1.4735  2.1972
 4900SOL     OW19546   7.084   5.812   6.760  0.0810  0.6191 -0.6302
 4900SOL    HW119547   7.128   5.892   6.789  1.4260  0.5337 -2.3058
 4900SOL    HW219548   7.015   5.798   6.825  2.6930  0.5465  2.3793
 4901SOL     OW19549   2.698   1.709   7.131 -0.5348 -0.5035 -0.4100
 4901SOL    HW119550   2.732   1.649   7.197  1.9391 -0.0937 -1.2060
 4901SOL    HW219551   2.677   1.653   7.056 -0.0752 -0.5950 -0.4718
 4902SOL     OW19552   5.307   0.346   9.519  0.1745  0.0623  0.3295
 4902SOL    HW119553   5.361   0.315   9.447 -0.0372  0.3428  0.0457
 4902SOL    HW219554   5.338   0.298   9.596  0.7024  0.0867  0.1340
 4903SOL     OW19555   9.101   5.229   4.331  0.2380  0.2464 -0.3430
 4903SOL    HW119556   9.178   5.283   4.314 -0.2255  1.0845  0.1609
 4903SOL    HW219557   9.032   5.267   4.277 -0.0568  0.0556 -0.1043
 4904SOL     OW19558   7.376   9.376   3.763  0.1744  0.3135 -0.4168
 4904SOL    HW119559   7.353   9.466   3.738  1.6315  1.1050  0.9352
 4904SOL    HW219560   7.461   9.384   3.806 -0.0806 -1.6004  0.5380
 4905SOL     OW19561   2.397   0.291   7.725  0.1612 -0.3119  0.7153
 4905SOL    HW119562   2.372   0.254   7.809 -2.4817  1.3753  0.7917
 4905SOL    HW219563   2.379   0.222   7.662  1.2538 -1.2551  1.4073
 4906SOL     OW19564   0.698   7.572   2.799 -0.2049  0.3182 -0.2402
 4906SOL    HW119565   0.632   7.601   2.736 -0.4614 -0.8862 -0.5485
 4906SOL    HW219566   0.748   7.651   2.819 -1.1490  1.0517 -0.7150
 4907SOL     OW19567   5.012   7.882   1.845 -0.2471 -0.1413 -0.3463
 4907SOL    HW119568   4.962   7.882   1.926  0.6303 -1.4829  0.2357
 4907SOL    HW219569   4.979   7.957   1.795  0.2096  1.6152  1.8665
 4908SOL     OW19570   7.487   1.237   0.983 -0.0109 -0.3354 -0.4823
 4908SOL    HW119571   7.540   1.157   0.994 -1.6602 -1.5315 -0.8795
 4908SOL    HW219572   7.443   1.248   1.067  0.6348  0.5130 -0.2376
 4909SOL     OW19573   3.992   7.868   9.692  0.2414  0.3849 -0.1327
 4909SOL    HW119574   4.003   7.960   9.717  0.6635  0.3513 -0.1914
 4909SOL    HW219575   3.967   7.871   9.600 -1.3915  0.5139  0.2829
 4910SOL     OW19576   7.897   8.465   2.642 -0.1123  0.2259 -0.1765
 4910SOL    HW119577   7.841   8.542   2.637 -0.2374  0.3238  1.8659
 4910SOL    HW219578   7.836   8.393   2.661  0.3778  0.3509  2.1594
 4911SOL     OW19579   9.561   8.411   1.310  0.0987  0.5180  0.3576
 4911SOL    HW119580   9.587   8.393   1.401  2.0468 -0.2828 -0.3095
 4911SOL    HW219581   9.603   8.494   1.289  1.0265 -0.1098 -0.3108
 4912SOL     OW19582   5.403   3.929   6.021  0.6300  0.1302 -0.0361
 4912SOL    HW119583   5.315   3.942   5.986  0.0744  1.2894  1.7269
 4912SOL    HW219584   5.408   3.985   6.098  2.7943 -0.1995  0.1301
 4913SOL     OW19585   3.707   8.936   1.164  0.6707  0.0761  0.5570
 4913SOL    HW119586   3.721   8.983   1.082 -0.2846  0.5314  0.6355
 4913SOL    HW219587   3.684   8.847   1.136 -0.6332  0.4818  0.2736
 4914SOL     OW19588   0.961   1.182   2.936  0.0315  0.4719  0.3606
 4914SOL    HW119589   0.989   1.152   2.850 -3.1911 -0.9063 -0.3494
 4914SOL    HW219590   1.040   1.219   2.976  1.6589  1.0986 -3.1212
 4915SOL     OW19591   8.141   5.839   8.176  0.2995 -0.3445 -0.0197
 4915SOL    HW119592   8.161   5.796   8.092  0.0793 -0.7651  0.1380
 4915SOL    HW219593   8.045   5.843   8.178  0.3104  1.9798 -0.9361
 4916SOL     OW19594   1.053   4.595   2.221 -0.1443 -0.0474 -0.1611
 4916SOL    HW119595   1.070   4.566   2.310 -0.6205  0.8462  0.2325
 4916SOL    HW219596   1.119   4.662   2.205  1.2152 -1.5499 -1.2099
 4917SOL     OW19597   0.427   7.340   9.708 -0.0308  0.1341  0.0150
 4917SOL    HW119598   0.341   7.304   9.683 -0.1560  1.3868 -1.5705
 4917SOL    HW219599   0.476   7.342   9.626  0.7506  1.4330  0.4909
 4918SOL     OW19600   2.299   1.637   1.011 -0.0322  0.3112 -0.5287
 4918SOL    HW119601   2.248   1.556   1.013  0.6497 -0.1195  0.1268
 4918SOL    HW219602   2.245   1.698   0.962 -0.3112 -0.7090 -1.5458
 4919SOL     OW19603   3.977   6.976   8.232  0.0699 -0.4074 -0.0419
 4919SOL    HW119604   4.000   7.030   8.156 -0.8873 -0.9239 -0.7294
 4919SOL    HW219605   3.890   7.006   8.257  0.0383 -0.8007  0.3335
 4920SOL     OW19606   9.337   3.790   1.729  0.2989 -0.3221 -0.1799
 4920SOL    HW119607   9.334   3.784   1.633  1.8591 -0.2722 -0.2480
 4920SOL    HW219608   9.384   3.872   1.746  2.9384 -1.8699  0.5792
 4921SOL     OW19609   5.900   1.618   0.080 -0.0013  0.3319  0.2053
 4921SOL    HW119610   5.825   1.584   0.031  0.0930 -1.3394  1.1604
 4921SOL    HW219611   5.934   1.688   0.024 -1.2612  0.0152 -1.0314
 4922SOL     OW19612   9.074   8.267   0.989  0.0536  0.3719 -0.0624
 4922SOL    HW119613   9.002   8.219   0.948  1.6451 -1.9998 -0.2742
 4922SOL    HW219614   9.044   8.358   0.991 -3.0931 -0.5431  0.2463
 4923SOL     OW19615   0.161   9.332   9.450 -0.1001 -0.2852 -0.3243
 4923SOL    HW119616   0.067   9.345   9.464  0.0942  0.4370  0.4020
 4923SOL    HW219617   0.166   9.264   9.383 -1.1334 -1.0009  0.2949
 4924SOL     OW19618   0.463   4.062   0.297 -0.1221 -0.3760  0.2092
 4924SOL    HW119619   0.416   4.015   0.228  1.7411 -0.8216 -0.8558
 4924SOL    HW219620   0.457   4.006   0.374  0.2056 -1.3247 -0.4333
 4925SOL     OW19621   0.352   1.916   0.689 -0.7971  0.4811  0.2357
 4925SOL    HW119622   0.355   1.957   0.602  2.9408 -0.6956 -0.3624
 4925SOL    HW219623   0.314   1.830   0.673  1.6748 -0.5187 -0.7603
 4926SOL     OW19624   3.616   5.753   4.542  0.2414  0.6952 -0.6477
 4926SOL    HW119625   3.551   5.744   4.473  0.7885  2.9685 -1.5477
 4926SOL    HW219626   3.600   5.840   4.579  2.3167  1.0535 -0.4478
 4927SOL     OW19627   8.084   9.080   3.529 -0.2529  0.3113  0.1138
 4927SOL    HW119628   8.156   9.054   3.472  0.8367 -0.2737  1.6771
 4927SOL    HW219629   8.019   9.011   3.518 -1.0981  1.3640 -2.0805
 4928SOL     OW19630   1.399   6.754   5.527  1.0244  0.1476 -0.3761
 4928SOL    HW119631   1.473   6.715   5.573  0.9307 -0.0580 -0.3990
 4928SOL    HW219632   1.437   6.786   5.445  0.8602 -1.1079 -0.9748
 4929SOL     OW19633   3.557   2.227   8.341 -0.5427  0.2033 -0.5470
 4929SOL    HW119634   3.621   2.266   8.400  0.1378 -0.0710 -1.0927
 4929SOL    HW219635   3.474   2.268   8.365 -0.1654  0.5578  0.1712
 4930SOL     OW19636   4.070   1.635   6.718  0.3662 -0.7022  0.0441
 4930SOL    HW119637   4.066   1.716   6.667 -1.6828  1.5912  3.4482
 4930SOL    HW219638   4.005   1.578   6.676  0.2711  0.2400 -1.1550
 4931SOL     OW19639   1.013   3.943   9.356  0.0055 -0.0165 -0.2961
 4931SOL    HW119640   1.028   4.034   9.381  1.7496 -0.3569 -0.0313
 4931SOL    HW219641   1.072   3.927   9.283 -0.8638 -0.7215 -0.8630
 4932SOL     OW19642   4.950   9.221   4.639 -0.4296  0.4479  0.4782
 4932SOL    HW119643   4.874   9.178   4.601 -0.2366 -0.7746  1.4005
 4932SOL    HW219644   4.921   9.311   4.656 -1.5834  0.0793  0.5620
 4933SOL     OW19645   2.981   4.591   6.565 -0.3508  0.8456 -0.5359
 4933SOL    HW119646   3.037   4.524   6.526  0.3303  0.9934  0.1778
 4933SOL    HW219647   3.031   4.672   6.555  0.7062  0.6317  2.2751
 4934SOL     OW19648   9.179   4.190   4.217 -0.5273  0.5180 -0.2516
 4934SOL    HW119649   9.131   4.239   4.284 -2.2691  0.4808 -1.3998
 4934SOL    HW219650   9.261   4.238   4.206 -0.2009  0.5332  1.8559
 4935SOL     OW19651   4.089   1.542   8.491  0.1739  0.0581 -0.0713
 4935SOL    HW119652   4.178   1.509   8.502 -0.4597 -1.5203  0.5924
 4935SOL    HW219653   4.064   1.517   8.402 -0.2535 -1.2303  0.3820
 4936SOL     OW19654   3.484   7.394   6.800  0.4715  0.1160  0.4608
 4936SOL    HW119655   3.481   7.469   6.741  3.1277  0.8819  1.1577
 4936SOL    HW219656   3.470   7.431   6.887 -1.4416 -0.7179  0.5469
 4937SOL     OW19657   0.626   3.790   7.057  0.3990 -0.7828 -0.1927
 4937SOL    HW119658   0.565   3.731   7.014  0.6581 -1.5500  0.4773
 4937SOL    HW219659   0.591   3.877   7.039 -0.3420 -1.1629 -0.6450
 4938SOL     OW19660   8.679   0.390   1.879 -0.3316  0.2527  0.4756
 4938SOL    HW119661   8.586   0.400   1.859 -0.4529 -2.6530 -1.0699
 4938SOL    HW219662   8.721   0.378   1.793  1.5405  1.6232  1.1179
 4939SOL     OW19663   9.090   0.636   0.189 -0.3025  0.7605 -0.2943
 4939SOL    HW119664   9.165   0.617   0.245 -0.8260 -0.0129  0.1677
 4939SOL    HW219665   9.110   0.721   0.151  1.1577  0.2339 -0.7851
 4940SOL     OW19666   4.498   6.006   6.695 -0.2400 -0.1317  0.0033
 4940SOL    HW119667   4.456   5.920   6.701  0.1857 -0.3110  0.5131
 4940SOL    HW219668   4.561   6.006   6.768 -0.4910  0.7480  0.2243
 4941SOL     OW19669   2.836   8.188   6.449 -0.0048  0.2880  0.0906
 4941SOL    HW119670   2.847   8.094   6.461 -0.2878 -0.0163 -1.8252
 4941SOL    HW219671   2.858   8.226   6.534  1.5214 -1.3897  0.4840
 4942SOL     OW19672   0.774   6.463   2.470 -0.1216 -0.3048 -0.4010
 4942SOL    HW119673   0.861   6.504   2.473  0.0660 -0.7534  0.9912
 4942SOL    HW219674   0.757   6.436   2.561 -1.8443  0.0343 -0.5877
 4943SOL     OW19675   2.022   0.061   4.670 -0.1374  0.0245 -0.1994
 4943SOL    HW119676   2.101   0.021   4.704  0.9327  0.2891 -2.1851
 4943SOL    HW219677   2.046   0.153   4.655 -1.0995  0.3216  0.0139
 4944SOL     OW19678   6.413   1.081   3.337  0.1149 -0.0737 -0.3751
 4944SOL    HW119679   6.354   1.012   3.307 -1.6338  0.8427  0.7158
 4944SOL    HW219680   6.376   1.107   3.422  0.9197  1.9467 -0.6044
 4945SOL     OW19681   4.553   4.834   6.654  0.1624 -0.5207  0.0225
 4945SOL    HW119682   4.498   4.911   6.673  1.3031  0.0725  1.0175
 4945SOL    HW219683   4.524   4.768   6.716  1.6237  0.3311  1.7047
 4946SOL     OW19684   1.624   3.042   1.626 -0.0911 -0.3530  0.2288
 4946SOL    HW119685   1.673   2.997   1.695  2.1199 -0.8145 -1.5579
 4946SOL    HW219686   1.687   3.102   1.586 -0.4506 -1.9825 -3.0921
 4947SOL     OW19687   3.046   0.398   7.100  0.4892 -0.1684 -0.0503
 4947SOL    HW119688   2.973   0.451   7.132  1.1210  1.2685 -0.8768
 4947SOL    HW219689   3.006   0.335   7.040 -0.0421  0.9893 -0.9545
 4948SOL     OW19690   2.011   0.066   5.573  0.1493 -0.2731 -0.1448
 4948SOL    HW119691   2.100   0.094   5.553  0.0912 -0.8231 -1.2529
 4948SOL    HW219692   1.955   0.134   5.536  0.0535 -1.0887 -1.5574
 4949SOL     OW19693   8.776   1.033   5.228 -0.6587 -0.3159 -0.1089
 4949SOL    HW119694   8.780   1.035   5.323 -0.8794  2.0254 -0.0793
 4949SOL    HW219695   8.864   1.059   5.200 -1.1921  1.2733 -0.4441
 4950SOL     OW19696   1.421   4.933   2.990 -0.1540 -0.1085 -0.1792
 4950SOL    HW119697   1.381   4.969   3.069  0.5611  1.5663 -0.5449
 4950SOL    HW219698   1.498   4.886   3.021  0.3909  0.9425  0.1016
 4951SOL     OW19699   9.151   9.210   1.447 -0.7152  0.4991 -0.1241
 4951SOL    HW119700   9.082   9.165   1.497  0.7960  0.3662  1.9938
 4951SOL    HW219701   9.195   9.140   1.399 -0.5446  0.2100  0.4428
 4952SOL     OW19702   5.704   3.363   7.697  0.8280 -0.5856  0.0951
 4952SOL    HW119703   5.659   3.439   7.659 -1.1298 -1.3383  0.7909
 4952SOL    HW219704   5.733   3.313   7.621 -0.7336 -0.7479 -0.4429
 4953SOL     OW19705   0.401   1.474   3.314 -0.3287 -0.3378  0.2468
 4953SOL    HW119706   0.411   1.563   3.280 -1.9507  0.3573  1.4473
 4953SOL    HW219707   0.306   1.458   3.312 -0.4978 -0.5179  3.6159
 4954SOL     OW19708   0.957   5.978   8.663 -0.1148  0.3339  1.0534
 4954SOL    HW119709   1.022   6.039   8.700  0.2330  0.4483  0.2827
 4954SOL    HW219710   0.957   5.998   8.570 -1.5843  0.6233  1.1012
 4955SOL     OW19711   5.520   0.848   9.409  0.0783 -0.0401  0.1063
 4955SOL    HW119712   5.574   0.780   9.450  0.2354  1.0550  1.8136
 4955SOL    HW219713   5.582   0.917   9.387 -0.1522 -0.2093 -1.1901
 4956SOL     OW19714   5.264   3.178   5.545 -0.0243  0.8072 -0.2127
 4956SOL    HW119715   5.340   3.120   5.546  0.7388  1.7632  0.7479
 4956SOL    HW219716   5.198   3.132   5.596  0.2694  0.4014 -0.1947
 4957SOL     OW19717   0.474   2.093   4.468 -0.5253 -0.4921 -0.1313
 4957SOL    HW119718   0.548   2.150   4.485 -0.7531 -0.4966  0.9504
 4957SOL    HW219719   0.506   2.005   4.488 -0.6108 -0.5756 -0.3591
 4958SOL     OW19720   9.037   5.086   1.793 -0.0142  0.1338 -0.6899
 4958SOL    HW119721   9.115   5.060   1.842 -0.7123  0.1466  0.4583
 4958SOL    HW219722   8.977   5.012   1.804  0.2887 -0.4463 -2.6481
 4959SOL     OW19723   6.365   5.076   7.153 -0.1079  0.0233 -0.1446
 4959SOL    HW119724   6.350   5.017   7.079 -0.8823 -0.5305  0.4411
 4959SOL    HW219725   6.436   5.035   7.203  0.3736  0.3669 -0.5296
 4960SOL     OW19726   9.274   9.377   4.594  0.0759  0.8222  1.2963
 4960SOL    HW119727   9.352   9.322   4.598 -1.0054 -0.7533  2.0718
 4960SOL    HW219728   9.249   9.378   4.502 -0.2169 -0.5251  1.3480
 4961SOL     OW19729   9.253   4.035   3.486  0.0689 -0.1868 -0.0042
 4961SOL    HW119730   9.178   3.976   3.479 -0.7392  0.9819 -2.1058
 4961SOL    HW219731   9.301   4.023   3.404  0.2475  1.5342 -0.1968
 4962SOL     OW19732   3.364   6.236   8.569 -0.1238  0.0993  0.1640
 4962SOL    HW119733   3.444   6.184   8.582 -1.4985 -2.0597  0.5392
 4962SOL    HW219734   3.393   6.313   8.520  2.1526 -0.6730  0.1648
 4963SOL     OW19735   4.963   5.777   3.902 -0.0066  0.8079  0.8239
 4963SOL    HW119736   4.870   5.767   3.884 -0.0989 -0.6865  1.9481
 4963SOL    HW219737   4.986   5.700   3.954  1.5604  1.7984  1.6996
 4964SOL     OW19738   1.926   2.515   5.182 -0.3275 -0.5389  1.0266
 4964SOL    HW119739   1.866   2.486   5.114 -0.8193  0.1200  1.1755
 4964SOL    HW219740   2.009   2.473   5.159 -0.2157  0.4472 -0.5602
 4965SOL     OW19741   3.121   0.073   1.507 -0.4329  0.1677 -0.0662
 4965SOL    HW119742   3.080   0.003   1.456  2.2722 -1.1154 -0.6359
 4965SOL    HW219743   3.081   0.066   1.594  1.0034 -3.3449  0.4354
 4966SOL     OW19744   2.372   3.728   5.212 -0.6040  0.1607  0.0577
 4966SOL    HW119745   2.425   3.780   5.151  0.1683 -0.0235  0.5509
 4966SOL    HW219746   2.352   3.648   5.164 -0.0596  0.0487  0.0079
 4967SOL     OW19747   7.004   7.315   3.052 -0.3658  0.0039 -0.1885
 4967SOL    HW119748   7.055   7.248   3.097  1.0911  1.3133  0.1960
 4967SOL    HW219749   7.044   7.322   2.966 -0.1651  0.7379 -0.0393
 4968SOL     OW19750   0.280   2.332   3.359  0.0129 -0.1736  0.2257
 4968SOL    HW119751   0.246   2.330   3.449  1.6173 -0.5012  0.8595
 4968SOL    HW219752   0.250   2.250   3.320  2.2594 -1.8102  1.6639
 4969SOL     OW19753   6.034   7.152   4.812  0.4063 -0.5822  0.2445
 4969SOL    HW119754   6.058   7.064   4.840  0.7547 -0.4731  0.2950
 4969SOL    HW219755   6.098   7.209   4.855  1.4325 -0.4685 -1.3204
 4970SOL     OW19756   9.045   6.070   9.400  0.1974 -0.1181  0.4207
 4970SOL    HW119757   9.054   6.159   9.433  3.8823 -0.0368 -0.3983
 4970SOL    HW219758   9.012   6.081   9.311  1.4440  0.5423  0.0215
 4971SOL     OW19759   5.193   0.987   9.149  0.6357 -0.1414  0.0558
 4971SOL    HW119760   5.171   1.075   9.116  1.5233 -0.1339 -0.5610
 4971SOL    HW219761   5.289   0.982   9.142  0.5173 -1.5551 -0.9692
 4972SOL     OW19762   1.010   9.309   2.600 -0.4962 -0.1856 -0.5557
 4972SOL    HW119763   1.001   9.234   2.540 -0.5664  0.0611 -0.8551
 4972SOL    HW219764   1.065   9.371   2.552 -1.0259  0.2563 -0.5932
 4973SOL     OW19765   0.888   7.394   6.619  0.7087  0.0364  0.2970
 4973SOL    HW119766   0.913   7.484   6.602  1.6413 -0.2768 -0.0424
 4973SOL    HW219767   0.830   7.399   6.695  2.0704  0.7775  1.3345
 4974SOL     OW19768   3.890   8.709   0.744  0.5525  0.3211 -0.6990
 4974SOL    HW119769   3.891   8.620   0.709  1.2391 -1.5972  3.4527
 4974SOL    HW219770   3.982   8.736   0.743  0.3561  0.9896 -1.8736
 4975SOL     OW19771   1.286   2.139   0.300  0.3394  0.1773  0.4853
 4975SOL    HW119772   1.283   2.233   0.282  0.6187  0.6248  2.5713
 4975SOL    HW219773   1.225   2.126   0.373  0.4167 -1.2468  0.3242
 4976SOL     OW19774   1.476   4.874   9.165  0.0265  0.0678  0.1748
 4976SOL    HW119775   1.490   4.918   9.249  0.3954 -0.6543  0.4983
 4976SOL    HW219776   1.535   4.799   9.167  1.5098  1.1026 -1.5496
 4977SOL     OW19777   9.486   0.108   6.706  0.1636 -0.0612  0.2162
 4977SOL    HW119778   9.521   0.183   6.753 -1.1658 -0.3036  1.6960
 4977SOL    HW219779   9.557   0.080   6.649  0.5125  2.6369 -0.8296
 4978SOL     OW19780   8.743   3.376   0.058  0.2098 -0.2074  0.5180
 4978SOL    HW119781   8.793   3.457   0.046 -1.7265  0.9666 -0.2537
 4978SOL    HW219782   8.769   3.320  -0.015  0.8029  0.1538  0.4469
 4979SOL     OW19783   2.711   3.899   6.675 -1.1980 -0.6197 -0.0201
 4979SOL    HW119784   2.738   3.945   6.596  1.7337 -1.2516  0.5095
 4979SOL    HW219785   2.645   3.956   6.714 -1.6953  0.3804 -2.1700
 4980SOL     OW19786   4.225   9.544   8.879 -0.0413  0.0723  0.2701
 4980SOL    HW119787   4.265   9.613   8.827  0.8336 -0.6244 -0.0056
 4980SOL    HW219788   4.156   9.588   8.929  0.2723  1.0669 -0.1566
 4981SOL     OW19789   8.236   3.364   3.958  0.2718 -0.9670  0.5432
 4981SOL    HW119790   8.326   3.341   3.983  0.5564 -0.6853 -0.2047
 4981SOL    HW219791   8.220   3.315   3.877  0.8267  1.2483 -0.9970
 4982SOL     OW19792   8.114   8.162   8.615 -0.2446  0.2790 -0.2492
 4982SOL    HW119793   8.068   8.096   8.563 -1.2820  0.3445  0.5740
 4982SOL    HW219794   8.161   8.215   8.550 -1.0514 -0.0009 -1.0739
 4983SOL     OW19795   7.074   1.369   2.129 -0.4656  0.1215  0.1217
 4983SOL    HW119796   7.164   1.343   2.114  0.0784  0.9957  1.6911
 4983SOL    HW219797   7.080   1.447   2.184 -2.1554  0.8548 -0.6460
 4984SOL     OW19798   0.804   1.124   1.002  0.7345  0.1189  0.4001
 4984SOL    HW119799   0.871   1.111   0.934  1.0583  1.8169  0.3592
 4984SOL    HW219800   0.774   1.213   0.989 -2.1901 -0.8478 -0.1062
 4985SOL     OW19801   0.605   7.297   8.202  0.7558 -0.7659  0.4784
 4985SOL    HW119802   0.583   7.326   8.114  1.0688  0.0691  0.6696
 4985SOL    HW219803   0.549   7.221   8.217 -1.1870  0.6157  0.5350
 4986SOL     OW19804   6.795   6.766   3.258 -0.2970  0.2327  0.3437
 4986SOL    HW119805   6.733   6.764   3.186 -0.2912  0.4333  0.3304
 4986SOL    HW219806   6.876   6.801   3.219 -1.3094  4.0311  1.1636
 4987SOL     OW19807   8.120   9.454   1.430  0.0242  0.0862  0.7103
 4987SOL    HW119808   8.044   9.443   1.374 -2.0543  1.6223  3.0350
 4987SOL    HW219809   8.176   9.517   1.384 -0.8954  0.1806 -0.2999
 4988SOL     OW19810   4.457   3.770   3.991  0.2159  0.1779 -0.1594
 4988SOL    HW119811   4.451   3.762   3.895  1.5916 -2.2615 -0.1466
 4988SOL    HW219812   4.391   3.834   4.014 -1.6014 -0.6510 -2.5852
 4989SOL     OW19813   3.510   2.699   9.562 -0.3968  0.5256  0.0560
 4989SOL    HW119814   3.546   2.787   9.551 -0.0038  0.2233 -1.2611
 4989SOL    HW219815   3.564   2.659   9.630 -1.1914  1.5999  1.3622
 4990SOL     OW19816   3.483   5.247   7.989  0.0772  0.5215 -0.2484
 4990SOL    HW119817   3.427   5.263   7.913  0.2068  0.3545 -0.3796
 4990SOL    HW219818   3.436   5.182   8.040 -0.2728  1.0317  0.0975
 4991SOL     OW19819   8.616   6.487   1.664  0.2174  0.5980  0.3072
 4991SOL    HW119820   8.564   6.549   1.614 -0.2779 -0.8145 -1.0199
 4991SOL    HW219821   8.707   6.507   1.642  0.0887  1.0984  0.2207
 4992SOL     OW19822   5.790   2.999   3.969  0.3698 -0.5664 -0.2105
 4992SOL    HW119823   5.818   2.907   3.970  0.8057 -0.4503 -0.8452
 4992SOL    HW219824   5.695   2.996   3.980  0.4365 -1.0644  0.2604
 4993SOL     OW19825   8.726   4.826   0.730 -0.2717 -0.0349 -0.2607
 4993SOL    HW119826   8.770   4.762   0.786  0.0714  1.7463  1.6282
 4993SOL    HW219827   8.691   4.774   0.658 -1.0445 -2.5264  1.7611
 4994SOL     OW19828   5.666   5.307   2.337  0.0454  0.3167  0.2055
 4994SOL    HW119829   5.698   5.273   2.254 -1.3434  1.0633 -0.6801
 4994SOL    HW219830   5.583   5.351   2.315  0.1406  1.4030  1.8049
 4995SOL     OW19831   4.758   7.729   0.377 -0.1945 -0.3431 -0.1861
 4995SOL    HW119832   4.666   7.717   0.401  0.0924 -2.6193  0.0307
 4995SOL    HW219833   4.756   7.763   0.288 -1.2905 -2.8633 -1.1993
 4996SOL     OW19834   6.535   0.847   4.589  0.1086  0.8306 -0.4725
 4996SOL    HW119835   6.555   0.755   4.605  1.4270  0.8581 -1.7794
 4996SOL    HW219836   6.618   0.886   4.562 -0.1257  2.7094  1.2208
 4997SOL     OW19837   1.068   7.694   0.128 -0.2735 -0.2136  0.3297
 4997SOL    HW119838   1.133   7.668   0.063  0.3547 -0.4515  1.0465
 4997SOL    HW219839   0.984   7.678   0.085  0.1271 -0.9312 -0.2038
 4998SOL     OW19840   3.166   1.394   3.979 -0.7052  0.5157 -0.0817
 4998SOL    HW119841   3.172   1.451   4.056  0.9183  1.2454 -0.7129
 4998SOL    HW219842   3.134   1.451   3.909 -0.5148  0.2940 -0.3541
 4999SOL     OW19843   4.676   0.508   3.142 -0.0251 -0.0643 -0.4263
 4999SOL    HW119844   4.632   0.509   3.058 -0.7609  0.8806 -0.0404
 4999SOL    HW219845   4.617   0.461   3.200 -0.9575  1.8676  0.2851
 5000SOL     OW19846   2.510   4.929   4.937 -0.0254 -0.5972  0.2480
 5000SOL    HW119847   2.529   4.928   4.843  0.0697 -0.8625  0.2696
 5000SOL    HW219848   2.470   5.015   4.952  0.3107 -0.4025  0.0363
 5001SOL     OW19849   5.171   0.051   1.762 -1.0830  0.2375  0.5642
 5001SOL    HW119850   5.109   0.083   1.828  0.8437 -1.0116  3.1474
 5001SOL    HW219851   5.183  -0.042   1.782 -1.0638 -0.4623 -2.1877
 5002SOL     OW19852   5.820   1.179   8.613  0.3182 -0.3589 -0.0098
 5002SOL    HW119853   5.818   1.151   8.521  1.5953 -0.2757 -0.0837
 5002SOL    HW219854   5.771   1.111   8.659 -0.7204 -0.1697 -0.8010
 5003SOL     OW19855   0.499   5.150   4.968 -0.3556 -0.2804 -0.0910
 5003SOL    HW119856   0.475   5.241   4.981  0.8576 -0.0361  0.6628
 5003SOL    HW219857   0.483   5.133   4.875 -2.4889  0.0788  0.1632
 5004SOL     OW19858   4.560   3.761   6.510 -0.6783  0.1929  0.3408
 5004SOL    HW119859   4.638   3.798   6.469 -0.7570 -0.1447 -0.1238
 5004SOL    HW219860   4.538   3.822   6.579  0.2072  0.1132  0.7092
 5005SOL     OW19861   6.581   5.694   4.984  0.1715  0.2358 -0.0786
 5005SOL    HW119862   6.497   5.669   5.024 -0.2883 -0.8966 -1.6453
 5005SOL    HW219863   6.570   5.786   4.962 -0.2847  0.3586  0.6250
 5006SOL     OW19864   5.654   5.107   4.219 -0.2697 -0.1974 -0.0435
 5006SOL    HW119865   5.669   5.041   4.287  0.4168 -0.1729 -0.1722
 5006SOL    HW219866   5.612   5.180   4.266  0.0471 -0.2501  0.3232
 5007SOL     OW19867   8.548   9.191   3.377 -0.1615  0.3573 -0.1727
 5007SOL    HW119868   8.631   9.235   3.393  0.0420  0.3950 -1.2747
 5007SOL    HW219869   8.528   9.147   3.460  1.4122 -0.4133 -0.1608
 5008SOL     OW19870   0.007   8.206   7.091 -0.0543 -0.2880  0.8036
 5008SOL    HW119871   0.027   8.167   7.006 -0.8358  1.4970 -0.2587
 5008SOL    HW219872  -0.014   8.132   7.147  0.0382 -1.4878 -0.6859
 5009SOL     OW19873   0.618   7.950   9.697  0.5062  0.4857  0.5519
 5009SOL    HW119874   0.645   8.021   9.756  2.6511 -0.0382  0.2821
 5009SOL    HW219875   0.641   7.870   9.744  0.8301  0.0353 -0.3561
 5010SOL     OW19876   2.125   7.546   0.087 -0.1000 -0.0344  0.1316
 5010SOL    HW119877   2.202   7.588   0.125  0.1503  0.3473 -0.7816
 5010SOL    HW219878   2.149   7.454   0.078  0.9511  0.3907 -1.8454
 5011SOL     OW19879   9.499   8.153   9.715  0.2614  0.2664  0.6976
 5011SOL    HW119880   9.474   8.125   9.627  0.6771 -1.6314  1.1237
 5011SOL    HW219881   9.590   8.180   9.707  0.2122  0.3774  0.5004
 5012SOL     OW19882   8.996   0.860   5.484 -0.2807  0.0518 -0.3934
 5012SOL    HW119883   8.950   0.840   5.402 -0.1197  0.6797 -0.6469
 5012SOL    HW219884   9.049   0.938   5.463 -0.4261  0.3665  0.3805
 5013SOL     OW19885   0.786   6.700   2.100 -0.7515 -0.1220 -0.6771
 5013SOL    HW119886   0.845   6.710   2.026 -0.3894  1.0033 -0.2609
 5013SOL    HW219887   0.832   6.741   2.173 -0.8274 -1.7395  0.3415
 5014SOL     OW19888   8.107   4.196   4.321  0.4278 -0.1737 -0.2926
 5014SOL    HW119889   8.178   4.184   4.385  0.5371 -0.5453 -0.4785
 5014SOL    HW219890   8.031   4.220   4.374  0.7788  0.5974 -0.1211
 5015SOL     OW19891   4.279   6.667   2.613 -0.2274  0.6309  0.2313
 5015SOL    HW119892   4.273   6.634   2.703  0.1822 -1.2586 -0.3832
 5015SOL    HW219893   4.357   6.723   2.613 -0.2947  0.7281  1.0881
 5016SOL     OW19894   7.417   9.319   7.794 -0.1224  0.0941  0.0521
 5016SOL    HW119895   7.373   9.349   7.714 -1.4724 -0.8124  0.4119
 5016SOL    HW219896   7.347   9.280   7.846  1.2243 -2.1292  0.3477
 5017SOL     OW19897   6.635   8.327   9.369  0.1007 -0.5244 -0.5183
 5017SOL    HW119898   6.650   8.394   9.437 -0.0920 -1.0838  0.0821
 5017SOL    HW219899   6.718   8.323   9.321  0.2395 -0.1201 -0.3194
 5018SOL     OW19900   3.039   6.145   8.079  0.0358 -0.4633  1.1615
 5018SOL    HW119901   3.084   6.076   8.128  0.2727  0.5356  2.4129
 5018SOL    HW219902   3.073   6.226   8.115  0.9630  0.3690 -1.3903
 5019SOL     OW19903   3.427   4.228   1.393  0.2594 -0.9737  0.2408
 5019SOL    HW119904   3.487   4.273   1.334  1.7351 -2.0857  0.8564
 5019SOL    HW219905   3.346   4.218   1.342  1.3471 -1.5352 -1.4408
 5020SOL     OW19906   1.433   9.520   7.713  0.2604  0.1485  0.3378
 5020SOL    HW119907   1.401   9.432   7.694  1.1419  0.0348 -0.6793
 5020SOL    HW219908   1.400   9.573   7.641  0.2309  0.5393  0.6372
 5021SOL     OW19909   5.575   1.601   7.102 -0.2701  0.8220 -0.1787
 5021SOL    HW119910   5.662   1.561   7.103 -0.2175  0.9401  1.1321
 5021SOL    HW219911   5.532   1.564   7.024  1.1037  1.1384 -1.1280
 5022SOL     OW19912   7.324   6.398   6.112  0.5148 -0.4532 -0.4846
 5022SOL    HW119913   7.370   6.477   6.141 -3.0298  1.7395 -0.2550
 5022SOL    HW219914   7.291   6.359   6.192 -0.5392 -0.2529 -0.8072
 5023SOL     OW19915   5.392   5.604   7.368 -0.2201  0.3085 -0.4773
 5023SOL    HW119916   5.391   5.540   7.297  0.3086 -0.7193  0.4137
 5023SOL    HW219917   5.449   5.566   7.434 -1.1224  0.9801  0.7350
 5024SOL     OW19918   8.509   2.917   6.561  0.0319 -0.0353 -0.0662
 5024SOL    HW119919   8.493   2.901   6.654  1.5372 -0.6456  0.1305
 5024SOL    HW219920   8.440   2.869   6.516  1.1543 -2.5659  0.7009
 5025SOL     OW19921   5.275   8.367   4.497 -0.1188 -0.9597  0.0594
 5025SOL    HW119922   5.326   8.309   4.554  1.2701  0.1831  0.0237
 5025SOL    HW219923   5.206   8.401   4.555  0.7685 -0.4647  0.8551
 5026SOL     OW19924   8.919   8.459   0.683 -0.3600  0.0113  0.1239
 5026SOL    HW119925   8.892   8.468   0.774 -2.5550 -0.9599 -0.3559
 5026SOL    HW219926   8.933   8.365   0.672  1.1035  0.2579 -0.2474
 5027SOL     OW19927   7.272   8.396   7.319  0.1413 -0.2447 -0.0539
 5027SOL    HW119928   7.325   8.369   7.394 -1.9723 -5.3637 -0.0439
 5027SOL    HW219929   7.299   8.338   7.248 -2.9625 -0.6961 -1.0029
 5028SOL     OW19930   4.335   3.275   3.943  0.2176 -0.0229  0.1478
 5028SOL    HW119931   4.427   3.270   3.968  0.2163  0.9125  0.3844
 5028SOL    HW219932   4.318   3.369   3.933 -0.3997 -0.2338 -1.0484
 5029SOL     OW19933   6.661   6.381   0.512 -0.0131  0.4781  0.1750
 5029SOL    HW119934   6.645   6.372   0.606 -0.4391 -1.3348 -0.0300
 5029SOL    HW219935   6.582   6.344   0.471  1.4407 -1.7067 -0.8693
 5030SOL     OW19936   0.015   7.987   1.274 -0.2138  0.5186  0.5498
 5030SOL    HW119937   0.088   8.042   1.303  0.3910 -0.0013  0.0217
 5030SOL    HW219938   0.043   7.898   1.292 -0.5673  0.2960  0.0167
 5031SOL     OW19939   7.643   4.865   9.614 -0.2541  0.2789  0.5769
 5031SOL    HW119940   7.692   4.908   9.544  2.4352 -0.8909  1.6439
 5031SOL    HW219941   7.620   4.937   9.674 -2.4516  1.2675 -1.2902
 5032SOL     OW19942   5.916   2.738   3.962  0.2655  0.4335 -0.6634
 5032SOL    HW119943   5.952   2.740   3.873  0.6226 -0.4172 -0.5471
 5032SOL    HW219944   5.993   2.733   4.019  0.1579  2.8972 -0.1700
 5033SOL     OW19945   2.070   1.461   8.115 -0.1710  0.3811  0.1688
 5033SOL    HW119946   2.077   1.369   8.087  4.0398  1.1280 -2.1590
 5033SOL    HW219947   2.028   1.506   8.042 -1.9068  0.4469  1.1600
 5034SOL     OW19948   6.748   5.999   5.011  0.0513 -0.0043 -0.5785
 5034SOL    HW119949   6.776   6.054   5.084  1.1670  0.9705 -1.6995
 5034SOL    HW219950   6.653   5.991   5.022 -0.1212  1.9970 -0.2660
 5035SOL     OW19951   8.349   8.706   4.546 -0.2534 -0.1737  0.2862
 5035SOL    HW119952   8.265   8.701   4.592 -0.7882  4.3870  0.2228
 5035SOL    HW219953   8.325   8.717   4.454  0.4744 -0.1060  0.1012
 5036SOL     OW19954   5.373   6.009   3.948  0.3111  0.3184  0.0415
 5036SOL    HW119955   5.368   6.099   3.981  1.7645  0.4277  0.0534
 5036SOL    HW219956   5.465   5.985   3.959  0.3128 -0.5579 -1.5909
 5037SOL     OW19957   4.303   3.896   3.037 -0.5545 -0.2136  0.0781
 5037SOL    HW119958   4.346   3.979   3.059 -0.5743 -0.2176  0.1322
 5037SOL    HW219959   4.344   3.832   3.095 -0.4152 -0.2726 -0.0868
 5038SOL     OW19960   7.931   7.438   3.174 -0.2164 -0.2403 -0.1942
 5038SOL    HW119961   7.894   7.473   3.254 -0.3906  1.6900 -1.0538
 5038SOL    HW219962   8.017   7.480   3.167 -0.7228  0.6439 -1.6269
 5039SOL     OW19963   7.276   9.109   4.466 -0.4872 -0.2440  0.0182
 5039SOL    HW119964   7.271   9.167   4.542  0.2399 -0.2378  0.0661
 5039SOL    HW219965   7.366   9.075   4.467 -1.7865 -4.2714  2.1381
 5040SOL     OW19966   1.329   9.158   8.239 -0.3500 -0.2111  0.1327
 5040SOL    HW119967   1.339   9.202   8.155  1.2342  1.8862  1.2977
 5040SOL    HW219968   1.235   9.148   8.251 -0.6700  0.9255 -1.1899
 5041SOL     OW19969   5.820   2.522   0.549  0.0457  0.4415  0.4949
 5041SOL    HW119970   5.766   2.510   0.471  1.3187  3.8607 -1.1160
 5041SOL    HW219971   5.763   2.568   0.610 -0.0269  0.5899  0.3186
 5042SOL     OW19972   6.512   2.093   9.173 -0.1002  0.7488 -0.5893
 5042SOL    HW119973   6.489   2.183   9.195 -1.7916  1.6388 -4.9546
 5042SOL    HW219974   6.608   2.092   9.172  0.0058  3.2303 -2.5232
 5043SOL     OW19975   1.348   0.176   0.741  0.0907 -0.4886  0.5283
 5043SOL    HW119976   1.369   0.218   0.658 -0.0186 -3.0702 -0.9012
 5043SOL    HW219977   1.276   0.117   0.721  0.6279 -1.8300  2.2777
 5044SOL     OW19978   7.463   3.242   0.126  0.9158  0.0676 -0.6987
 5044SOL    HW119979   7.448   3.148   0.130  0.3952  0.1869  1.8015
 5044SOL    HW219980   7.550   3.255   0.162  0.7111  0.5924 -0.3736
 5045SOL     OW19981   4.988   0.615   2.531  0.0500 -0.7490  0.1845
 5045SOL    HW119982   4.906   0.626   2.579 -0.5394 -3.7095  0.0884
 5045SOL    HW219983   4.965   0.557   2.458  1.2825  2.1980 -2.7694
 5046SOL     OW19984   0.976   3.428   3.885  0.7390 -0.4945  0.5453
 5046SOL    HW119985   0.946   3.406   3.974 -1.5944  1.4003  0.3145
 5046SOL    HW219986   1.059   3.474   3.898  0.2428  0.0861  1.7908
 5047SOL     OW19987   1.075   2.934   6.354 -0.2787 -0.2790  0.1908
 5047SOL    HW119988   1.067   3.029   6.367  3.3410  0.6276 -2.5912
 5047SOL    HW219989   0.992   2.909   6.314 -1.3036  1.7182  0.8962
 5048SOL     OW19990   1.067   9.605   9.612 -0.3749 -0.1224 -0.2609
 5048SOL    HW119991   1.106   9.550   9.681  1.6380  1.0150 -0.3927
 5048SOL    HW219992   0.994   9.649   9.655 -0.6591 -1.2392  0.4471
 5049SOL     OW19993   5.623   8.832   2.620  0.1262  0.0911  0.4720
 5049SOL    HW119994   5.586   8.892   2.556 -0.0570  1.1838  1.5552
 5049SOL    HW219995   5.658   8.760   2.569  0.9709  1.4434 -0.9175
 5050SOL     OW19996   0.739   4.139   0.228  0.3601  0.1542 -0.0877
 5050SOL    HW119997   0.727   4.224   0.187  0.4687  0.9442  1.4462
 5050SOL    HW219998   0.655   4.121   0.271  0.1683 -0.7609 -0.7995
 5051SOL     OW19999   9.679   6.406   1.107 -0.3357  0.1078  0.0069
 5051SOL    HW120000   9.585   6.393   1.105 -0.1046 -1.7091 -0.5788
 5051SOL    HW220001   9.713   6.354   1.034  1.2904 -0.9974  1.4525
 5052SOL     OW20002   2.295   2.794   8.169 -0.5578 -0.2323  1.0560
 5052SOL    HW120003   2.226   2.860   8.167 -0.4414 -0.1218  0.3316
 5052SOL    HW220004   2.333   2.801   8.257 -0.2536  0.9788  0.8495
 5053SOL     OW20005   0.217   5.782   9.603 -0.2947 -0.3752 -0.0144
 5053SOL    HW120006   0.293   5.833   9.634  0.1075 -0.5573 -0.6852
 5053SOL    HW220007   0.227   5.781   9.508 -2.3968  1.5759 -0.3356
 5054SOL     OW20008   8.661   6.085   4.967 -0.3013 -0.0160 -0.1124
 5054SOL    HW120009   8.727   6.119   5.026  0.3362 -0.2406 -0.6838
 5054SOL    HW220010   8.604   6.032   5.022 -1.0174  1.5351  0.7016
 5055SOL     OW20011   6.306   8.703   7.810  0.5752 -0.4974 -0.2410
 5055SOL    HW120012   6.362   8.735   7.739 -0.9992 -0.2835 -1.4341
 5055SOL    HW220013   6.361   8.640   7.857  1.8790 -0.1487 -1.2427
 5056SOL     OW20014   7.472   3.284   4.196 -0.1147  0.0512  0.3393
 5056SOL    HW120015   7.424   3.239   4.125  2.0386 -0.5808 -0.8036
 5056SOL    HW220016   7.495   3.214   4.257  1.5938 -0.1508 -0.4778
 5057SOL     OW20017   3.394   4.804   2.539 -0.0281  0.1313 -0.2658
 5057SOL    HW120018   3.348   4.834   2.460 -0.2639 -1.2341 -0.6933
 5057SOL    HW220019   3.336   4.738   2.576 -0.3666  1.4329  1.6336
 5058SOL     OW20020   4.718   4.337   9.603 -0.1723  0.2064 -0.7733
 5058SOL    HW120021   4.791   4.398   9.592  0.1755 -0.2316 -0.9285
 5058SOL    HW220022   4.644   4.393   9.627  1.1697  0.3294  4.0539
 5059SOL     OW20023   3.345   5.376   0.142 -0.7588 -0.0661  0.4193
 5059SOL    HW120024   3.403   5.395   0.069  0.2946 -1.1134  0.9565
 5059SOL    HW220025   3.275   5.441   0.135 -0.5703 -0.0152 -1.3783
 5060SOL     OW20026   5.876   4.249   7.654  0.3170 -0.2556  0.0863
 5060SOL    HW120027   5.964   4.263   7.621  0.9627  1.5212  2.2574
 5060SOL    HW220028   5.880   4.279   7.745 -2.9353  1.6420 -0.2244
 5061SOL     OW20029   4.200   9.364   8.019  0.6741  0.2503  0.4932
 5061SOL    HW120030   4.198   9.447   8.066 -1.0291  0.5649 -0.0636
 5061SOL    HW220031   4.244   9.383   7.937  1.8492  0.1606  1.0708
 5062SOL     OW20032   1.972   6.994   2.321  0.1471 -0.0306 -0.2550
 5062SOL    HW120033   1.911   6.922   2.327  1.4220 -1.2441 -1.1824
 5062SOL    HW220034   1.924   7.063   2.276 -0.3845 -1.1306 -1.4111
 5063SOL     OW20035   6.907   4.573   5.739 -0.1925 -0.0160  0.5135
 5063SOL    HW120036   6.858   4.643   5.781 -0.6533 -0.5187  0.8264
 5063SOL    HW220037   6.845   4.532   5.679  0.1115 -0.0818  0.2384
 5064SOL     OW20038   6.370   0.848   1.494 -0.5121 -0.1594 -0.0425
 5064SOL    HW120039   6.296   0.815   1.443 -0.7005 -1.5358  1.0378
 5064SOL    HW220040   6.332   0.916   1.550 -0.8692 -0.4981  0.1352
 5065SOL     OW20041   7.635   3.856   3.981 -0.2098  0.1140 -0.5669
 5065SOL    HW120042   7.571   3.895   4.040 -1.5524 -4.1722  1.1842
 5065SOL    HW220043   7.704   3.823   4.038  2.5398  2.4951 -2.2345
 5066SOL     OW20044   6.858   4.826   4.381  0.2373  0.6071 -0.1517
 5066SOL    HW120045   6.928   4.882   4.347  1.3366 -0.8044 -0.3247
 5066SOL    HW220046   6.816   4.791   4.303  1.5195 -1.1337 -0.1118
 5067SOL     OW20047   2.593   0.698   6.375 -0.2341 -0.8541  0.0200
 5067SOL    HW120048   2.650   0.739   6.309  0.1569  0.7103  1.2543
 5067SOL    HW220049   2.506   0.729   6.352 -0.1114 -0.3842  0.1641
 5068SOL     OW20050   2.483   1.067   9.220 -0.3105 -0.0977 -0.0260
 5068SOL    HW120051   2.578   1.069   9.210 -0.3758  0.5204 -0.5907
 5068SOL    HW220052   2.451   1.039   9.134 -0.5762 -2.2391  0.7053
 5069SOL     OW20053   6.189   1.582   2.424 -0.1589  0.5180 -0.0468
 5069SOL    HW120054   6.120   1.646   2.409 -2.9973 -2.1475  0.5773
 5069SOL    HW220055   6.194   1.532   2.343  0.3348  0.0304  0.2704
 5070SOL     OW20056   0.957   7.849   2.080  0.0704 -0.1165  0.2167
 5070SOL    HW120057   0.906   7.904   2.020  0.1723 -0.7844 -0.4957
 5070SOL    HW220058   0.902   7.773   2.097 -0.2653  0.4108  1.5813
 5071SOL     OW20059   1.990   0.628   5.894 -0.0962  0.5926 -0.0938
 5071SOL    HW120060   2.023   0.549   5.852  1.1093  1.8688 -1.6681
 5071SOL    HW220061   1.927   0.596   5.959  0.1339 -1.6189 -0.8736
 5072SOL     OW20062   4.868   5.582   2.404 -0.2735 -0.1027  0.8091
 5072SOL    HW120063   4.916   5.502   2.384 -1.8166 -0.7191 -0.6459
 5072SOL    HW220064   4.828   5.565   2.490  2.0600  0.4464  2.0702
 5073SOL     OW20065   0.571   3.386   4.269  0.1759  0.1935  0.2427
 5073SOL    HW120066   0.526   3.303   4.258 -0.6355  0.7649 -1.1246
 5073SOL    HW220067   0.520   3.433   4.335  1.1351 -0.6900  1.6607
 5074SOL     OW20068   1.125   6.798   6.043  0.3215 -0.7893  0.4190
 5074SOL    HW120069   1.094   6.767   6.128 -2.2342  1.6997  0.5542
 5074SOL    HW220070   1.046   6.802   5.989  1.0396  1.9645 -0.5926
 5075SOL     OW20071   7.586   9.158   0.728  0.2356 -0.1847 -0.1493
 5075SOL    HW120072   7.532   9.130   0.801 -1.8890  0.2601 -1.4584
 5075SOL    HW220073   7.557   9.104   0.655 -0.6636  2.0993 -1.6104
 5076SOL     OW20074   7.742   2.057   8.360 -0.6580  0.1243  0.1187
 5076SOL    HW120075   7.649   2.040   8.353 -0.6091 -0.2063  0.2689
 5076SOL    HW220076   7.768   2.020   8.445 -0.2802 -0.2916 -0.1752
 5077SOL     OW20077   8.462   5.098   6.164 -0.1577 -0.6315 -0.1971
 5077SOL    HW120078   8.491   5.008   6.148  1.3258 -0.6489  2.2027
 5077SOL    HW220079   8.541   5.151   6.154 -0.9122  0.3652 -1.0507
 5078SOL     OW20080   9.461   6.334   2.607  0.5994 -0.3792  0.0937
 5078SOL    HW120081   9.419   6.329   2.693 -2.0871  2.0837 -0.9220
 5078SOL    HW220082   9.549   6.369   2.626  0.6787 -1.4250  1.9133
 5079SOL     OW20083   1.771   0.496   7.217 -0.1368 -0.2207 -0.1454
 5079SOL    HW120084   1.865   0.482   7.206  0.3619  1.4745  1.5644
 5079SOL    HW220085   1.751   0.569   7.158 -0.3976 -0.6154 -0.5474
 5080SOL     OW20086   1.717   5.228   2.178 -0.2742  0.1680 -0.1505
 5080SOL    HW120087   1.778   5.222   2.251  0.7257  2.1549 -0.7567
 5080SOL    HW220088   1.731   5.315   2.141 -3.2674  0.6083 -0.5236
 5081SOL     OW20089   1.831   4.081   9.266 -0.6368  0.0112  0.1033
 5081SOL    HW120090   1.919   4.101   9.300 -0.3803  0.2584 -0.6823
 5081SOL    HW220091   1.843   4.000   9.216 -1.2493 -1.0200  1.5272
 5082SOL     OW20092   6.827   7.938   4.570 -0.0792  0.0101 -0.5691
 5082SOL    HW120093   6.788   7.859   4.533 -0.2481  0.1377 -0.6642
 5082SOL    HW220094   6.753   7.985   4.609  0.0403  0.0569 -0.3969
 5083SOL     OW20095   6.522   1.053   9.370 -0.3497 -0.7572  0.1453
 5083SOL    HW120096   6.516   1.148   9.380 -0.7929 -0.9188  1.5999
 5083SOL    HW220097   6.445   1.019   9.416 -0.4706 -1.7998 -0.7920
 5084SOL     OW20098   2.743   0.330   7.208  0.1543  0.2997  0.0028
 5084SOL    HW120099   2.718   0.298   7.295  1.7775 -0.5545  0.2061
 5084SOL    HW220100   2.687   0.281   7.148 -1.6368  1.5653  0.5673
 5085SOL     OW20101   7.317   2.388   1.549  0.5311  0.1151 -0.4688
 5085SOL    HW120102   7.336   2.409   1.640  1.0778 -0.9589 -0.3152
 5085SOL    HW220103   7.395   2.414   1.501  0.8226 -0.6470 -0.4156
 5086SOL     OW20104   0.325   9.463   8.513  0.2101 -0.2164  0.7836
 5086SOL    HW120105   0.236   9.429   8.514  0.7010 -1.6043 -0.1208
 5086SOL    HW220106   0.337   9.502   8.600 -0.8500 -1.1754  1.3884
 5087SOL     OW20107   5.957   3.032   2.234 -0.2285  0.3623  0.5706
 5087SOL    HW120108   5.985   3.069   2.318 -2.1682  2.9810  0.2073
 5087SOL    HW220109   5.892   2.966   2.257  0.9405 -0.6292  1.1470
 5088SOL     OW20110   5.337   0.988   0.175  0.0874 -0.1270 -0.5044
 5088SOL    HW120111   5.248   0.961   0.196 -0.1500  0.2014 -1.0635
 5088SOL    HW220112   5.353   1.064   0.230  0.3347 -0.6913  0.2160
 5089SOL     OW20113   1.923   7.693   0.417 -0.1903 -0.6577  0.0717
 5089SOL    HW120114   1.880   7.776   0.438 -1.4850 -1.0979 -0.7667
 5089SOL    HW220115   2.016   7.710   0.433 -0.6678  0.2340  2.1366
 5090SOL     OW20116   5.637   5.849   6.406 -0.3123  0.0195 -0.2412
 5090SOL    HW120117   5.624   5.825   6.314 -0.2771  1.1424 -0.5465
 5090SOL    HW220118   5.550   5.844   6.445 -0.5732  0.9297 -0.6811
 5091SOL     OW20119   7.349   6.775   7.614  0.8237 -0.2206 -0.3753
 5091SOL    HW120120   7.264   6.787   7.657  1.7862 -0.8147  1.8618
 5091SOL    HW220121   7.390   6.861   7.619  1.8639 -0.7815  2.1886
 5092SOL     OW20122   0.268   4.954   0.119 -0.2660  0.7508 -0.5070
 5092SOL    HW120123   0.286   4.920   0.207  0.0887 -0.2571 -0.9490
 5092SOL    HW220124   0.346   5.004   0.096  0.3844 -0.4026 -0.8991
 5093SOL     OW20125   4.927   7.048   5.190 -0.1582  0.1312  0.0990
 5093SOL    HW120126   4.959   6.958   5.192 -0.1752  0.1058 -0.5389
 5093SOL    HW220127   4.999   7.097   5.149 -0.1020  0.4253  0.5507
 5094SOL     OW20128   5.742   4.826   3.422  0.3712  0.4392 -0.1350
 5094SOL    HW120129   5.655   4.857   3.445  0.3638  0.1812  0.1983
 5094SOL    HW220130   5.791   4.831   3.504  0.0389 -1.5311  0.2332
 5095SOL     OW20131   3.196   1.929   0.279  0.3812 -0.3056 -0.0883
 5095SOL    HW120132   3.139   1.909   0.354  0.9620  0.4531  0.5663
 5095SOL    HW220133   3.284   1.932   0.316  0.8023 -0.9528 -1.0011
 5096SOL     OW20134   3.603   0.138   5.831 -0.4490 -0.2476 -0.2771
 5096SOL    HW120135   3.546   0.209   5.800 -1.3216 -1.0963 -0.6755
 5096SOL    HW220136   3.543   0.067   5.853  0.3874 -0.7452  0.4647
 5097SOL     OW20137   5.272   3.636   2.173 -0.2512 -0.1515  0.1419
 5097SOL    HW120138   5.276   3.647   2.268  3.6196 -2.2505  0.4341
 5097SOL    HW220139   5.199   3.576   2.159 -0.3330 -0.5361  1.9412
 5098SOL     OW20140   4.039   9.271   1.008 -0.0585  0.1651 -0.5349
 5098SOL    HW120141   4.016   9.235   0.922 -2.0100  0.9536 -0.3908
 5098SOL    HW220142   4.080   9.199   1.054  0.9505 -0.3083 -2.0718
 5099SOL     OW20143   4.973   3.955   1.770 -0.2250  0.2376 -0.0118
 5099SOL    HW120144   4.935   4.020   1.710 -1.7425 -1.6229 -1.1597
 5099SOL    HW220145   5.056   3.931   1.728  0.1994  1.1507  0.2609
 5100SOL     OW20146   9.214   8.291   2.696  0.1548 -0.0632 -0.0608
 5100SOL    HW120147   9.282   8.256   2.754  0.4041 -0.8435 -0.7945
 5100SOL    HW220148   9.174   8.362   2.746  4.3676  3.4942 -1.1095
 5101SOL     OW20149   9.153   9.626   1.904 -0.2713  0.1139  0.4996
 5101SOL    HW120150   9.211   9.688   1.860  0.1536  0.5276  1.6224
 5101SOL    HW220151   9.153   9.654   1.996 -2.1860  0.0690  0.5354
 5102SOL     OW20152   6.749   0.724   5.738 -0.5163 -0.2060 -0.0362
 5102SOL    HW120153   6.728   0.752   5.827  0.7574  0.8377 -0.0438
 5102SOL    HW220154   6.691   0.649   5.722 -0.9672 -0.2203  1.5522
 5103SOL     OW20155   5.037   6.012   9.408 -0.2942  0.3188 -0.7125
 5103SOL    HW120156   4.946   6.040   9.422 -0.1153 -0.3549  2.4512
 5103SOL    HW220157   5.089   6.085   9.440  0.3054  0.2479 -1.4978
 5104SOL     OW20158   1.434   4.314   4.243  0.0080 -0.7422  0.1035
 5104SOL    HW120159   1.525   4.290   4.263  0.5202  0.2027 -0.9704
 5104SOL    HW220160   1.440   4.363   4.161 -1.2415  1.0588  1.0215
 5105SOL     OW20161   9.361   2.844   7.317 -0.6261 -0.2311  0.0489
 5105SOL    HW120162   9.348   2.922   7.372  0.7226  0.4729 -0.5757
 5105SOL    HW220163   9.274   2.824   7.283 -1.4295 -0.4032  2.0244
 5106SOL     OW20164   2.030   8.159   1.591 -0.5577  0.4310  0.0812
 5106SOL    HW120165   2.110   8.118   1.624 -0.4367  0.9771  0.4645
 5106SOL    HW220166   2.060   8.225   1.529 -0.7188  0.5935  0.1768
 5107SOL     OW20167   6.180   3.595   6.002  0.4512 -0.5615  0.4778
 5107SOL    HW120168   6.270   3.628   5.995 -0.0707  0.6497 -0.7967
 5107SOL    HW220169   6.157   3.609   6.094  0.8765  0.9823  0.3773
 5108SOL     OW20170   9.335   7.149   3.993  0.0765  0.1495 -0.1672
 5108SOL    HW120171   9.371   7.121   3.909 -1.0492  1.9530 -1.3332
 5108SOL    HW220172   9.399   7.121   4.058  0.8891 -1.4524 -1.6007
 5109SOL     OW20173   4.017   0.886   3.602 -0.3916 -0.2510 -0.0626
 5109SOL    HW120174   3.963   0.959   3.631  0.2081  0.2180 -0.1270
 5109SOL    HW220175   4.029   0.832   3.681  1.2942  1.0550  0.6386
 5110SOL     OW20176   4.219   3.951   2.103  0.7225  0.8257  0.3882
 5110SOL    HW120177   4.206   3.864   2.140  1.3754 -0.1632 -1.5669
 5110SOL    HW220178   4.314   3.962   2.100  0.6437  1.8944  1.1880
 5111SOL     OW20179   7.005   8.612   3.990  0.8785 -0.3950  0.6452
 5111SOL    HW120180   6.967   8.699   3.976 -0.0637 -0.5799  1.8676
 5111SOL    HW220181   6.970   8.584   4.075  1.9930 -1.5373  0.7532
 5112SOL     OW20182   7.579   6.058   8.305  0.2250 -0.3421  0.3378
 5112SOL    HW120183   7.571   6.006   8.226  0.1674 -0.5219  0.4620
 5112SOL    HW220184   7.620   6.000   8.369 -0.2107 -0.3695  0.5995
 5113SOL     OW20185   4.002   3.483   6.647 -0.0994 -0.4116 -0.1331
 5113SOL    HW120186   3.955   3.556   6.607  0.9371  0.4970  0.2530
 5113SOL    HW220187   3.975   3.406   6.597  0.0652  0.4780 -1.6345
 5114SOL     OW20188   9.618   8.658   6.202 -0.2973  0.2336  0.0231
 5114SOL    HW120189   9.556   8.667   6.130 -2.5782  2.4836  2.0407
 5114SOL    HW220190   9.666   8.741   6.202  1.1461 -0.5690 -0.0909
 5115SOL     OW20191   2.294   3.655   0.276  0.7050 -0.2093  0.0030
 5115SOL    HW120192   2.377   3.684   0.314  0.9598  2.9546 -2.5507
 5115SOL    HW220193   2.227   3.685   0.337  1.2718  1.4970 -0.1743
 5116SOL     OW20194   1.889   8.765   3.856  0.2000  0.0308 -0.2418
 5116SOL    HW120195   1.911   8.796   3.944  0.5292  0.6823 -0.5520
 5116SOL    HW220196   1.888   8.844   3.802 -4.2931  0.4200 -0.0381
 5117SOL     OW20197   3.494   5.606   6.536 -0.9035  0.3682 -0.1915
 5117SOL    HW120198   3.436   5.529   6.535 -1.2114  0.5619  1.1327
 5117SOL    HW220199   3.498   5.634   6.444 -0.2550 -1.6111 -0.8435
 5118SOL     OW20200   0.423   0.246   6.083  0.7895  0.0705  0.2383
 5118SOL    HW120201   0.488   0.193   6.128  0.1214 -0.5946  0.4240
 5118SOL    HW220202   0.448   0.240   5.990 -0.8663 -2.9080 -0.1317
 5119SOL     OW20203   0.054   4.179   3.999 -0.4328 -0.2396 -0.2647
 5119SOL    HW120204  -0.018   4.235   4.026  0.3174  0.6667 -0.1089
 5119SOL    HW220205   0.105   4.165   4.079  0.1198 -0.0450 -0.5753
 5120SOL     OW20206   2.362   4.937   2.014  0.6267 -0.7453 -0.7852
 5120SOL    HW120207   2.289   4.939   2.076  0.6300  0.3827 -0.7952
 5120SOL    HW220208   2.374   5.029   1.988  1.1207 -1.0957 -1.8690
 5121SOL     OW20209   3.059   2.458   8.394  0.4506  0.0433 -0.1433
 5121SOL    HW120210   3.044   2.466   8.299 -0.8983  1.4883  0.1592
 5121SOL    HW220211   2.985   2.405   8.425  0.0112  0.8992  0.3037
 5122SOL     OW20212   1.141   4.293   6.626  0.5118  0.3419 -0.1553
 5122SOL    HW120213   1.124   4.258   6.714 -0.7744  0.0407 -0.5158
 5122SOL    HW220214   1.067   4.350   6.608  0.3737 -0.1982 -1.3598
 5123SOL     OW20215   2.316   6.411   3.354 -0.1527 -0.3288 -0.3740
 5123SOL    HW120216   2.267   6.487   3.385  0.5997 -0.4545  1.2626
 5123SOL    HW220217   2.250   6.351   3.319 -0.8409  0.7010 -0.8566
 5124SOL     OW20218   2.189   6.596   3.699  0.2292  0.3879  0.1773
 5124SOL    HW120219   2.157   6.570   3.785 -2.2180  0.0930 -0.7446
 5124SOL    HW220220   2.151   6.532   3.639  0.2683  1.7032 -1.3197
 5125SOL     OW20221   2.826   9.699   7.524 -0.1759 -0.0477  0.4482
 5125SOL    HW120222   2.780   9.616   7.531  1.3922 -0.8827  1.3151
 5125SOL    HW220223   2.802   9.747   7.603  0.7502 -0.6634  1.1186
 5126SOL     OW20224   4.913   8.906   8.036 -0.1890 -0.1304  0.5955
 5126SOL    HW120225   4.948   8.896   7.947 -1.8892 -1.0995 -0.0127
 5126SOL    HW220226   4.990   8.916   8.091  0.9934 -1.1879 -0.7952
 5127SOL     OW20227   5.832   2.171   4.386  0.4392  0.9213 -0.3025
 5127SOL    HW120228   5.911   2.144   4.434  0.8466  1.7162 -0.4958
 5127SOL    HW220229   5.776   2.210   4.453  1.3523  2.7747 -0.5589
 5128SOL     OW20230   7.545   5.427   3.588  0.6849 -0.9288  0.2088
 5128SOL    HW120231   7.474   5.456   3.645  1.0531 -0.5743  0.4897
 5128SOL    HW220232   7.556   5.500   3.526 -0.0573 -1.5217 -0.6425
 5129SOL     OW20233   6.079   9.361   4.550  0.6512  0.2226 -0.4515
 5129SOL    HW120234   6.084   9.381   4.457 -1.6866 -1.1975 -0.9592
 5129SOL    HW220235   6.003   9.409   4.581  0.6213 -0.3597  0.4217
 5130SOL     OW20236   4.556   4.830   9.096  0.1073 -0.0765  0.5713
 5130SOL    HW120237   4.514   4.877   9.024  0.5297  1.1670  1.0913
 5130SOL    HW220238   4.537   4.883   9.173 -0.6090 -1.5509  1.4458
 5131SOL     OW20239   8.062   8.953   2.233 -0.2482 -0.4143  0.8496
 5131SOL    HW120240   8.027   9.035   2.268 -1.2409 -0.3945 -0.1459
 5131SOL    HW220241   8.155   8.970   2.221 -0.3566  0.4105  1.0981
 5132SOL     OW20242   9.592   8.299   9.295 -0.1001  0.5501 -0.1862
 5132SOL    HW120243   9.498   8.288   9.310  0.0478  0.0401  0.4529
 5132SOL    HW220244   9.621   8.357   9.366  0.2601 -0.2188  0.3088
 5133SOL     OW20245   6.482   8.375   3.201  0.4565  0.3880  0.7897
 5133SOL    HW120246   6.574   8.399   3.193  0.6680 -0.4439  0.6085
 5133SOL    HW220247   6.449   8.377   3.111  0.3640  0.4379  0.8247
 5134SOL     OW20248   4.666   1.785   2.860  0.2384  0.3063  0.0816
 5134SOL    HW120249   4.671   1.879   2.844 -0.4245  0.1644 -1.0461
 5134SOL    HW220250   4.583   1.773   2.907 -0.3224  0.1482 -0.9300
 5135SOL     OW20251   8.493   0.737   0.971  0.0971  0.0340 -0.2166
 5135SOL    HW120252   8.583   0.734   1.004 -0.0427 -3.6787  0.2992
 5135SOL    HW220253   8.453   0.811   1.015  1.4773 -1.4102  3.9067
 5136SOL     OW20254   8.354   1.348   2.397 -0.0976 -0.1038 -0.2635
 5136SOL    HW120255   8.383   1.424   2.347 -0.7009 -0.4669 -1.1772
 5136SOL    HW220256   8.303   1.296   2.335  1.8815 -2.2457 -0.2212
 5137SOL     OW20257   3.663   0.375   6.102  0.2546 -0.3295 -0.4345
 5137SOL    HW120258   3.714   0.376   6.021  0.6774 -1.1883 -0.1901
 5137SOL    HW220259   3.686   0.456   6.146  0.2246  0.0177 -1.0446
 5138SOL     OW20260   0.500   3.745   9.677 -0.8475 -0.2860  0.0327
 5138SOL    HW120261   0.420   3.771   9.722  0.4674 -0.6175  2.7713
 5138SOL    HW220262   0.560   3.819   9.691 -0.4078 -0.3458 -1.3594
 5139SOL     OW20263   9.342   2.577   2.164  0.5851  0.4522 -0.9158
 5139SOL    HW120264   9.432   2.609   2.173  0.3612  0.6344  1.2060
 5139SOL    HW220265   9.290   2.638   2.217 -0.8858  0.6036 -2.4477
 5140SOL     OW20266   5.201   9.298   3.476  0.4465  0.6787  0.4349
 5140SOL    HW120267   5.189   9.225   3.416  1.8312  1.0191 -0.2980
 5140SOL    HW220268   5.295   9.302   3.490  0.1794  0.6945  2.5596
 5141SOL     OW20269   8.572   1.730   9.062  0.2604  0.4782 -0.3568
 5141SOL    HW120270   8.607   1.660   9.007  0.4682  1.5162 -1.5850
 5141SOL    HW220271   8.649   1.775   9.097  0.1451  1.0246 -0.7948
 5142SOL     OW20272   0.312   4.959   3.162  0.0270  0.6264 -0.2730
 5142SOL    HW120273   0.249   4.941   3.232 -1.0521  3.0497 -0.5207
 5142SOL    HW220274   0.396   4.931   3.198 -0.8620 -0.5068  0.9971
 5143SOL     OW20275   1.470   6.660   7.482  0.2718 -0.2552  0.0033
 5143SOL    HW120276   1.499   6.620   7.564  0.1950 -2.4677 -0.9997
 5143SOL    HW220277   1.550   6.700   7.446  0.2420  1.0346  1.2496
 5144SOL     OW20278   0.463   8.047   8.499  0.1161  0.6299 -0.1324
 5144SOL    HW120279   0.415   8.071   8.420 -1.0843 -0.0663  0.3537
 5144SOL    HW220280   0.477   7.952   8.491  1.0917  0.7585 -0.0800
 5145SOL     OW20281   9.116   9.437   7.373  0.6210 -0.6235 -0.0325
 5145SOL    HW120282   9.203   9.448   7.410 -0.1034 -0.1093  1.6261
 5145SOL    HW220283   9.127   9.453   7.279  2.1173  0.5182  0.2994
 5146SOL     OW20284   0.115   4.154   8.423 -0.1883 -0.2430  0.2696
 5146SOL    HW120285   0.189   4.215   8.418  0.2094 -0.6684  0.9022
 5146SOL    HW220286   0.151   4.071   8.392 -1.0230  0.0643 -1.7323
 5147SOL     OW20287   2.106   2.129   0.402 -0.5375 -0.4158  0.5514
 5147SOL    HW120288   2.068   2.080   0.475  2.0370  0.4304  2.6170
 5147SOL    HW220289   2.032   2.145   0.343 -3.2535  0.5156  3.8674
 5148SOL     OW20290   5.340   9.328   7.954  0.0210  0.0367 -0.1972
 5148SOL    HW120291   5.336   9.397   7.888 -2.1490  2.8116  2.5426
 5148SOL    HW220292   5.257   9.281   7.945  0.3701 -0.5523 -0.3867
 5149SOL     OW20293   3.259   9.171   2.241  0.0127  0.2447 -0.2047
 5149SOL    HW120294   3.278   9.165   2.148 -0.5030 -0.7192 -0.2613
 5149SOL    HW220295   3.265   9.081   2.273  0.8047  0.6460  0.8286
 5150SOL     OW20296   9.476   2.182   8.667  0.1648  0.1173  0.3239
 5150SOL    HW120297   9.480   2.164   8.761  0.3382 -0.6745  0.1728
 5150SOL    HW220298   9.463   2.096   8.627 -1.5646  0.6099 -0.2777
 5151SOL     OW20299   7.100   2.285   0.050  0.3628 -0.1674 -0.5015
 5151SOL    HW120300   7.114   2.379   0.040 -0.4605 -0.0888 -0.9632
 5151SOL    HW220301   7.018   2.277   0.098  0.6305 -0.6506 -0.1119
 5152SOL     OW20302   4.989   7.874   8.974  0.1257  0.3097  0.1097
 5152SOL    HW120303   4.929   7.905   9.042 -0.2565  3.1929 -1.4040
 5152SOL    HW220304   5.076   7.879   9.014 -0.3107 -0.4601  1.1741
 5153SOL     OW20305   9.125   0.139   7.536 -0.2757  0.5465  0.1305
 5153SOL    HW120306   9.144   0.149   7.629 -1.8429 -0.8189  0.6449
 5153SOL    HW220307   9.211   0.138   7.494  0.4786  0.6368  1.6190
 5154SOL     OW20308   0.028   8.647   7.582  0.3189  0.4540  0.2168
 5154SOL    HW120309   0.100   8.666   7.643  0.3574 -0.9644  0.6551
 5154SOL    HW220310  -0.007   8.733   7.559 -1.0801  1.0916  3.9268
 5155SOL     OW20311   5.878   2.915   0.852  0.5415  0.2123  0.4231
 5155SOL    HW120312   5.846   2.946   0.936  0.5883  0.3257  0.4005
 5155SOL    HW220313   5.973   2.908   0.864  0.9152  2.7337 -0.3738
 5156SOL     OW20314   4.523   9.394   9.628 -0.2334  0.4148  0.4687
 5156SOL    HW120315   4.451   9.378   9.567  0.9762  0.6426 -1.0536
 5156SOL    HW220316   4.595   9.424   9.574  0.5546  1.7314  2.1384
 5157SOL     OW20317   8.072   7.233   5.501  0.3315  0.3954 -0.0659
 5157SOL    HW120318   8.094   7.239   5.408 -0.5757  0.7194 -0.2690
 5157SOL    HW220319   8.039   7.320   5.523  0.6336  0.3493  0.5888
 5158SOL     OW20320   6.467   5.257   5.617 -0.1165  0.4666 -0.6670
 5158SOL    HW120321   6.491   5.198   5.689  1.0195  1.8240  0.1212
 5158SOL    HW220322   6.502   5.214   5.539 -0.3784 -0.4892 -0.2663
 5159SOL     OW20323   3.178   8.601   2.047 -0.4772 -0.4289  0.0697
 5159SOL    HW120324   3.218   8.514   2.049 -1.7325 -1.0203  0.3363
 5159SOL    HW220325   3.132   8.605   1.963  2.2838  1.3031 -1.5601
 5160SOL     OW20326   0.471   6.687   1.642  0.5110 -0.5351 -0.3218
 5160SOL    HW120327   0.407   6.669   1.712 -1.8975  0.3055 -2.1480
 5160SOL    HW220328   0.425   6.663   1.561  2.6107 -0.0562 -1.7354
 5161SOL     OW20329   7.463   3.897   9.584 -0.2158  0.0657  0.8586
 5161SOL    HW120330   7.433   3.979   9.544  0.3238 -0.0253  0.2482
 5161SOL    HW220331   7.402   3.881   9.656  0.2776  1.5511  1.6479
 5162SOL     OW20332   6.246   5.446   6.505  0.1430  0.1237 -0.2821
 5162SOL    HW120333   6.244   5.385   6.431 -0.6518 -0.1150 -0.0653
 5162SOL    HW220334   6.261   5.531   6.464 -2.3751  0.3255 -0.9701
 5163SOL     OW20335   2.377   2.534   4.294  0.0368  0.1566 -0.5133
 5163SOL    HW120336   2.464   2.555   4.327 -0.6371 -0.7768  2.1062
 5163SOL    HW220337   2.366   2.441   4.313 -2.8108  0.9458  2.7604
 5164SOL     OW20338   1.229   4.496   9.356  0.5120 -0.1891  0.4871
 5164SOL    HW120339   1.133   4.488   9.360  0.5455  0.0135  2.8745
 5164SOL    HW220340   1.248   4.579   9.399  1.7267  0.4940 -1.2762
 5165SOL     OW20341   2.275   1.366   8.734 -0.2357  0.1123 -0.5824
 5165SOL    HW120342   2.213   1.425   8.691  1.1928  1.4423 -0.9119
 5165SOL    HW220343   2.359   1.412   8.729  0.5445 -1.0596  0.9752
 5166SOL     OW20344   3.657   0.620   4.424 -0.9738  0.1123 -0.2246
 5166SOL    HW120345   3.680   0.547   4.482 -2.2154  0.3967  0.6765
 5166SOL    HW220346   3.576   0.592   4.382 -0.8342  0.4978 -0.7644
 5167SOL     OW20347   0.918   8.206   1.314  0.3696  0.0219  0.4216
 5167SOL    HW120348   0.981   8.154   1.363  0.4499 -1.7002 -1.3821
 5167SOL    HW220349   0.940   8.297   1.334  2.2870 -0.5750  1.1810
 5168SOL     OW20350   1.200   4.341   2.401  0.3967  0.1099  0.2279
 5168SOL    HW120351   1.105   4.351   2.401  0.4969  1.3900  1.0613
 5168SOL    HW220352   1.220   4.294   2.320 -0.7966  1.4748 -0.9171
 5169SOL     OW20353   3.609   8.791   6.924 -0.5426  0.3869  0.2182
 5169SOL    HW120354   3.616   8.718   6.985  0.0539  0.1184 -0.1646
 5169SOL    HW220355   3.545   8.850   6.965 -1.2809 -0.4906  0.3782
 5170SOL     OW20356   6.098   2.120   3.830 -0.0708  0.0572 -0.1074
 5170SOL    HW120357   6.163   2.162   3.774  2.8155 -1.7252  1.7033
 5170SOL    HW220358   6.090   2.179   3.906 -3.0621  1.8349 -1.5775
 5171SOL     OW20359   9.447   4.990   3.028 -0.4899  0.1298 -0.2729
 5171SOL    HW120360   9.381   4.922   3.013 -0.3401 -0.1763  0.4200
 5171SOL    HW220361   9.531   4.944   3.018 -0.3728  0.4992 -1.0693
 5172SOL     OW20362   1.589   4.627   3.085 -0.1206 -0.0357  0.3834
 5172SOL    HW120363   1.501   4.612   3.120 -0.9553  0.0857 -1.5657
 5172SOL    HW220364   1.641   4.554   3.118 -0.3622  0.9678  3.3006
 5173SOL     OW20365   4.325   7.129   0.629 -0.1139  0.2142  0.0908
 5173SOL    HW120366   4.348   7.125   0.536 -0.9328 -0.3724 -0.1088
 5173SOL    HW220367   4.359   7.048   0.666 -0.0211  0.3226  0.2424
 5174SOL     OW20368   5.661   7.300   4.869 -0.2595  0.1809 -0.4893
 5174SOL    HW120369   5.715   7.251   4.807  0.0641  1.1523 -1.0083
 5174SOL    HW220370   5.659   7.246   4.948  0.9000 -0.2021 -0.7019
 5175SOL     OW20371   8.799   4.242   1.771  0.2785  0.2406 -0.0320
 5175SOL    HW120372   8.814   4.176   1.838  0.2794  0.7245  0.4526
 5175SOL    HW220373   8.851   4.317   1.799 -1.2469  1.1361  0.4703
 5176SOL     OW20374   7.070   4.829   8.762 -0.1731 -0.0155 -0.7657
 5176SOL    HW120375   7.123   4.764   8.808 -1.6569 -2.4833 -2.2509
 5176SOL    HW220376   7.037   4.887   8.830  2.6341  0.3216  0.4110
 5177SOL     OW20377   8.759   2.510   8.214  0.0546 -0.1423 -0.7145
 5177SOL    HW120378   8.739   2.474   8.128 -0.2588  1.3590 -1.3075
 5177SOL    HW220379   8.841   2.557   8.202 -0.0671  0.2041 -0.2518
 5178SOL     OW20380   4.199   2.264   9.158  0.1240 -0.3529 -0.0072
 5178SOL    HW120381   4.275   2.311   9.192 -1.3185  2.9862 -0.9584
 5178SOL    HW220382   4.132   2.275   9.225 -0.9148  1.0466 -1.2034
 5179SOL     OW20383   8.734   0.063   6.370 -0.3831  0.0734 -0.1755
 5179SOL    HW120384   8.741   0.092   6.279 -2.4233  0.1787 -0.3414
 5179SOL    HW220385   8.665  -0.003   6.369  0.6386 -1.0745  1.0636
 5180SOL     OW20386   6.070   1.133   1.970  0.0102 -0.2760  0.3940
 5180SOL    HW120387   6.101   1.086   2.048  0.1419  0.5054  0.8293
 5180SOL    HW220388   5.978   1.150   1.988  0.0570 -0.0372  0.4123
 5181SOL     OW20389   5.293   6.502   8.193  0.3576  0.1719  0.1106
 5181SOL    HW120390   5.343   6.431   8.231  0.6627 -0.7489 -1.8679
 5181SOL    HW220391   5.345   6.581   8.210  0.6605 -0.2570  1.1967
 5182SOL     OW20392   7.041   0.061   9.233 -0.6725  0.5011 -0.0347
 5182SOL    HW120393   6.983   0.059   9.157  0.4632  0.4923 -0.9265
 5182SOL    HW220394   7.055  -0.031   9.255 -1.9561  0.5212  0.9577
 5183SOL     OW20395   7.039   1.980   0.403 -0.2646 -0.4924  0.1354
 5183SOL    HW120396   7.073   1.918   0.467 -0.3648 -0.7855 -0.0935
 5183SOL    HW220397   6.971   1.931   0.356 -2.0434  0.4852  1.5410
 5184SOL     OW20398   5.638   9.128   6.756 -0.2161  0.1355 -0.1797
 5184SOL    HW120399   5.634   9.075   6.836  0.3567  2.1879  1.2837
 5184SOL    HW220400   5.707   9.087   6.704  0.1908 -0.5871  0.8830
 5185SOL     OW20401   1.592   1.525   9.442 -0.2965  0.1923  0.2141
 5185SOL    HW120402   1.530   1.453   9.442 -0.7061  0.5442 -0.4329
 5185SOL    HW220403   1.629   1.524   9.531  0.0915 -1.1337  0.0560
 5186SOL     OW20404   6.885   7.117   7.688 -0.1643 -0.4097 -0.0031
 5186SOL    HW120405   6.870   7.184   7.755 -0.3292  0.2709 -0.7045
 5186SOL    HW220406   6.861   7.034   7.731  1.1845 -0.1803  1.2606
 5187SOL     OW20407   2.898   5.865   2.273 -0.4655 -0.6394  0.1711
 5187SOL    HW120408   2.974   5.921   2.253 -1.0685  0.6484  1.3348
 5187SOL    HW220409   2.847   5.864   2.191  0.8812 -1.7085 -0.6974
 5188SOL     OW20410   2.738   5.274   9.585 -0.1998 -0.1018  0.3003
 5188SOL    HW120411   2.702   5.238   9.667  1.0231 -0.4935  0.6848
 5188SOL    HW220412   2.738   5.200   9.524 -3.7519  0.8014 -1.0562
 5189SOL     OW20413   8.956   1.548   4.694  0.5930 -0.0434 -0.0270
 5189SOL    HW120414   9.005   1.547   4.612 -1.2861 -3.0611 -1.3121
 5189SOL    HW220415   8.883   1.488   4.679  0.1469 -0.7912  3.8990
 5190SOL     OW20416   1.810   6.871   6.680  0.3554 -0.2757  0.2667
 5190SOL    HW120417   1.758   6.849   6.603 -1.0524 -0.6918  1.2910
 5190SOL    HW220418   1.892   6.824   6.668  1.1877  1.5946 -2.1206
 5191SOL     OW20419   2.731   0.669   0.206 -0.3797  0.8668 -0.0090
 5191SOL    HW120420   2.817   0.649   0.244 -0.2671  0.3878 -0.5050
 5191SOL    HW220421   2.740   0.647   0.113 -0.9374  1.1366 -0.1296
 5192SOL     OW20422   1.401   0.070   2.129  0.7101 -0.2205  0.2682
 5192SOL    HW120423   1.417   0.009   2.202 -1.5687 -1.3830 -0.1292
 5192SOL    HW220424   1.461   0.041   2.060  1.4086 -0.4170  0.9399
 5193SOL     OW20425   1.273   9.236   0.628  0.3231 -0.1920  0.2266
 5193SOL    HW120426   1.292   9.298   0.699  0.5041  0.0938 -0.0677
 5193SOL    HW220427   1.182   9.252   0.606  0.0975 -0.6728  0.7706
 5194SOL     OW20428   1.391   3.738   4.771 -0.4662 -0.2873  0.6583
 5194SOL    HW120429   1.395   3.761   4.678  2.2948  1.7121  1.1297
 5194SOL    HW220430   1.347   3.811   4.813  0.2961 -0.0874  1.1434
 5195SOL     OW20431   4.654   3.039   8.849 -0.1675  0.2738 -0.5885
 5195SOL    HW120432   4.622   3.107   8.790 -2.8599 -0.6132 -0.2739
 5195SOL    HW220433   4.719   2.992   8.798  0.0965  1.6509 -1.6016
 5196SOL     OW20434   7.940   5.727   2.336 -0.3182 -0.1967  0.1520
 5196SOL    HW120435   7.958   5.655   2.396  0.6355 -1.0294 -1.0782
 5196SOL    HW220436   7.891   5.790   2.388 -1.3475 -1.8128  1.2119
 5197SOL     OW20437   9.292   6.813   6.560 -0.4416  0.5384  0.3868
 5197SOL    HW120438   9.215   6.859   6.527 -0.5779  0.3676  0.4658
 5197SOL    HW220439   9.256   6.739   6.609 -0.2138  0.1407 -0.0468
 5198SOL     OW20440   6.170   9.043   8.845  0.0392 -0.2655 -0.1136
 5198SOL    HW120441   6.162   8.961   8.894  1.8415 -0.5898 -0.3203
 5198SOL    HW220442   6.091   9.045   8.790 -1.4185 -0.4928  1.8331
 5199SOL     OW20443   0.499   9.515   2.357  0.2372  0.5697  0.0829
 5199SOL    HW120444   0.464   9.580   2.296  1.5932 -0.5111 -1.9514
 5199SOL    HW220445   0.480   9.431   2.316 -0.1717 -0.3033  1.9456
 5200SOL     OW20446   0.857   0.683   4.017  0.7440  0.4257 -0.2909
 5200SOL    HW120447   0.918   0.612   3.999  1.0310  0.9587 -1.4826
 5200SOL    HW220448   0.909   0.763   4.009 -0.1634  0.9165 -1.7343
 5201SOL     OW20449   3.774   9.446   9.353 -0.5538 -0.4464  0.1340
 5201SOL    HW120450   3.774   9.428   9.259  1.0258  2.1370 -0.4804
 5201SOL    HW220451   3.701   9.507   9.366  0.7493  1.1735  0.0669
 5202SOL     OW20452   0.986   1.463   0.303 -0.4487  0.7808 -0.3663
 5202SOL    HW120453   0.909   1.454   0.247 -0.6429  0.8579 -0.1128
 5202SOL    HW220454   0.966   1.538   0.359 -0.2141  0.7653 -0.2608
 5203SOL     OW20455   3.959   9.478   0.771 -0.0309  0.6505 -0.6789
 5203SOL    HW120456   3.999   9.519   0.695  0.1429  0.6388 -0.5952
 5203SOL    HW220457   3.976   9.384   0.760  1.4503  0.7775  0.1886
 5204SOL     OW20458   4.859   7.555   8.786  0.3237  0.3966  0.2583
 5204SOL    HW120459   4.807   7.627   8.750  0.7482  1.5308  1.7865
 5204SOL    HW220460   4.947   7.592   8.797  0.9270 -0.8287 -0.2993
 5205SOL     OW20461   8.407   4.456   2.372  0.0514 -0.0312  0.6345
 5205SOL    HW120462   8.321   4.467   2.330 -0.4825 -3.2970  0.5723
 5205SOL    HW220463   8.460   4.414   2.305  1.1234  0.2442  1.2938
 5206SOL     OW20464   4.538   6.791   5.655  0.3016 -0.1274 -0.0015
 5206SOL    HW120465   4.630   6.788   5.683 -0.2938 -2.0946  2.0193
 5206SOL    HW220466   4.523   6.706   5.614 -0.9290 -0.3792  0.9129
 5207SOL     OW20467   2.644   3.182   7.208 -0.2421 -0.1229 -0.2369
 5207SOL    HW120468   2.586   3.258   7.211  1.1523  1.0021 -0.7822
 5207SOL    HW220469   2.605   3.125   7.142 -2.0880 -0.6040  1.1692
 5208SOL     OW20470   1.886   0.909   4.357 -0.2668  0.5160 -0.3408
 5208SOL    HW120471   1.895   0.819   4.388  0.2028  1.4285  2.3952
 5208SOL    HW220472   1.974   0.932   4.326 -0.7084 -0.3561 -2.4152
 5209SOL     OW20473   6.817   7.305   6.279 -0.3620  0.2930 -0.0137
 5209SOL    HW120474   6.904   7.277   6.251 -1.0322 -2.5422  0.4216
 5209SOL    HW220475   6.833   7.385   6.328  1.6041  1.5250 -2.4350
 5210SOL     OW20476   3.189   8.937   7.740 -0.0484 -0.4043  0.5411
 5210SOL    HW120477   3.110   8.975   7.780 -1.1078 -3.2716  1.4265
 5210SOL    HW220478   3.156   8.877   7.673  1.4978 -0.2962 -0.3640
 5211SOL     OW20479   9.500   8.820   1.241 -0.4945 -0.3609 -0.6244
 5211SOL    HW120480   9.511   8.870   1.160 -0.6941 -0.3925 -0.6721
 5211SOL    HW220481   9.409   8.791   1.239 -1.5100  2.3369  1.1642
 5212SOL     OW20482   8.201   8.709   0.312 -0.1359  0.4109 -0.4487
 5212SOL    HW120483   8.225   8.717   0.219  1.0940  2.1795 -0.0376
 5212SOL    HW220484   8.276   8.746   0.359  0.2847 -2.4667  1.4065
 5213SOL     OW20485   7.153   5.381   9.128 -1.1619 -0.2450 -0.5663
 5213SOL    HW120486   7.193   5.329   9.198 -0.6573  0.7119 -0.1208
 5213SOL    HW220487   7.224   5.437   9.096 -1.5569 -0.1980 -1.3952
 5214SOL     OW20488   6.035   3.966   7.087 -0.6604  0.3551 -0.1155
 5214SOL    HW120489   6.011   4.008   7.004  0.3494  1.1941 -0.0051
 5214SOL    HW220490   6.130   3.966   7.087 -0.6249  1.3350  1.5145
 5215SOL     OW20491   4.730   0.616   3.758 -0.0990  0.0115  0.3200
 5215SOL    HW120492   4.717   0.707   3.731  0.8665  0.0023 -0.2037
 5215SOL    HW220493   4.750   0.621   3.851  1.1716  0.4660  0.0472
 5216SOL     OW20494   2.998   9.620   8.882 -0.0024 -0.5370 -1.0405
 5216SOL    HW120495   2.907   9.649   8.896  0.6967  1.3081  0.2120
 5216SOL    HW220496   3.035   9.687   8.825  1.4627  0.8084  1.3011
 5217SOL     OW20497   2.750   1.789   8.251 -0.3144  0.2726  0.1665
 5217SOL    HW120498   2.801   1.783   8.171 -0.6724 -0.0950 -0.0347
 5217SOL    HW220499   2.797   1.734   8.314 -0.5566 -0.2046 -0.0689
 5218SOL     OW20500   6.399   9.359   4.608 -0.2660 -0.0546  0.5820
 5218SOL    HW120501   6.348   9.436   4.582 -1.2301 -0.4353  1.3128
 5218SOL    HW220502   6.359   9.329   4.689  0.7930 -0.6910  0.8921
 5219SOL     OW20503   5.880   3.104   0.647 -0.0288  0.1418 -0.4521
 5219SOL    HW120504   5.873   3.038   0.715  1.3840  0.9391  0.5129
 5219SOL    HW220505   5.798   3.154   0.653 -0.6032 -0.7940 -0.4343
 5220SOL     OW20506   1.262   6.507   6.815  0.0994 -0.0850  0.1413
 5220SOL    HW120507   1.296   6.574   6.874  0.9769 -0.6204  0.2523
 5220SOL    HW220508   1.174   6.537   6.793 -0.2095  0.1750  1.6465
 5221SOL     OW20509   0.644   9.589   2.858  0.1850 -0.0631 -0.3378
 5221SOL    HW120510   0.568   9.574   2.914  1.1041 -0.0545  0.9470
 5221SOL    HW220511   0.610   9.583   2.769 -1.6696  1.6168  0.1903
 5222SOL     OW20512   5.029   2.754   6.958  0.2020  0.4926 -0.2509
 5222SOL    HW120513   5.038   2.733   6.866 -1.0661  1.1436 -0.5451
 5222SOL    HW220514   4.963   2.693   6.991 -0.3039  1.1102 -0.0932
 5223SOL     OW20515   6.276   9.358   1.824 -0.3652  0.1549  0.9884
 5223SOL    HW120516   6.266   9.452   1.841 -0.2938  0.3710 -0.1109
 5223SOL    HW220517   6.195   9.333   1.779  1.3252  0.6715 -2.7049
 5224SOL     OW20518   3.662   2.209   7.511  0.5947 -0.2092  0.0936
 5224SOL    HW120519   3.706   2.133   7.548  1.8339  1.4465  2.2436
 5224SOL    HW220520   3.670   2.277   7.578 -1.5310  1.4830 -1.2162
 5225SOL     OW20521   2.864   5.243   2.061  0.5670  0.3362 -0.2280
 5225SOL    HW120522   2.781   5.266   2.019 -0.0778 -1.9339 -0.3723
 5225SOL    HW220523   2.931   5.282   2.006 -0.3207 -0.8947 -2.2987
 5226SOL     OW20524   7.019   3.985   6.015 -0.5225  0.4473 -0.0091
 5226SOL    HW120525   7.037   3.891   6.021 -0.2472  0.1390 -3.4592
 5226SOL    HW220526   6.932   3.990   5.974 -1.2563  1.7679  1.6003
 5227SOL     OW20527   1.499   3.256   2.730  0.3296 -0.0521 -0.1764
 5227SOL    HW120528   1.549   3.180   2.760  2.5364  1.2510 -0.3313
 5227SOL    HW220529   1.524   3.266   2.638 -0.0204  0.7749 -0.1898
 5228SOL     OW20530   0.078   7.754   6.199 -0.3897  0.1469 -0.2262
 5228SOL    HW120531   0.038   7.752   6.286  0.2428 -0.5028  0.0629
 5228SOL    HW220532   0.155   7.810   6.208  0.4341 -0.9787 -0.0055
 5229SOL     OW20533   9.114   0.295   1.846 -0.3259  0.0623  0.2445
 5229SOL    HW120534   9.153   0.223   1.895  0.2913  0.7451  0.8056
 5229SOL    HW220535   9.076   0.255   1.769  4.1530 -0.4409 -2.0315
 5230SOL     OW20536   7.874   9.219   8.831  0.2271 -0.2238 -0.3259
 5230SOL    HW120537   7.868   9.281   8.758 -1.3461  1.2338  0.9551
 5230SOL    HW220538   7.934   9.261   8.893 -1.4320  0.4778  0.8887
 5231SOL     OW20539   6.459   2.865   1.073  0.4195  0.1593 -0.0431
 5231SOL    HW120540   6.436   2.904   0.989 -0.6324 -0.8702 -0.2665
 5231SOL    HW220541   6.531   2.919   1.106  2.6632 -0.9360 -2.7904
 5232SOL     OW20542   6.327   5.033   0.233  0.3454  0.0467 -0.0641
 5232SOL    HW120543   6.409   5.047   0.280 -0.2118  2.2447  0.3844
 5232SOL    HW220544   6.311   5.116   0.189 -2.2394  0.1119  0.8396
 5233SOL     OW20545   3.290   5.702   1.821  0.1114  0.0090 -0.3722
 5233SOL    HW120546   3.270   5.677   1.911  0.4128 -2.6847 -0.9457
 5233SOL    HW220547   3.219   5.665   1.769  1.0923 -0.4593 -1.4270
 5234SOL     OW20548   1.864   2.582   5.740  0.6254 -0.1768  0.5683
 5234SOL    HW120549   1.940   2.526   5.752  0.6680 -0.5530 -1.1980
 5234SOL    HW220550   1.879   2.657   5.798  1.7886 -0.7900  1.0757
 5235SOL     OW20551   1.762   4.322   8.102  0.2781  0.3242 -0.4434
 5235SOL    HW120552   1.829   4.371   8.055  0.5036  0.1787 -0.2780
 5235SOL    HW220553   1.760   4.361   8.189  0.2289  0.2529 -0.4119
 5236SOL     OW20554   9.162   4.211   8.373 -0.2619 -0.5246 -0.4710
 5236SOL    HW120555   9.124   4.208   8.285 -0.5376 -1.4872 -0.3274
 5236SOL    HW220556   9.102   4.160   8.427 -0.6043  0.8515  0.4899
 5237SOL     OW20557   6.507   6.644   6.733  0.1442 -0.3384 -0.1198
 5237SOL    HW120558   6.532   6.619   6.822 -2.6630 -0.7277  0.6692
 5237SOL    HW220559   6.507   6.561   6.684  0.3353 -0.3443 -0.1093
 5238SOL     OW20560   6.045   7.866   2.394  0.1840 -0.2231 -0.1299
 5238SOL    HW120561   6.046   7.781   2.438 -0.1752  0.1045  0.5204
 5238SOL    HW220562   6.080   7.927   2.459 -0.7452  0.3406 -0.1446
 5239SOL     OW20563   2.766   9.689   4.822 -0.6452 -0.4771  0.1228
 5239SOL    HW120564   2.778   9.615   4.882  0.1760  1.0761  1.9594
 5239SOL    HW220565   2.849   9.695   4.775 -1.1869 -1.5144 -1.0206
 5240SOL     OW20566   9.174   3.547   3.493 -0.3264  0.4205  0.0432
 5240SOL    HW120567   9.108   3.555   3.425 -0.3491  0.7896  0.1076
 5240SOL    HW220568   9.136   3.488   3.557 -1.8501  2.8920  1.5467
 5241SOL     OW20569   1.909   5.662   3.679 -0.1341 -0.7124 -0.4159
 5241SOL    HW120570   2.004   5.655   3.680 -0.1106 -1.6226  2.9040
 5241SOL    HW220571   1.879   5.575   3.654 -0.0243 -1.2747  1.2968
 5242SOL     OW20572   9.032   4.419   4.757  0.3892 -0.3033 -0.5419
 5242SOL    HW120573   9.093   4.491   4.741  0.7525 -0.5367 -0.2122
 5242SOL    HW220574   8.949   4.451   4.722  0.4511  0.4429 -0.0346
 5243SOL     OW20575   2.101   9.156   4.004 -0.1296  0.7244  0.3162
 5243SOL    HW120576   2.195   9.167   4.021  0.2922  1.8210 -2.3220
 5243SOL    HW220577   2.063   9.242   4.022 -0.9210 -0.0220  2.5753
 5244SOL     OW20578   9.546   5.707   8.888  0.2241  0.2047  1.0066
 5244SOL    HW120579   9.526   5.759   8.966 -0.5764  0.8562  0.3915
 5244SOL    HW220580   9.550   5.771   8.817  0.4960 -0.4295  0.4379
 5245SOL     OW20581   3.736   7.288   8.516 -0.0556 -0.0832  0.7346
 5245SOL    HW120582   3.727   7.295   8.421 -1.2407  0.5061  0.8650
 5245SOL    HW220583   3.828   7.265   8.530  0.0783 -0.4161 -0.5568
 5246SOL     OW20584   7.274   0.702   1.821 -0.0070 -0.2674 -0.6075
 5246SOL    HW120585   7.362   0.736   1.835 -0.7571  1.7700 -0.5478
 5246SOL    HW220586   7.282   0.647   1.742  1.5418 -1.1957  0.1456
 5247SOL     OW20587   5.523   6.648   0.181 -0.2692  0.4151 -0.5861
 5247SOL    HW120588   5.593   6.711   0.197 -0.7905  0.5042  1.6250
 5247SOL    HW220589   5.445   6.689   0.218 -0.6769 -1.3581  0.6706
 5248SOL     OW20590   7.513   9.328   9.533  0.4120  0.7018 -0.5899
 5248SOL    HW120591   7.469   9.374   9.604  1.0704 -0.6297  0.7382
 5248SOL    HW220592   7.572   9.393   9.496  0.7220  1.1825  0.6847
 5249SOL     OW20593   5.290   1.533   8.120 -0.3577  0.4918  0.1917
 5249SOL    HW120594   5.337   1.614   8.139  1.2280 -0.1858 -0.6457
 5249SOL    HW220595   5.270   1.496   8.206  1.2507  0.4988  0.6091
 5250SOL     OW20596   2.052   9.679   0.567  0.2773 -0.0836  0.0228
 5250SOL    HW120597   2.054   9.682   0.472  1.1603  0.9153  0.0555
 5250SOL    HW220598   2.064   9.586   0.589  1.8176 -0.1112 -0.8178
 5251SOL     OW20599   6.941   4.878   5.714 -0.6763  0.3264  0.4308
 5251SOL    HW120600   6.893   4.943   5.664 -1.8793 -1.4614 -0.8558
 5251SOL    HW220601   6.890   4.866   5.794  0.2337  1.8206  1.2786
 5252SOL     OW20602   3.985   5.538   3.030  0.1228  0.1227 -0.1031
 5252SOL    HW120603   3.963   5.601   2.962  0.2527 -0.4283 -0.6675
 5252SOL    HW220604   4.077   5.555   3.049  0.5563 -0.7845 -1.2455
 5253SOL     OW20605   7.455   2.419   2.401  0.0691  0.6044 -0.3469
 5253SOL    HW120606   7.498   2.351   2.350 -0.0593 -1.3633  1.9779
 5253SOL    HW220607   7.505   2.423   2.483 -0.1146  3.1473 -0.2751
 5254SOL     OW20608   6.983   1.644   1.144  0.2362  0.1441 -0.0151
 5254SOL    HW120609   6.918   1.650   1.074  0.6832  0.1432 -0.4383
 5254SOL    HW220610   6.933   1.617   1.221 -0.3147  0.4639 -0.2551
 5255SOL     OW20611   6.653   0.252   3.883  0.5094  0.0723  0.6184
 5255SOL    HW120612   6.713   0.250   3.809  0.5245  0.9260  0.6056
 5255SOL    HW220613   6.686   0.322   3.939 -0.4920  0.5754  0.5953
 5256SOL     OW20614   6.291   3.259   2.563 -0.2117 -0.3187 -0.4725
 5256SOL    HW120615   6.347   3.237   2.637  0.7513  1.7432 -0.5289
 5256SOL    HW220616   6.207   3.284   2.602  0.3040  0.7965 -0.0604
 5257SOL     OW20617   0.988   3.213   2.974 -0.3804 -0.7517 -0.1266
 5257SOL    HW120618   1.078   3.202   3.003 -0.7480 -0.5014  1.1414
 5257SOL    HW220619   0.964   3.128   2.936  0.4329 -0.7591 -0.6531
 5258SOL     OW20620   0.240   7.317   3.375 -0.2268 -0.2384 -0.6851
 5258SOL    HW120621   0.288   7.295   3.455  0.7240 -1.1440 -1.4736
 5258SOL    HW220622   0.150   7.288   3.391 -0.1072 -0.1543  0.1521
 5259SOL     OW20623   3.958   0.332   3.156  0.4041 -0.2934 -0.4846
 5259SOL    HW120624   4.003   0.329   3.072 -0.0435 -0.3067 -0.7246
 5259SOL    HW220625   3.893   0.262   3.151  0.2170 -0.1413 -0.2165
 5260SOL     OW20626   3.390   5.908   1.268 -0.5307 -0.0550 -0.3350
 5260SOL    HW120627   3.403   5.856   1.189  1.3136 -4.9517  2.7586
 5260SOL    HW220628   3.301   5.887   1.297 -0.3810 -0.1679  0.0583
 5261SOL     OW20629   5.168   3.259   0.263  0.2110  0.2729 -0.1429
 5261SOL    HW120630   5.236   3.326   0.251  1.3249 -0.8346 -0.2064
 5261SOL    HW220631   5.132   3.278   0.349  1.6037  0.0416  0.5243
 5262SOL     OW20632   3.449   0.573   0.671  0.4445  0.4186 -0.0514
 5262SOL    HW120633   3.476   0.659   0.702 -0.0670  0.5477  0.0460
 5262SOL    HW220634   3.430   0.586   0.578  1.5736  0.1253 -0.3360
 5263SOL     OW20635   6.567   8.915   1.236 -0.0699 -0.5444  0.2741
 5263SOL    HW120636   6.631   8.957   1.294 -2.1392  0.1995  2.1738
 5263SOL    HW220637   6.524   8.988   1.191  0.4351 -1.0422 -1.0612
 5264SOL     OW20638   0.185   7.266   2.553  0.7400  0.2807  0.1441
 5264SOL    HW120639   0.187   7.212   2.474 -0.2416  0.7263 -0.2046
 5264SOL    HW220640   0.269   7.250   2.595  1.2141 -0.0811 -0.9071
 5265SOL     OW20641   5.254   7.443   1.875 -0.0172  0.5036  0.4346
 5265SOL    HW120642   5.275   7.472   1.963  2.4142 -2.7954  1.1660
 5265SOL    HW220643   5.190   7.373   1.887  1.6385 -1.2070 -0.0911
 5266SOL     OW20644   3.923   3.923   8.871 -0.1071 -0.1909  0.4214
 5266SOL    HW120645   3.897   3.831   8.863 -1.2283 -0.0691  2.1861
 5266SOL    HW220646   3.844   3.973   8.850  1.0686  0.5523 -2.9245
 5267SOL     OW20647   8.993   6.968   2.216 -0.6353 -0.1788 -0.6013
 5267SOL    HW120648   9.001   6.969   2.312 -0.1441  0.5045 -0.6436
 5267SOL    HW220649   8.901   6.949   2.200 -0.9954  0.9597  0.0265
 5268SOL     OW20650   6.202   3.052   1.387  0.4719  0.2741 -0.2377
 5268SOL    HW120651   6.189   3.006   1.304  0.7794  0.5305 -0.4313
 5268SOL    HW220652   6.122   3.104   1.398  0.5007  0.3651 -0.4540
 5269SOL     OW20653   2.109   7.118   9.244  0.4754 -0.4779 -0.1650
 5269SOL    HW120654   2.151   7.204   9.237  1.1238 -0.7964 -0.2287
 5269SOL    HW220655   2.055   7.125   9.323  2.5714 -0.8606  1.3877
 5270SOL     OW20656   1.391   6.584   4.867  0.2921  0.0636 -0.3259
 5270SOL    HW120657   1.401   6.489   4.871 -1.3589 -0.1907 -1.2328
 5270SOL    HW220658   1.386   6.604   4.774 -0.6904  0.8454 -0.1268
 5271SOL     OW20659   7.788   3.602   2.591 -0.2240  0.2133  0.1600
 5271SOL    HW120660   7.803   3.596   2.497  1.0247 -0.4394  0.3739
 5271SOL    HW220661   7.799   3.512   2.623 -3.7786 -0.2356  0.5595
 5272SOL     OW20662   8.720   5.956   0.842  0.1781 -0.1630  0.4389
 5272SOL    HW120663   8.784   5.913   0.785 -0.3066 -0.5187  0.1509
 5272SOL    HW220664   8.761   6.039   0.865  0.1160  0.2995 -0.9863
 5273SOL     OW20665   8.863   2.048   3.520 -0.3405  0.4180 -0.0820
 5273SOL    HW120666   8.826   2.078   3.603 -1.4638 -2.6303  0.6603
 5273SOL    HW220667   8.791   2.058   3.458 -0.8560 -0.9205  0.2565
 5274SOL     OW20668   5.233   4.134   6.708  0.0187  0.1274 -0.2186
 5274SOL    HW120669   5.266   4.200   6.646 -0.2495 -1.2550 -1.9130
 5274SOL    HW220670   5.286   4.146   6.786  3.0957 -0.5374 -2.0452
 5275SOL     OW20671   8.845   7.620   6.276  0.3027  0.0163 -0.2667
 5275SOL    HW120672   8.861   7.557   6.347 -0.1154 -1.6081 -1.5519
 5275SOL    HW220673   8.800   7.693   6.319 -0.0410 -0.9655  1.1242
 5276SOL     OW20674   4.622   7.357   3.626  0.0071 -0.3306  0.4838
 5276SOL    HW120675   4.529   7.380   3.635  0.4389  1.0387  2.1449
 5276SOL    HW220676   4.663   7.394   3.705  2.1194 -0.0287 -0.6839
 5277SOL     OW20677   4.984   3.937   1.284  0.0906  0.1194  0.1109
 5277SOL    HW120678   4.919   3.962   1.350 -0.1650  1.7028 -0.6937
 5277SOL    HW220679   5.065   3.980   1.312 -0.2841  1.7476 -1.1391
 5278SOL     OW20680   4.011   9.104   7.852 -0.5785 -0.1214  0.9972
 5278SOL    HW120681   3.983   9.029   7.799 -0.6948 -0.1305  1.0715
 5278SOL    HW220682   3.968   9.179   7.811  2.8432  0.5992 -1.7912
 5279SOL     OW20683   7.463   2.594   2.196 -0.3375  0.1582  0.7334
 5279SOL    HW120684   7.536   2.647   2.229  1.1361 -1.3953  0.1583
 5279SOL    HW220685   7.444   2.533   2.268 -1.4821  0.9042  1.0911
 5280SOL     OW20686   4.827   9.600   0.905  0.0456  0.0212 -0.1797
 5280SOL    HW120687   4.781   9.684   0.910 -1.2501 -0.6791  0.1060
 5280SOL    HW220688   4.817   9.562   0.993  0.2206 -0.6381 -0.4368
 5281SOL     OW20689   1.999   4.266   4.388  0.4083  0.0984 -0.5321
 5281SOL    HW120690   2.073   4.214   4.420 -2.0662 -2.6131  1.3720
 5281SOL    HW220691   1.963   4.214   4.316 -0.6183  0.4894 -0.3140
 5282SOL     OW20692   6.436   4.546   1.520 -0.4341 -0.3961  0.5308
 5282SOL    HW120693   6.414   4.639   1.518  1.4905  0.1116 -0.4216
 5282SOL    HW220694   6.455   4.525   1.428 -0.1380 -1.5362  0.8419
 5283SOL     OW20695   2.419   6.623   2.968 -0.0635 -0.2057  0.0852
 5283SOL    HW120696   2.373   6.548   3.002 -0.6692  0.2581  0.2976
 5283SOL    HW220697   2.400   6.623   2.874 -1.7840  0.8422  0.3870
 5284SOL     OW20698   0.193   0.062   2.781  0.8986 -0.6080  0.4466
 5284SOL    HW120699   0.220   0.145   2.743 -0.0077  0.0415  1.1736
 5284SOL    HW220700   0.205  -0.002   2.710  1.6300  0.1266 -0.1105
 5285SOL     OW20701   0.344   7.565   3.924 -0.4174 -0.0046 -0.4348
 5285SOL    HW120702   0.411   7.632   3.931 -3.1755  3.0171 -0.5247
 5285SOL    HW220703   0.338   7.546   3.830 -0.7936  1.0090 -0.6298
 5286SOL     OW20704   1.637   1.717   6.457  0.3824 -0.1833  0.5462
 5286SOL    HW120705   1.671   1.806   6.447 -1.3056  0.4438 -0.0162
 5286SOL    HW220706   1.543   1.729   6.470  0.0188 -1.9233 -0.2638
 5287SOL     OW20707   1.892   4.788   2.440 -0.2439  0.1528 -0.0674
 5287SOL    HW120708   1.930   4.875   2.454  0.2022 -0.1186  0.4213
 5287SOL    HW220709   1.798   4.800   2.456 -0.3396  0.7713 -1.0344
 5288SOL     OW20710   0.936   8.719   7.577  0.2495 -0.6444 -0.6091
 5288SOL    HW120711   0.916   8.651   7.641  0.2762 -0.1347 -0.0538
 5288SOL    HW220712   1.031   8.721   7.571  0.3713  0.8906  1.0935
 5289SOL     OW20713   3.091   9.572   8.118 -0.1956  0.3139  0.0981
 5289SOL    HW120714   3.080   9.491   8.168 -2.3625  0.5340  0.0727
 5289SOL    HW220715   3.085   9.544   8.026 -0.7703  0.4779  0.0853
 5290SOL     OW20716   8.708   5.704   8.100  0.2610 -0.2382 -0.1232
 5290SOL    HW120717   8.658   5.763   8.156 -0.0638  0.3589 -1.0200
 5290SOL    HW220718   8.755   5.648   8.161  1.6633  1.8155  0.8331
 5291SOL     OW20719   6.308   4.546   4.191 -0.1245 -0.0275  0.1466
 5291SOL    HW120720   6.244   4.504   4.134 -0.2636 -0.8903  0.9094
 5291SOL    HW220721   6.266   4.545   4.278  0.6063  0.0760  0.5049
 5292SOL     OW20722   6.453   6.081   7.409 -0.5640  0.3949  0.1162
 5292SOL    HW120723   6.517   6.012   7.428 -1.0033 -0.4565 -1.3587
 5292SOL    HW220724   6.372   6.034   7.389 -0.3760  1.1566 -2.9187
 5293SOL     OW20725   9.107   2.521   1.661 -0.0167  0.0730  0.4753
 5293SOL    HW120726   9.086   2.613   1.650  0.8966  0.5095  2.1834
 5293SOL    HW220727   9.094   2.503   1.754  1.0081 -1.2084  0.4063
 5294SOL     OW20728   4.755   8.578   0.936  0.0894 -0.0775  0.1873
 5294SOL    HW120729   4.724   8.501   0.984  0.7384  0.9671  2.3865
 5294SOL    HW220730   4.676   8.629   0.917 -0.2910 -1.0187 -0.8859
 5295SOL     OW20731   2.603   5.718   0.778 -0.3476  0.3839  0.2489
 5295SOL    HW120732   2.680   5.761   0.816 -0.0223  0.3039 -0.2919
 5295SOL    HW220733   2.531   5.741   0.836  0.0724  0.5302  0.7220
 5296SOL     OW20734   5.821   7.598   8.005 -0.1248 -0.4679 -0.6259
 5296SOL    HW120735   5.891   7.598   8.071  1.5302  0.0464 -2.2951
 5296SOL    HW220736   5.748   7.644   8.047  1.5587  1.6175  0.1921
 5297SOL     OW20737   9.752   4.311   5.256  0.2986 -0.4579 -0.9094
 5297SOL    HW120738   9.761   4.383   5.318 -0.3031  1.4063 -2.8617
 5297SOL    HW220739   9.738   4.234   5.310 -0.3770  1.0977  1.2456
 5298SOL     OW20740   6.104   2.529   2.033  0.1843  0.3507  0.4919
 5298SOL    HW120741   6.112   2.575   1.949 -0.0010  1.2210  0.9383
 5298SOL    HW220742   6.107   2.599   2.099 -1.4504 -0.1402  1.1340
 5299SOL     OW20743   5.553   2.508   5.378  0.6534  0.0528 -0.0547
 5299SOL    HW120744   5.628   2.460   5.343  0.7341  1.2921 -1.7259
 5299SOL    HW220745   5.560   2.498   5.473  2.7110 -0.1789 -0.1803
 5300SOL     OW20746   4.560   5.505   3.650 -0.2598  0.1225  0.0727
 5300SOL    HW120747   4.515   5.429   3.613 -0.6588  0.9408 -1.1845
 5300SOL    HW220748   4.512   5.524   3.731 -2.5300  1.2536 -1.4643
 5301SOL     OW20749   9.006   8.969   8.066 -0.8241  0.3096 -0.0153
 5301SOL    HW120750   8.925   8.926   8.094 -0.6743 -0.5786 -0.8858
 5301SOL    HW220751   9.006   8.959   7.971  0.6453 -0.3417  0.0318
 5302SOL     OW20752   4.588   5.971   5.989 -0.1709 -0.6195  0.0360
 5302SOL    HW120753   4.618   5.904   5.928 -1.1833 -1.0779  0.0125
 5302SOL    HW220754   4.538   6.032   5.934 -1.9230 -1.5564  0.5097
 5303SOL     OW20755   5.987   7.246   0.980  0.1753  0.4169 -0.1082
 5303SOL    HW120756   6.068   7.196   0.973  0.4951  0.9690 -0.4515
 5303SOL    HW220757   5.989   7.306   0.906  0.4170  1.8287  0.9972
 5304SOL     OW20758   7.627   3.265   3.409  0.8372 -0.3711  0.1160
 5304SOL    HW120759   7.709   3.227   3.440  1.8366  2.1254  0.7621
 5304SOL    HW220760   7.615   3.343   3.463 -0.9139  0.4197 -1.3199
 5305SOL     OW20761   8.035   8.793   2.672  0.6103 -0.7193  0.2337
 5305SOL    HW120762   7.968   8.850   2.710 -1.2978 -0.6824 -2.7861
 5305SOL    HW220763   8.106   8.794   2.735  0.0143  3.6450  1.2011
 5306SOL     OW20764   3.460   8.740   4.638 -0.5734 -0.1016 -0.0678
 5306SOL    HW120765   3.540   8.687   4.640 -0.7330 -0.3379  0.0140
 5306SOL    HW220766   3.408   8.709   4.711 -0.6129  0.2560  0.0597
 5307SOL     OW20767   4.504   1.578   6.785  0.4165 -0.2992 -0.1485
 5307SOL    HW120768   4.423   1.611   6.746 -1.4744 -2.3724  1.6847
 5307SOL    HW220769   4.523   1.640   6.856 -1.3096 -1.2570  1.2573
 5308SOL     OW20770   5.898   2.562   9.549  0.3338  0.0513 -0.0332
 5308SOL    HW120771   5.919   2.647   9.588  1.1575 -0.7580  1.3217
 5308SOL    HW220772   5.854   2.513   9.618 -0.0451 -0.6907 -0.7717
 5309SOL     OW20773   7.484   3.882   7.842 -0.2849 -0.2578 -0.0142
 5309SOL    HW120774   7.526   3.922   7.766  0.4943  1.5098  1.2897
 5309SOL    HW220775   7.531   3.799   7.855  0.9674  0.4015 -0.2181
 5310SOL     OW20776   7.639   5.713   3.963 -0.2527  0.1316  0.3325
 5310SOL    HW120777   7.566   5.772   3.983 -1.3203 -0.8679 -0.4550
 5310SOL    HW220778   7.700   5.767   3.913  0.3815  1.4407  2.3965
 5311SOL     OW20779   8.715   5.197   9.331  0.3723  0.2915  0.6956
 5311SOL    HW120780   8.633   5.238   9.357 -0.6475 -0.8230 -0.6168
 5311SOL    HW220781   8.760   5.180   9.414 -0.9199  0.5176  1.4691
 5312SOL     OW20782   2.126   4.441   4.215 -0.0492 -0.3420  0.3681
 5312SOL    HW120783   2.055   4.482   4.165 -0.5524 -0.3957  1.0191
 5312SOL    HW220784   2.080   4.385   4.278  0.5946 -0.9296  0.3258
 5313SOL     OW20785   9.265   8.412   6.373 -0.1097 -0.0584  0.2460
 5313SOL    HW120786   9.292   8.504   6.381  1.4646 -0.2245 -2.0103
 5313SOL    HW220787   9.337   8.362   6.412  0.8750 -0.3675 -1.7935
 5314SOL     OW20788   6.671   4.116   2.486  0.0889 -0.5991  0.0246
 5314SOL    HW120789   6.598   4.129   2.425  0.8119 -0.8211 -0.9138
 5314SOL    HW220790   6.673   4.196   2.539 -2.6275 -1.7232  2.0887
 5315SOL     OW20791   0.780   8.646   3.323 -0.1100 -0.4135 -0.4936
 5315SOL    HW120792   0.846   8.578   3.329 -1.0735 -1.3528  5.5500
 5315SOL    HW220793   0.708   8.605   3.275  0.5663 -2.4829  0.1693
 5316SOL     OW20794   3.621   4.160   9.684  0.2141 -0.4700  0.5093
 5316SOL    HW120795   3.648   4.251   9.672 -0.6871 -0.0255  1.6627
 5316SOL    HW220796   3.701   4.113   9.708  0.5152  0.2079  0.8393
 5317SOL     OW20797   8.303   1.619   1.833 -0.4428 -0.6761 -0.0637
 5317SOL    HW120798   8.300   1.644   1.925 -1.2311  0.4098 -0.3679
 5317SOL    HW220799   8.397   1.619   1.811 -0.3316  0.4457  0.3735
 5318SOL     OW20800   0.799   1.842   4.740  0.3147  0.2799 -0.3128
 5318SOL    HW120801   0.813   1.934   4.759  0.9335  0.2917 -0.7849
 5318SOL    HW220802   0.874   1.797   4.779  0.3255  0.0473 -0.5915
 5319SOL     OW20803   3.197   2.408   0.203 -0.4968 -0.2472 -0.1113
 5319SOL    HW120804   3.277   2.357   0.193 -1.2779 -1.4564 -0.5172
 5319SOL    HW220805   3.157   2.375   0.284  0.1272  1.4110  0.9218
 5320SOL     OW20806   0.995   5.816   7.450 -0.1446  0.4919 -0.2074
 5320SOL    HW120807   0.929   5.756   7.486  0.2457  0.5202  0.5855
 5320SOL    HW220808   0.971   5.826   7.358  0.0217 -1.2251 -0.4794
 5321SOL     OW20809   7.317   4.071   3.604 -0.7027  0.0890  0.1997
 5321SOL    HW120810   7.387   4.063   3.539  0.0415  0.8288  0.8832
 5321SOL    HW220811   7.342   4.146   3.657 -1.5305 -0.2222  1.0649
 5322SOL     OW20812   7.621   0.037   8.991 -0.5042  0.0220 -0.0445
 5322SOL    HW120813   7.682   0.026   8.918 -2.6275 -2.2306 -1.6483
 5322SOL    HW220814   7.579   0.122   8.974 -0.8764 -0.4081 -1.4346
 5323SOL     OW20815   6.725   2.130   8.594 -0.7089  0.7670  0.4846
 5323SOL    HW120816   6.709   2.224   8.590  0.8106  1.0367  0.0579
 5323SOL    HW220817   6.819   2.121   8.577 -0.9697 -0.8867 -0.2382
 5324SOL     OW20818   5.498   4.603   4.630  0.1519  0.7245  0.8070
 5324SOL    HW120819   5.535   4.676   4.681 -0.3085  0.2340  1.8773
 5324SOL    HW220820   5.420   4.641   4.588 -0.0655  0.8793  1.3319
 5325SOL     OW20821   2.062   6.937   5.542  0.2647 -0.7520  0.1760
 5325SOL    HW120822   1.979   6.979   5.564  1.3575  1.3115  0.6146
 5325SOL    HW220823   2.076   6.873   5.612 -0.3162 -0.1743  0.8330
 5326SOL     OW20824   4.998   1.378   6.226 -0.1249 -0.3210  0.5409
 5326SOL    HW120825   4.922   1.361   6.171  0.0925 -1.0968  0.4602
 5326SOL    HW220826   4.962   1.402   6.311 -0.4647 -1.1717  0.6447
 5327SOL     OW20827   6.917   6.684   5.912 -0.5582 -0.5806  0.2166
 5327SOL    HW120828   6.856   6.699   5.840  1.3361  0.2924 -1.3094
 5327SOL    HW220829   6.923   6.589   5.920 -0.3280 -0.6994 -1.2316
 5328SOL     OW20830   2.014   1.494   9.358  0.0201  0.2235  0.0890
 5328SOL    HW120831   2.014   1.575   9.409 -1.3001 -0.1276  0.6844
 5328SOL    HW220832   1.989   1.426   9.420 -0.8200 -0.3325 -0.8292
 5329SOL     OW20833   8.544   2.511   7.763 -0.4404 -0.7777  0.3096
 5329SOL    HW120834   8.456   2.547   7.749 -0.5179 -0.4953  1.4248
 5329SOL    HW220835   8.549   2.435   7.705 -0.7469  0.2626 -1.1264
 5330SOL     OW20836   6.660   3.717   7.049  0.2559  0.2379 -0.3035
 5330SOL    HW120837   6.753   3.741   7.049  0.5035 -0.6655  0.3105
 5330SOL    HW220838   6.635   3.717   6.957  0.8038  0.7224 -0.4568
 5331SOL     OW20839   8.398   5.432   7.600  0.2290  0.0305  0.1307
 5331SOL    HW120840   8.424   5.341   7.612 -0.1448 -0.0780  0.1322
 5331SOL    HW220841   8.304   5.433   7.619 -0.7208 -0.3670 -3.7722
 5332SOL     OW20842   6.337   4.807   7.291 -0.2347  0.1078 -0.6697
 5332SOL    HW120843   6.320   4.826   7.199 -0.8386  1.4812 -0.2944
 5332SOL    HW220844   6.417   4.856   7.311 -0.9597  1.0755 -0.0784
 5333SOL     OW20845   9.669   6.162   6.512 -0.2498 -0.0598  0.0467
 5333SOL    HW120846   9.580   6.150   6.479  0.7957 -2.6885 -2.1388
 5333SOL    HW220847   9.673   6.108   6.591 -0.7136  0.5584  0.5113
 5334SOL     OW20848   4.283   2.621   4.026  0.0089 -0.2710 -0.0848
 5334SOL    HW120849   4.326   2.701   4.056  0.7136 -0.8869  0.6019
 5334SOL    HW220850   4.291   2.624   3.930  1.9036 -0.5090  0.0220
 5335SOL     OW20851   1.248   4.564   3.701  0.4085 -0.0881 -0.2550
 5335SOL    HW120852   1.164   4.591   3.739  1.5413  1.6154  1.2046
 5335SOL    HW220853   1.229   4.480   3.659 -2.4229  1.0108 -1.5112
 5336SOL     OW20854   1.812   3.598   1.835 -0.0178 -0.1095  0.4729
 5336SOL    HW120855   1.747   3.585   1.766 -0.1315  3.0201 -0.1394
 5336SOL    HW220856   1.875   3.660   1.798  2.3063 -1.5541  1.7411
 5337SOL     OW20857   7.303   4.746   4.653  0.2544 -0.0092 -0.4889
 5337SOL    HW120858   7.386   4.761   4.607  1.2330  0.5449  1.3656
 5337SOL    HW220859   7.307   4.806   4.728 -0.7080 -1.7436  1.0115
 5338SOL     OW20860   8.336   7.612   3.833  0.2443 -0.3648  0.0833
 5338SOL    HW120861   8.388   7.562   3.770  0.7758  0.4575 -0.1467
 5338SOL    HW220862   8.253   7.565   3.838  0.4975 -0.9039 -0.6134
 5339SOL     OW20863   4.109   9.480   4.429 -0.1754 -0.6132  0.2492
 5339SOL    HW120864   4.165   9.465   4.353 -0.5967 -2.7579  0.3221
 5339SOL    HW220865   4.035   9.532   4.394  0.9906  0.8381 -0.1692
 5340SOL     OW20866   4.143   9.100   8.076  0.1778  0.0623  0.2046
 5340SOL    HW120867   4.153   9.195   8.084 -2.0337  0.2759  1.1501
 5340SOL    HW220868   4.091   9.087   7.997  1.4828 -0.4751 -0.5944
 5341SOL     OW20869   8.242   9.578   5.816 -0.1756  0.6831  0.1222
 5341SOL    HW120870   8.289   9.597   5.734 -0.7369  0.3729 -0.2780
 5341SOL    HW220871   8.162   9.533   5.788  0.3983 -0.9467  0.9356
 5342SOL     OW20872   7.467   6.841   1.922 -0.1729 -0.0737  0.2535
 5342SOL    HW120873   7.454   6.862   2.015  0.2835 -0.0582  0.3150
 5342SOL    HW220874   7.432   6.917   1.875 -0.9793 -0.3515  0.3890
 5343SOL     OW20875   3.715   1.601   8.440 -0.6273 -0.1335  0.8623
 5343SOL    HW120876   3.647   1.661   8.471 -1.1824  0.3855 -1.2102
 5343SOL    HW220877   3.770   1.654   8.383  0.0476 -1.1213  0.5667
 5344SOL     OW20878   3.759   6.600   5.144 -0.2425 -0.2550 -0.2907
 5344SOL    HW120879   3.687   6.630   5.200 -1.8272 -3.3805 -0.4289
 5344SOL    HW220880   3.828   6.574   5.204 -0.1426  0.5230 -0.0527
 5345SOL     OW20881   1.474   7.649   9.448  0.4029 -0.1729 -0.3637
 5345SOL    HW120882   1.563   7.673   9.423 -0.2649  1.9779 -0.8233
 5345SOL    HW220883   1.439   7.727   9.491 -0.9827 -1.2903  0.6388
 5346SOL     OW20884   6.255   9.608   4.632 -0.4926 -0.0102  0.1679
 5346SOL    HW120885   6.261   9.656   4.549  0.5020 -0.3228  0.0434
 5346SOL    HW220886   6.214   9.669   4.692 -0.7181  0.4207 -0.4108
 5347SOL     OW20887   4.120   1.313   7.756 -0.3045  0.4903  0.0072
 5347SOL    HW120888   4.158   1.279   7.675  2.3123 -0.0536  1.3453
 5347SOL    HW220889   4.110   1.236   7.812  0.5150  1.1785  1.1455
 5348SOL     OW20890   1.975   9.741   1.780 -0.0244 -0.6926  0.2619
 5348SOL    HW120891   1.897   9.772   1.827 -0.1162 -0.9509  0.2834
 5348SOL    HW220892   1.992   9.809   1.715 -0.5924 -0.8870 -0.0971
 5349SOL     OW20893   4.771   1.751   4.176 -0.0502 -0.2674 -0.0038
 5349SOL    HW120894   4.693   1.775   4.226  0.9534  1.6190  0.8027
 5349SOL    HW220895   4.826   1.830   4.179  1.8625 -1.4995 -0.5703
 5350SOL     OW20896   1.018   2.985   1.951  0.4435  0.0818  0.2321
 5350SOL    HW120897   1.023   3.065   2.004  0.1663  0.9172 -0.9619
 5350SOL    HW220898   1.095   2.989   1.894 -0.6952  0.6451 -1.3442
 5351SOL     OW20899   3.971   4.136   7.044 -0.2455 -0.4016  0.2519
 5351SOL    HW120900   3.913   4.185   7.103 -2.1533  1.6080 -2.9916
 5351SOL    HW220901   4.054   4.185   7.046 -0.1177 -0.6386  1.5481
 5352SOL     OW20902   0.555   2.530   4.044 -0.4682 -0.0744 -0.6786
 5352SOL    HW120903   0.589   2.442   4.059  0.2696  0.2964 -0.0888
 5352SOL    HW220904   0.476   2.517   3.992 -1.3906 -1.2148  0.9330
 5353SOL     OW20905   0.581   1.672   1.185 -0.5875  0.3316  0.6743
 5353SOL    HW120906   0.591   1.601   1.248 -1.1733 -0.7841 -0.4546
 5353SOL    HW220907   0.511   1.643   1.127  1.1878  0.4311 -1.6673
 5354SOL     OW20908   3.757   3.689   1.284 -0.0080  0.7411  0.7687
 5354SOL    HW120909   3.735   3.600   1.312 -1.4124  0.7136 -0.3002
 5354SOL    HW220910   3.725   3.745   1.355 -0.6355  0.4806  0.7019
 5355SOL     OW20911   3.833   1.706   5.821  0.1229  0.2968 -0.2647
 5355SOL    HW120912   3.818   1.720   5.728 -0.2609  3.3386  0.1423
 5355SOL    HW220913   3.922   1.671   5.826 -0.9778 -3.2159 -1.8434
 5356SOL     OW20914   7.967   0.044   4.193 -0.3097  0.2443 -0.0030
 5356SOL    HW120915   7.918   0.125   4.186 -0.1127  0.2816 -1.3332
 5356SOL    HW220916   8.041   0.056   4.134  0.2837 -0.5147  0.5629
 5357SOL     OW20917   7.305   3.647   8.505 -0.9175 -0.4632 -0.2226
 5357SOL    HW120918   7.325   3.598   8.425  0.7579  0.8151 -0.6409
 5357SOL    HW220919   7.304   3.739   8.476  0.4115  0.0775  1.3313
 5358SOL     OW20920   0.438   4.931   7.403 -0.1158  0.8164 -0.0628
 5358SOL    HW120921   0.500   4.873   7.445 -1.5713 -0.8718 -0.1391
 5358SOL    HW220922   0.417   4.996   7.470  1.2712  1.0798  0.1376
 5359SOL     OW20923   0.402   0.758   4.966  0.4688 -0.5783  0.4492
 5359SOL    HW120924   0.312   0.774   4.937  0.3135  0.8627  1.5859
 5359SOL    HW220925   0.394   0.688   5.031 -0.2469  1.1258  2.3208
 5360SOL     OW20926   0.246   1.730   7.667 -0.3497 -0.3464  0.2383
 5360SOL    HW120927   0.268   1.670   7.738 -0.1636 -1.8363 -1.0276
 5360SOL    HW220928   0.330   1.760   7.633 -0.2812 -2.2281 -1.4360
 5361SOL     OW20929   8.362   4.163   0.615 -0.0882 -0.3963  0.2162
 5361SOL    HW120930   8.369   4.167   0.711  0.6165 -2.6396  0.3189
 5361SOL    HW220931   8.322   4.078   0.598 -2.9621  1.1405 -1.4480
 5362SOL     OW20932   7.189   6.281   8.982 -0.4989  0.2517  0.4714
 5362SOL    HW120933   7.196   6.284   8.887  2.1308 -0.1089  0.5653
 5362SOL    HW220934   7.193   6.373   9.009 -1.0374  0.3427  0.2457
 5363SOL     OW20935   1.460   2.574   7.511  0.3114 -0.2031 -0.3419
 5363SOL    HW120936   1.437   2.630   7.438 -1.0809  2.0160  1.6608
 5363SOL    HW220937   1.407   2.495   7.499 -1.6666  1.1090 -0.5326
 5364SOL     OW20938   7.248   6.030   7.736  0.1064 -0.1097 -0.3496
 5364SOL    HW120939   7.231   6.100   7.672 -1.5556 -0.9064 -0.8286
 5364SOL    HW220940   7.170   5.974   7.732  1.4088 -2.0343 -0.0102
 5365SOL     OW20941   1.025   4.887   5.440 -0.0849  0.3229 -0.5932
 5365SOL    HW120942   0.946   4.836   5.425  0.7425 -1.2871  0.3142
 5365SOL    HW220943   1.076   4.836   5.502  0.8686  2.2027  0.2577
 5366SOL     OW20944   0.080   4.213   7.489  0.1050  0.5258 -0.5996
 5366SOL    HW120945   0.120   4.126   7.485  1.5573  1.1055  0.3553
 5366SOL    HW220946   0.125   4.264   7.422 -1.4426  0.3371 -1.8694
 5367SOL     OW20947   1.512   1.964   6.742 -0.3595  0.1256 -0.9730
 5367SOL    HW120948   1.554   1.916   6.812  1.7219  0.8950 -1.6027
 5367SOL    HW220949   1.421   1.934   6.742 -0.2702 -0.3318  1.6109
 5368SOL     OW20950   5.195   2.168   0.621  0.2975  0.0045 -0.4817
 5368SOL    HW120951   5.233   2.256   0.621 -3.1313  1.6179 -0.9483
 5368SOL    HW220952   5.185   2.146   0.714  0.7621  0.2622 -0.3660
 5369SOL     OW20953   7.974   7.032   5.672  0.0445 -0.3699 -0.1091
 5369SOL    HW120954   7.975   7.102   5.607 -1.5794 -0.5762 -0.3853
 5369SOL    HW220955   8.067   7.009   5.684  0.5438  1.2529 -0.6082
 5370SOL     OW20956   0.154   8.286   2.382  0.5570  0.0768 -0.0509
 5370SOL    HW120957   0.182   8.295   2.291  1.5168 -1.3750  0.0645
 5370SOL    HW220958   0.193   8.204   2.411 -2.6557 -1.4023  0.5844
 5371SOL     OW20959   0.307   2.246   1.770 -0.3849 -0.4509  0.0400
 5371SOL    HW120960   0.386   2.300   1.766 -1.0592  0.5074 -2.5045
 5371SOL    HW220961   0.338   2.160   1.796  1.2917  0.2426  0.4743
 5372SOL     OW20962   7.107   7.774   8.089 -0.5915 -0.1657 -0.2684
 5372SOL    HW120963   7.090   7.825   8.010 -0.7387 -1.4533 -1.1086
 5372SOL    HW220964   7.197   7.796   8.113 -0.7399  0.6743 -0.4519
 5373SOL     OW20965   2.495   7.331   1.282  0.6575  0.4082 -0.4108
 5373SOL    HW120966   2.415   7.291   1.315  0.3088  1.0438 -0.4730
 5373SOL    HW220967   2.528   7.383   1.355  1.8385 -1.0211  0.1233
 5374SOL     OW20968   6.256   8.837   6.298 -0.4323 -0.0748 -0.7132
 5374SOL    HW120969   6.208   8.755   6.285  1.7193 -2.0905  2.5177
 5374SOL    HW220970   6.187   8.902   6.316 -2.1397 -1.5262 -1.6599
 5375SOL     OW20971   6.649   0.626   7.592 -0.2747 -0.2327  0.0418
 5375SOL    HW120972   6.735   0.585   7.580 -0.2428  0.1229 -1.0231
 5375SOL    HW220973   6.654   0.666   7.679 -0.6413 -3.2513  1.6149
 5376SOL     OW20974   0.422   2.121   5.013 -0.3399 -0.3074 -0.3685
 5376SOL    HW120975   0.340   2.139   4.968 -0.7855 -2.6671 -0.6567
 5376SOL    HW220976   0.397   2.106   5.104  0.3526  2.8371  0.4519
 5377SOL     OW20977   1.669   4.425   6.285 -0.3120 -0.2543 -0.5092
 5377SOL    HW120978   1.607   4.491   6.317  0.1824 -0.5018  1.0905
 5377SOL    HW220979   1.711   4.466   6.209 -2.2074  0.0208 -1.4633
 5378SOL     OW20980   0.427   6.831   6.327  0.4078  0.0086  0.0170
 5378SOL    HW120981   0.459   6.913   6.289  3.2923  0.1583  2.4483
 5378SOL    HW220982   0.360   6.858   6.390  0.1743  0.3166 -0.3573
 5379SOL     OW20983   0.836   1.371   3.604 -0.0865 -0.1879  0.3032
 5379SOL    HW120984   0.815   1.464   3.595  1.1827  0.3372  2.0666
 5379SOL    HW220985   0.819   1.334   3.517 -1.1629  1.5633 -0.2890
 5380SOL     OW20986   6.254   6.714   5.980 -0.5816  0.2322  0.0648
 5380SOL    HW120987   6.263   6.635   5.927  2.0310  0.6866 -0.2814
 5380SOL    HW220988   6.227   6.682   6.067 -1.7966 -0.7785 -0.6487
 5381SOL     OW20989   9.075   3.968   2.180  0.3888  0.1410  0.5301
 5381SOL    HW120990   9.133   3.968   2.104  0.4589 -3.8486  0.3984
 5381SOL    HW220991   8.990   3.995   2.146  0.1750 -2.5384 -1.3019
 5382SOL     OW20992   7.186   4.404   7.006  0.3047 -0.2953 -0.4498
 5382SOL    HW120993   7.182   4.447   7.092  1.7978  0.2876 -0.6327
 5382SOL    HW220994   7.167   4.474   6.944  0.3417 -0.4527 -0.6371
 5383SOL     OW20995   7.614   8.197   0.176  0.4126 -0.6437 -0.4365
 5383SOL    HW120996   7.554   8.190   0.102 -0.2246 -2.5346  0.2145
 5383SOL    HW220997   7.558   8.210   0.252  1.0731  1.4892 -0.2462
 5384SOL     OW20998   3.534   0.777   7.565  0.2869 -0.2947  0.5331
 5384SOL    HW120999   3.445   0.802   7.592 -0.0636  2.1078 -2.3094
 5384SOL    HW221000   3.590   0.845   7.601  0.5574 -0.1829 -0.0820
 5385SOL     OW21001   4.795   4.419   2.371  0.2428  0.2820  0.8200
 5385SOL    HW121002   4.719   4.472   2.395 -0.6899 -1.3986  1.7615
 5385SOL    HW221003   4.761   4.355   2.309  1.0568 -0.0566  0.7118
 5386SOL     OW21004   6.618   6.484   3.676 -0.1333  0.5712 -0.5792
 5386SOL    HW121005   6.669   6.541   3.618  0.3312  1.2186  0.4320
 5386SOL    HW221006   6.624   6.527   3.762 -0.3115 -0.6724  0.0703
 5387SOL     OW21007   6.770   7.758   4.101  0.3257  0.3260  0.3909
 5387SOL    HW121008   6.704   7.803   4.154 -0.8411 -0.6986 -0.1568
 5387SOL    HW221009   6.837   7.731   4.165 -0.3786  0.3013  1.1354
 5388SOL     OW21010   2.046   1.021   2.780 -0.1511  0.3054 -0.5739
 5388SOL    HW121011   2.005   1.027   2.866  1.2754 -1.5154  0.2951
 5388SOL    HW221012   1.993   0.956   2.733 -0.0706  0.2130 -0.5380
 5389SOL     OW21013   0.522   5.900   2.202 -0.2551  0.3867  0.6077
 5389SOL    HW121014   0.531   5.817   2.248  0.5489  0.5659  0.7768
 5389SOL    HW221015   0.516   5.965   2.272 -2.4507  0.3538  0.5305
 5390SOL     OW21016   8.534   8.417   7.455 -0.2310 -0.1639 -0.4819
 5390SOL    HW121017   8.456   8.443   7.407 -0.7460 -0.5027  0.1557
 5390SOL    HW221018   8.604   8.471   7.419 -0.6815 -0.1310 -1.3264
 5391SOL     OW21019   8.646   4.447   4.136  0.5503  0.3063 -0.6070
 5391SOL    HW121020   8.596   4.390   4.078 -0.9268  0.0181  0.8923
 5391SOL    HW221021   8.726   4.398   4.155 -0.1217 -0.6967 -0.3595
 5392SOL     OW21022   1.059   6.587   3.677  0.5737 -0.1179 -0.3327
 5392SOL    HW121023   1.083   6.572   3.769 -0.2366  0.2392 -0.0456
 5392SOL    HW221024   1.140   6.575   3.628  0.8474 -1.1628  0.3412
 5393SOL     OW21025   6.305   2.106   6.704 -0.0529  0.2545 -0.3675
 5393SOL    HW121026   6.350   2.025   6.680 -0.3728  0.0566 -0.2985
 5393SOL    HW221027   6.236   2.115   6.638 -0.0829  0.4140 -0.3138
 5394SOL     OW21028   9.180   6.777   4.219 -0.5794 -0.4486  0.5464
 5394SOL    HW121029   9.086   6.777   4.199 -0.8389  1.4881  1.5343
 5394SOL    HW221030   9.185   6.807   4.310  1.0307  0.5301  0.1723
 5395SOL     OW21031   7.645   6.877   6.380 -0.2695  0.3054 -1.1009
 5395SOL    HW121032   7.576   6.894   6.316 -0.6564  0.7565 -0.5722
 5395SOL    HW221033   7.726   6.906   6.336 -0.6241  1.3434 -1.1048
 5396SOL     OW21034   5.742   1.903   1.790  0.7374 -0.2231  0.4235
 5396SOL    HW121035   5.663   1.887   1.738  0.3632  0.5679  0.7359
 5396SOL    HW221036   5.709   1.931   1.875  1.3582 -0.0770  0.6161
 5397SOL     OW21037   3.830   2.153   5.662  0.1813  0.1453  0.1902
 5397SOL    HW121038   3.835   2.220   5.593  1.5763 -1.1554 -1.0405
 5397SOL    HW221039   3.869   2.075   5.622 -0.2146 -1.0353  2.0233
 5398SOL     OW21040   0.378   7.450   2.080 -0.8269 -0.3169 -0.6793
 5398SOL    HW121041   0.401   7.440   2.172 -1.1505 -0.0997 -0.5755
 5398SOL    HW221042   0.429   7.526   2.051 -1.3257  0.0929 -0.4794
 5399SOL     OW21043   6.021   4.676   6.037 -0.4446  0.1318 -0.4266
 5399SOL    HW121044   6.009   4.592   6.082 -1.6413 -0.6170 -2.0445
 5399SOL    HW221045   6.099   4.662   5.983 -0.8718 -0.0983 -0.9955
 5400SOL     OW21046   0.661   8.501   2.885 -0.2436 -0.0194 -0.5701
 5400SOL    HW121047   0.598   8.571   2.867 -0.8561 -0.6441 -0.8833
 5400SOL    HW221048   0.698   8.524   2.970 -1.2529  0.0938 -0.1520
 5401SOL     OW21049   8.711   0.299   7.793  0.3224  0.2437 -0.4914
 5401SOL    HW121050   8.627   0.325   7.833 -0.4244 -0.8496 -1.2929
 5401SOL    HW221051   8.776   0.352   7.839 -0.5703 -0.4442  1.6851
 5402SOL     OW21052   0.864   4.215   3.707  0.2932  0.4038  0.2428
 5402SOL    HW121053   0.828   4.287   3.760  0.0262  1.1844 -0.9545
 5402SOL    HW221054   0.885   4.147   3.771  2.1106  2.1541  1.6397
 5403SOL     OW21055   6.125   7.869   1.667 -0.4635 -0.1940  0.2157
 5403SOL    HW121056   6.125   7.784   1.710  1.1306 -0.4380 -0.2019
 5403SOL    HW221057   6.154   7.852   1.578 -0.3543  0.7491  0.0546
 5404SOL     OW21058   3.339   4.280   7.482 -0.0713 -0.2237  1.0274
 5404SOL    HW121059   3.257   4.256   7.438  0.3141 -1.2845  0.8508
 5404SOL    HW221060   3.332   4.239   7.568  0.6077 -1.0258  0.7177
 5405SOL     OW21061   1.651   6.896   9.752  0.1533 -0.0531  0.4785
 5405SOL    HW121062   1.647   6.937   9.666  0.0767 -2.0301 -0.5296
 5405SOL    HW221063   1.561   6.899   9.785 -0.0833 -0.4874 -0.1186
 5406SOL     OW21064   7.684   2.401   8.543  0.2890  0.0750 -0.2232
 5406SOL    HW121065   7.746   2.329   8.554  1.4530  1.2853  1.6681
 5406SOL    HW221066   7.613   2.382   8.603 -1.0781 -1.1034 -2.1006
 5407SOL     OW21067   8.561   2.391   2.960  0.8319  0.0295  0.5623
 5407SOL    HW121068   8.626   2.448   3.003  0.5394  0.4886  0.4029
 5407SOL    HW221069   8.584   2.303   2.989  1.8930  0.1146  0.0543
 5408SOL     OW21070   9.515   4.511   7.047  0.2790 -0.2592 -0.2153
 5408SOL    HW121071   9.502   4.421   7.015 -0.0523  0.2729 -1.6547
 5408SOL    HW221072   9.567   4.500   7.127  0.7139 -1.7007 -0.6485
 5409SOL     OW21073   4.965   6.401   7.564  0.1555  0.4482 -0.1627
 5409SOL    HW121074   5.011   6.458   7.626 -1.4316  0.5825  0.9833
 5409SOL    HW221075   4.940   6.459   7.492  0.6299  0.6577 -0.1583
 5410SOL     OW21076   7.212   2.626   5.291  0.4285 -0.1684  0.5789
 5410SOL    HW121077   7.303   2.638   5.261 -0.1420  1.3472 -0.6916
 5410SOL    HW221078   7.218   2.625   5.386  1.7866 -0.1482  0.5153
 5411SOL     OW21079   8.832   6.049   2.911 -0.3481  0.0352 -0.3818
 5411SOL    HW121080   8.752   6.100   2.897 -0.6969 -0.3104  0.3082
 5411SOL    HW221081   8.833   5.985   2.839  0.5053  1.4936 -1.7181
 5412SOL     OW21082   3.926   4.076   7.891  0.6964 -0.0873  0.6000
 5412SOL    HW121083   3.932   3.986   7.925  0.8283 -0.7375 -1.0471
 5412SOL    HW221084   3.840   4.080   7.850  1.4501 -0.1264 -1.0588
 5413SOL     OW21085   1.094   6.839   1.244 -0.6187  0.6858 -0.3327
 5413SOL    HW121086   0.999   6.839   1.248 -0.7919  0.9202 -2.7093
 5413SOL    HW221087   1.121   6.767   1.301 -2.1225  1.3835  1.3256
 5414SOL     OW21088   1.018   1.352   0.572  0.1317  0.1700 -0.1057
 5414SOL    HW121089   1.065   1.281   0.529  0.0023 -0.2782  0.4830
 5414SOL    HW221090   1.047   1.431   0.525  0.9885 -0.1597 -0.1590
 5415SOL     OW21091   8.252   2.276   5.971  0.3402  0.3612 -0.3229
 5415SOL    HW121092   8.185   2.309   6.031  0.2686  0.8307 -0.6450
 5415SOL    HW221093   8.241   2.330   5.892  1.2722  0.6328 -0.2820
 5416SOL     OW21094   7.980   1.547   6.081  0.6821 -0.7051  0.8061
 5416SOL    HW121095   8.072   1.561   6.057  0.0293  0.4740 -1.1893
 5416SOL    HW221096   7.940   1.512   6.002 -0.9905  0.6381  1.0224
 5417SOL     OW21097   6.197   5.733   3.557 -0.0069  0.5223 -0.2814
 5417SOL    HW121098   6.233   5.794   3.621 -0.0421 -0.7247  0.9644
 5417SOL    HW221099   6.274   5.694   3.514  0.0129  1.5871 -1.2555
 5418SOL     OW21100   7.919   7.091   2.886 -0.0238 -0.6687  0.4341
 5418SOL    HW121101   7.992   7.050   2.932 -0.3160  0.3571  1.8574
 5418SOL    HW221102   7.954   7.111   2.799  0.7717 -1.9283  0.4328
 5419SOL     OW21103   4.573   2.631   3.664 -0.1608  0.2757  0.3708
 5419SOL    HW121104   4.656   2.589   3.685 -0.0012 -2.0645 -3.8234
 5419SOL    HW221105   4.586   2.724   3.686  3.8764  0.1372 -0.7087
 5420SOL     OW21106   7.606   5.018   8.471 -0.1884  0.0780  0.6683
 5420SOL    HW121107   7.668   5.065   8.415 -0.0361  0.5928  1.2610
 5420SOL    HW221108   7.530   5.003   8.415  0.2558 -0.0819  0.0983
 5421SOL     OW21109   6.040   0.480   6.309 -0.2098 -0.1971 -0.8965
 5421SOL    HW121110   5.991   0.561   6.327 -1.0435 -0.6522 -1.0601
 5421SOL    HW221111   6.007   0.418   6.373 -0.6295 -0.8166 -1.6989
 5422SOL     OW21112   8.389   4.147   0.887  0.2507 -0.5385 -0.2734
 5422SOL    HW121113   8.331   4.177   0.957  1.5989  0.6021  0.4105
 5422SOL    HW221114   8.477   4.153   0.925  0.9625 -0.4979 -1.8654
 5423SOL     OW21115   1.715   1.125   1.231  0.9987  0.1069 -0.5693
 5423SOL    HW121116   1.755   1.206   1.260  1.4819 -0.4232  0.2947
 5423SOL    HW221117   1.787   1.063   1.224  0.2768 -1.1923  2.1581
 5424SOL     OW21118   7.509   9.646   4.182  0.2942  0.3811  0.0695
 5424SOL    HW121119   7.470   9.559   4.176  0.7644  0.1152  0.7692
 5424SOL    HW221120   7.446   9.704   4.139 -0.8896 -0.0355  1.2082
 5425SOL     OW21121   5.200   1.919   0.481  0.2426  0.1759  0.0876
 5425SOL    HW121122   5.167   1.841   0.526  2.8540 -1.0226  0.1007
 5425SOL    HW221123   5.210   1.984   0.550 -0.9174  0.1818  0.2687
 5426SOL     OW21124   5.240   0.974   6.432 -0.7288 -0.3221 -1.0728
 5426SOL    HW121125   5.264   1.047   6.489 -1.4450 -2.0528  1.6244
 5426SOL    HW221126   5.320   0.921   6.426 -1.4254 -1.6809  0.8828
 5427SOL     OW21127   9.516   4.850   6.603 -0.0207  0.5115 -0.8911
 5427SOL    HW121128   9.608   4.829   6.591  0.1642  0.7094  0.1365
 5427SOL    HW221129   9.514   4.943   6.625 -0.0446 -0.3167  3.2887
 5428SOL     OW21130   0.089   2.474   6.329  0.1974  0.1522 -0.1670
 5428SOL    HW121131   0.123   2.534   6.263 -0.0942 -3.3713 -3.9306
 5428SOL    HW221132   0.166   2.453   6.384  1.1404  1.2122 -1.0417
 5429SOL     OW21133   0.270   7.857   9.282 -0.6105  0.2563  0.4594
 5429SOL    HW121134   0.346   7.818   9.326 -0.0162  2.3494  1.4276
 5429SOL    HW221135   0.196   7.803   9.310  0.1076  0.0539  2.0734
 5430SOL     OW21136   3.184   0.194   5.238  0.1118 -0.5217  0.0720
 5430SOL    HW121137   3.238   0.160   5.166 -0.2703  0.6308 -0.7847
 5430SOL    HW221138   3.247   0.224   5.303  0.5412  0.5076 -0.7791
 5431SOL     OW21139   8.947   2.869   7.217 -0.5018  0.5857 -0.4301
 5431SOL    HW121140   9.032   2.902   7.187  0.6508 -0.3127  1.6528
 5431SOL    HW221141   8.966   2.780   7.249 -2.2029  0.4128  0.2107
 5432SOL     OW21142   2.121   9.585   4.930  0.0906 -0.3976 -0.0774
 5432SOL    HW121143   2.084   9.497   4.924  0.1198 -0.3452 -1.5268
 5432SOL    HW221144   2.151   9.604   4.841  0.3468  0.9688  0.2760
 5433SOL     OW21145   4.198   1.428   8.213  0.0046  0.0954 -0.5139
 5433SOL    HW121146   4.231   1.508   8.252 -3.0232  0.2981  2.0113
 5433SOL    HW221147   4.192   1.447   8.119  1.7885  1.8152 -0.3247
 5434SOL     OW21148   2.539   6.265   5.735  0.3757 -0.1069 -0.3337
 5434SOL    HW121149   2.509   6.253   5.644  0.5203 -1.6000 -0.2074
 5434SOL    HW221150   2.467   6.312   5.777  0.5162  1.0583 -1.3270
 5435SOL     OW21151   7.953   4.456   5.791  0.4123 -0.1565 -0.2799
 5435SOL    HW121152   7.864   4.471   5.822  0.6639  1.5467 -0.3099
 5435SOL    HW221153   7.945   4.455   5.696  0.2351 -1.4115 -0.2660
 5436SOL     OW21154   3.937   5.625   0.514 -0.2424 -0.5817 -0.0514
 5436SOL    HW121155   3.935   5.683   0.438  0.5956 -0.4105  0.0512
 5436SOL    HW221156   3.850   5.585   0.516 -1.3270  1.6682  0.6628
 5437SOL     OW21157   9.099   5.200   2.862  0.1434  0.2120 -0.4478
 5437SOL    HW121158   9.107   5.218   2.956  0.7937 -0.4102 -0.3830
 5437SOL    HW221159   9.080   5.286   2.823 -0.3259  0.4409  0.2699
 5438SOL     OW21160   9.628   4.120   7.914 -0.4609 -0.0934 -0.1654
 5438SOL    HW121161   9.676   4.060   7.971  1.1542  2.4586  1.3696
 5438SOL    HW221162   9.674   4.204   7.923 -1.9948  1.1939 -2.9214
 5439SOL     OW21163   7.619   5.213   6.163  0.3807 -0.4962 -0.2235
 5439SOL    HW121164   7.554   5.281   6.182 -1.1047 -1.3159 -2.0568
 5439SOL    HW221165   7.695   5.237   6.217 -1.7729 -0.1450  2.9677
 5440SOL     OW21166   3.864   7.451   5.569  0.5416  0.3592  0.2509
 5440SOL    HW121167   3.831   7.417   5.652 -0.9927  1.6439  0.2185
 5440SOL    HW221168   3.925   7.521   5.595  0.3215  0.5320  0.3078
 5441SOL     OW21169   0.828   4.770   0.959  0.1054  0.3820  0.3087
 5441SOL    HW121170   0.859   4.679   0.962  0.6653  0.5085 -0.9973
 5441SOL    HW221171   0.742   4.764   0.916  0.6151  0.5718 -0.7564
 5442SOL     OW21172   9.257   6.395   6.502 -0.3363 -0.0696  0.9187
 5442SOL    HW121173   9.230   6.474   6.548  0.1068 -0.6524  2.2358
 5442SOL    HW221174   9.175   6.353   6.475 -0.5639  1.4149 -0.8888
 5443SOL     OW21175   5.829   4.685   9.101  0.5071  0.2656 -0.2356
 5443SOL    HW121176   5.769   4.624   9.144 -0.1860  1.9348  1.2564
 5443SOL    HW221177   5.827   4.659   9.009 -1.4043 -0.6273  0.0134
 5444SOL     OW21178   6.356   3.783   5.623 -0.2858  0.2099 -0.1768
 5444SOL    HW121179   6.262   3.786   5.638 -0.1976  0.8516  0.2836
 5444SOL    HW221180   6.366   3.743   5.536 -0.8786 -2.0624  0.7270
 5445SOL     OW21181   7.568   3.881   1.194  0.1990 -0.2036 -0.4299
 5445SOL    HW121182   7.538   3.939   1.124 -2.4024 -0.3388  0.4495
 5445SOL    HW221183   7.578   3.938   1.270  1.4692 -0.3128 -0.4948
 5446SOL     OW21184   9.462   5.495   1.196  0.0837 -0.4825 -0.1601
 5446SOL    HW121185   9.396   5.536   1.253  0.6361  0.1641  0.0382
 5446SOL    HW221186   9.427   5.504   1.108 -0.6900 -1.3140  0.0512
 5447SOL     OW21187   9.560   7.526   3.302 -0.2844 -0.0996 -1.0486
 5447SOL    HW121188   9.627   7.587   3.334 -0.7197  0.9429 -2.0830
 5447SOL    HW221189   9.607   7.468   3.242  0.1451 -0.8692 -0.0054
 5448SOL     OW21190   5.292   0.319   6.563  0.1949 -0.0953  0.1460
 5448SOL    HW121191   5.262   0.284   6.479 -0.1725 -0.4502  0.4232
 5448SOL    HW221192   5.296   0.414   6.548  0.6437 -0.2004 -0.4308
 5449SOL     OW21193   5.471   7.169   5.890 -0.0476 -0.0943 -0.5928
 5449SOL    HW121194   5.506   7.187   5.977 -0.6159  2.0937 -0.7526
 5449SOL    HW221195   5.401   7.105   5.906  1.0816 -1.1740  0.2705
 5450SOL     OW21196   5.744   5.816   3.230 -0.3445  0.5213  0.0386
 5450SOL    HW121197   5.695   5.898   3.239 -0.3042  0.3627  2.1435
 5450SOL    HW221198   5.818   5.826   3.291  0.9737 -0.1794 -1.3803
 5451SOL     OW21199   1.259   5.927   8.014 -0.0310 -0.0838  0.6610
 5451SOL    HW121200   1.286   6.009   7.973 -0.9077  0.6063  1.4348
 5451SOL    HW221201   1.337   5.871   8.008 -0.2264 -0.2471 -2.3813
 5452SOL     OW21202   8.332   5.145   1.844  0.8194 -0.1600  0.1864
 5452SOL    HW121203   8.284   5.180   1.919  0.9249 -2.9406  1.6565
 5452SOL    HW221204   8.417   5.119   1.879 -0.0857 -4.0926 -0.0887
 5453SOL     OW21205   2.487   2.347   1.938  0.6436  0.3740 -0.5924
 5453SOL    HW121206   2.483   2.301   1.854 -1.5891 -1.5706  0.4598
 5453SOL    HW221207   2.499   2.439   1.915  0.1710 -0.1161 -3.0240
 5454SOL     OW21208   3.908   3.235   5.494 -0.5653  0.2184  0.2986
 5454SOL    HW121209   3.885   3.239   5.587  2.6306  1.0880  1.1719
 5454SOL    HW221210   3.872   3.316   5.457 -0.6599  0.5526  1.1022
 5455SOL     OW21211   5.581   4.375   4.519 -0.3404 -0.3572 -0.0687
 5455SOL    HW121212   5.560   4.451   4.574 -1.8103 -1.2689  0.6781
 5455SOL    HW221213   5.523   4.306   4.550  0.8719 -1.7703 -0.8289
 5456SOL     OW21214   4.110   0.232   0.314  0.1148 -0.5492 -0.4365
 5456SOL    HW121215   4.153   0.160   0.267  2.9534 -1.2208  2.8099
 5456SOL    HW221216   4.116   0.306   0.254  0.9332 -1.9900 -2.2546
 5457SOL     OW21217   1.206   6.393   6.511  0.2590  0.2607 -0.3446
 5457SOL    HW121218   1.111   6.391   6.505  0.1501  1.5958  0.5908
 5457SOL    HW221219   1.236   6.359   6.426 -0.9850 -2.5038  0.2278
 5458SOL     OW21220   4.861   4.817   4.667  0.2635 -0.8297 -0.0991
 5458SOL    HW121221   4.946   4.850   4.639  0.2943 -1.0275 -0.2476
 5458SOL    HW221222   4.881   4.747   4.729  0.2592 -1.7857 -1.1273
 5459SOL     OW21223   0.823   4.496   3.472 -0.6695  0.7544 -0.0084
 5459SOL    HW121224   0.839   4.423   3.412 -0.0920  2.0708 -1.5381
 5459SOL    HW221225   0.906   4.544   3.474 -1.4123  2.0935 -0.0687
 5460SOL     OW21226   2.193   3.435   5.995  0.1914 -0.2124 -0.1259
 5460SOL    HW121227   2.143   3.503   5.951  1.2746 -0.1459 -1.3104
 5460SOL    HW221228   2.159   3.435   6.085  0.1591  1.8993 -0.0792
 5461SOL     OW21229   6.811   5.501   8.360  0.3906 -0.1370 -0.0279
 5461SOL    HW121230   6.892   5.551   8.352  0.2194 -0.0426 -1.4392
 5461SOL    HW221231   6.826   5.441   8.433  0.4927  2.1472  1.9297
 5462SOL     OW21232   2.143   6.898   5.282  0.1290  0.2131  0.2646
 5462SOL    HW121233   2.124   6.897   5.376 -0.2110  1.1943  0.2225
 5462SOL    HW221234   2.064   6.933   5.242  1.1655  2.3123 -0.1219
 5463SOL     OW21235   5.510   4.239   5.720  0.4660 -0.0051  0.1325
 5463SOL    HW121236   5.509   4.332   5.700 -0.1727 -0.1901 -0.7068
 5463SOL    HW221237   5.433   4.225   5.775  0.1276 -0.1750 -0.3817
 5464SOL     OW21238   2.270   7.570   7.668 -0.1876  0.3463  0.3429
 5464SOL    HW121239   2.351   7.618   7.684 -0.6530  0.6827  1.8230
 5464SOL    HW221240   2.299   7.487   7.630  0.7157  1.1562 -0.7994
 5465SOL     OW21241   8.607   6.990   7.099 -0.3214  0.3531 -0.3001
 5465SOL    HW121242   8.570   7.077   7.088  0.5690  0.6877 -0.8121
 5465SOL    HW221243   8.563   6.953   7.175 -0.9952  1.0932 -0.3273
 5466SOL     OW21244   6.561   3.378   2.474 -0.0565  0.0352 -0.1909
 5466SOL    HW121245   6.586   3.414   2.389 -0.3414 -2.1908 -1.2976
 5466SOL    HW221246   6.639   3.332   2.505  0.0207  0.7579  0.7549
 5467SOL     OW21247   8.567   1.669   6.693 -0.5155  0.0272 -0.1137
 5467SOL    HW121248   8.654   1.706   6.711 -1.3615  1.3745  1.3606
 5467SOL    HW221249   8.584   1.603   6.625  1.4557  1.1783 -0.8471
 5468SOL     OW21250   3.249   0.163   8.310 -0.6010 -0.3195  0.6229
 5468SOL    HW121251   3.226   0.181   8.219 -0.4109 -0.5907  0.5203
 5468SOL    HW221252   3.196   0.224   8.361  0.3645  0.8586  0.2643
 5469SOL     OW21253   1.385   9.161   6.323  1.2708  0.8282  0.4099
 5469SOL    HW121254   1.348   9.081   6.359  2.5844  0.9064  2.0390
 5469SOL    HW221255   1.366   9.156   6.230 -1.7264  0.3018  0.9350
 5470SOL     OW21256   6.740   2.423   0.890  0.2785 -0.0199 -0.1651
 5470SOL    HW121257   6.677   2.496   0.892  0.1474 -0.1041  1.9582
 5470SOL    HW221258   6.685   2.345   0.888  0.3641 -0.0734 -0.3709
 5471SOL     OW21259   1.563   6.179   5.451 -0.1750  0.3199 -0.6498
 5471SOL    HW121260   1.515   6.148   5.528 -0.0315 -1.3223 -1.1941
 5471SOL    HW221261   1.654   6.182   5.480  0.1951 -2.4340 -1.3400
 5472SOL     OW21262   8.933   3.153   6.076  0.4118  0.1069 -0.3167
 5472SOL    HW121263   8.895   3.148   6.164 -1.3510 -0.9334 -1.0818
 5472SOL    HW221264   9.009   3.094   6.079 -0.5250 -1.1311  0.1178
 5473SOL     OW21265   5.390   3.580   5.030 -0.2646  0.5866  0.4360
 5473SOL    HW121266   5.299   3.596   5.056 -1.3817 -2.1791 -1.3386
 5473SOL    HW221267   5.407   3.645   4.962 -1.7254 -0.1562 -0.7225
 5474SOL     OW21268   3.722   0.010   8.156 -0.7477  0.3547  0.5180
 5474SOL    HW121269   3.715  -0.053   8.227 -0.5505  2.2785  2.3413
 5474SOL    HW221270   3.646   0.067   8.167 -1.4398 -0.0369 -1.6587
 5475SOL     OW21271   9.335   4.690   0.219 -0.1906  0.3750 -0.1975
 5475SOL    HW121272   9.298   4.755   0.279 -1.1502  0.3241 -0.7255
 5475SOL    HW221273   9.275   4.616   0.223 -1.1833  0.9778 -2.4090
 5476SOL     OW21274   8.827   8.068   6.319  0.3630 -0.3993 -0.1265
 5476SOL    HW121275   8.892   8.129   6.352 -1.2658  0.9399  0.7722
 5476SOL    HW221276   8.815   8.005   6.390  1.0310 -0.9467 -0.4945
 5477SOL     OW21277   1.793   9.744   8.185  0.0731  0.0627 -0.4428
 5477SOL    HW121278   1.863   9.803   8.156 -0.1074  0.1727 -0.6554
 5477SOL    HW221279   1.818   9.658   8.149  0.2642  0.0368 -0.2489
 5478SOL     OW21280   0.879   2.510   3.009 -0.5511 -0.0948 -0.3006
 5478SOL    HW121281   0.848   2.567   2.938 -2.0492 -0.5281 -0.0291
 5478SOL    HW221282   0.949   2.560   3.050  1.3872 -0.4305 -2.9552
 5479SOL     OW21283   3.508   6.338   5.660 -0.1816  0.2876 -0.1337
 5479SOL    HW121284   3.545   6.262   5.705 -0.0612  1.3393  1.6358
 5479SOL    HW221285   3.561   6.348   5.581 -1.4017 -2.5711 -1.4588
 5480SOL     OW21286   1.413   6.652   6.621  0.5403 -0.3585 -0.1148
 5480SOL    HW121287   1.365   6.573   6.645  0.4786 -0.1298  0.5298
 5480SOL    HW221288   1.500   6.620   6.596  0.1824 -0.7326 -0.8949
 5481SOL     OW21289   0.704   4.861   2.192  0.0031 -0.2363  0.1934
 5481SOL    HW121290   0.774   4.921   2.218 -0.4378 -0.0952  1.1341
 5481SOL    HW221291   0.661   4.904   2.119  1.7847 -1.0073 -1.3850
 5482SOL     OW21292   4.700   5.437   6.300 -0.0895 -0.1042 -0.3874
 5482SOL    HW121293   4.619   5.462   6.345  0.4197  1.3026 -0.1817
 5482SOL    HW221294   4.762   5.419   6.370 -0.8566 -3.7929 -0.4771
 5483SOL     OW21295   1.717   8.925   2.826  0.3304 -0.0300 -0.7802
 5483SOL    HW121296   1.764   8.853   2.868 -0.9451 -0.1962  0.4411
 5483SOL    HW221297   1.784   8.991   2.808  1.1146 -0.4692  0.4415
 5484SOL     OW21298   1.526   9.719   6.785  0.2033 -0.4035  0.0917
 5484SOL    HW121299   1.448   9.773   6.792 -0.2766 -0.9688 -0.6189
 5484SOL    HW221300   1.597   9.780   6.766 -0.1249  0.0845  0.4433
 5485SOL     OW21301   4.932   4.735   0.632  0.5197  0.2163  0.0115
 5485SOL    HW121302   4.963   4.790   0.560 -0.4697 -1.0288 -1.4215
 5485SOL    HW221303   5.009   4.720   0.686  1.1493  1.6663 -0.4446
 5486SOL     OW21304   8.918   3.737   4.201 -0.2422 -0.6591  0.4205
 5486SOL    HW121305   8.979   3.797   4.158 -0.6255 -0.1258  0.6169
 5486SOL    HW221306   8.972   3.687   4.262  0.4382 -1.8527 -1.0670
 5487SOL     OW21307   1.153   6.844   8.550 -0.0639  0.3715  0.8032
 5487SOL    HW121308   1.220   6.779   8.529 -2.3489 -2.2129  0.9325
 5487SOL    HW221309   1.122   6.875   8.465  0.3505  0.5910  0.7263
 5488SOL     OW21310   3.145   3.925   2.516 -0.0308 -0.5143 -0.3340
 5488SOL    HW121311   3.053   3.913   2.540 -0.2025  0.8864 -0.2254
 5488SOL    HW221312   3.148   4.009   2.470  1.3675  0.0225  0.6688
 5489SOL     OW21313   8.955   4.302   2.937  0.2080 -0.4673 -0.3588
 5489SOL    HW121314   8.966   4.207   2.939  0.4131 -0.4386  0.0245
 5489SOL    HW221315   8.988   4.332   3.022 -2.1091 -0.3112  0.5761
 5490SOL     OW21316   6.280   7.387   3.224 -0.0646 -0.2556 -0.5047
 5490SOL    HW121317   6.342   7.325   3.186 -0.4328 -0.0159 -1.5283
 5490SOL    HW221318   6.203   7.335   3.246  0.1371 -0.3898 -0.1072
 5491SOL     OW21319   9.146   4.893   1.471  0.3710 -0.1602  0.2084
 5491SOL    HW121320   9.203   4.838   1.525 -1.2058 -1.0387  1.0724
 5491SOL    HW221321   9.129   4.841   1.393  0.9937  0.2410 -0.2030
 5492SOL     OW21322   2.805   9.306   0.017  0.5374  0.4629  0.4493
 5492SOL    HW121323   2.823   9.236  -0.044 -2.2586 -0.6449  0.7460
 5492SOL    HW221324   2.741   9.362  -0.028  0.0547  0.8246  1.5396
 5493SOL     OW21325   2.791   4.015   7.911 -0.5725  0.2416  0.2208
 5493SOL    HW121326   2.869   4.070   7.908 -0.9310  0.7286 -1.0808
 5493SOL    HW221327   2.741   4.048   7.986 -0.4082  1.1763 -0.0734
 5494SOL     OW21328   1.470   9.407   0.192  0.0958  0.1204  0.2815
 5494SOL    HW121329   1.446   9.478   0.252  0.2690  0.5631 -0.1708
 5494SOL    HW221330   1.410   9.336   0.214  0.7824 -0.0789  1.6492
 5495SOL     OW21331   6.877   8.601   7.855  0.5524 -0.0236  0.2081
 5495SOL    HW121332   6.950   8.651   7.819  1.7526 -1.6191  0.3215
 5495SOL    HW221333   6.817   8.667   7.888  1.4781  1.3623 -0.7796
 5496SOL     OW21334   8.069   6.027   3.490 -0.4568  0.1997 -0.1749
 5496SOL    HW121335   8.036   6.094   3.431 -0.2763  0.9153  0.5226
 5496SOL    HW221336   8.087   5.952   3.433  0.1184  1.0126 -1.0901
 5497SOL     OW21337   1.727   1.652   8.450  0.6229  0.2310  0.1903
 5497SOL    HW121338   1.746   1.710   8.523 -0.3614  1.3900 -0.4407
 5497SOL    HW221339   1.799   1.590   8.450  0.2249 -0.3366  2.6410
 5498SOL     OW21340   3.700   9.139   8.463 -0.2452 -0.1291 -0.6668
 5498SOL    HW121341   3.645   9.210   8.497  0.0996  0.0932 -0.5625
 5498SOL    HW221342   3.789   9.167   8.483 -0.0697 -0.2883 -1.2088
 5499SOL     OW21343   9.082   3.209   0.580 -0.3282 -0.7413 -1.0031
 5499SOL    HW121344   9.101   3.253   0.497 -0.3327  0.7959 -0.2223
 5499SOL    HW221345   9.168   3.199   0.621 -0.6100  2.2292  0.5727
 5500SOL     OW21346   7.895   4.567   4.875  0.6079 -0.9267 -0.0404
 5500SOL    HW121347   7.909   4.544   4.967 -0.2386 -0.3147  0.2586
 5500SOL    HW221348   7.914   4.661   4.871 -1.1842 -0.5301 -0.0636
 5501SOL     OW21349   8.918   2.284   0.016 -0.1175  0.5268 -0.1557
 5501SOL    HW121350   8.899   2.194   0.043  0.3326  0.9689  1.7628
 5501SOL    HW221351   8.886   2.338   0.087  2.4492  1.6790  0.2505
 5502SOL     OW21352   5.115   9.248   2.497 -0.1956  0.7755 -0.2453
 5502SOL    HW121353   5.189   9.300   2.467 -1.2888  1.3099 -2.1399
 5502SOL    HW221354   5.056   9.311   2.538  0.3873  0.3377  1.3368
 5503SOL     OW21355   6.654   0.821   6.371 -0.0672 -0.0239 -0.1369
 5503SOL    HW121356   6.626   0.738   6.332 -0.5337 -0.4146  0.9737
 5503SOL    HW221357   6.731   0.798   6.422  0.7269  0.5420 -1.0447
 5504SOL     OW21358   2.819   5.066   4.964 -0.2043  0.4502  0.0118
 5504SOL    HW121359   2.910   5.094   4.968 -0.5183  1.6092 -0.6089
 5504SOL    HW221360   2.812   5.019   4.881 -0.6699  2.3213 -1.0613
 5505SOL     OW21361   4.276   9.544   5.869 -0.0997 -0.5137 -0.2190
 5505SOL    HW121362   4.369   9.538   5.890 -0.2581  0.2827  0.7511
 5505SOL    HW221363   4.250   9.631   5.897 -1.4370 -1.1748  0.7149
 5506SOL     OW21364   5.260   3.281   3.979 -0.5512  0.0158 -0.1198
 5506SOL    HW121365   5.254   3.257   3.886 -1.6218  2.7643 -0.8576
 5506SOL    HW221366   5.261   3.377   3.979  1.5308  0.1279  2.6332
 5507SOL     OW21367   5.681   8.798   3.326  0.3296  0.1458 -0.6998
 5507SOL    HW121368   5.695   8.888   3.296 -2.4231  1.0996  0.5031
 5507SOL    HW221369   5.702   8.800   3.419 -3.1203  0.6294  0.2143
 5508SOL     OW21370   6.920   5.193   2.203 -0.2697  0.7911 -0.0902
 5508SOL    HW121371   6.913   5.098   2.211  0.5112  0.8156  1.2582
 5508SOL    HW221372   6.838   5.227   2.239 -0.3696  0.6436 -0.1792
 5509SOL     OW21373   2.027   3.744   0.270  0.6155 -0.0845 -0.2456
 5509SOL    HW121374   1.961   3.675   0.275 -0.4102  0.6659 -2.5107
 5509SOL    HW221375   2.083   3.719   0.197  0.2167  1.4556 -1.1172
 5510SOL     OW21376   3.653   8.514   9.710 -0.4779 -0.1074 -0.0384
 5510SOL    HW121377   3.707   8.436   9.702 -0.8285 -0.2047 -1.9109
 5510SOL    HW221378   3.715   8.587   9.712 -0.1696 -0.3723  1.3607
 5511SOL     OW21379   2.341   7.113   0.165 -0.2647 -0.5439  0.4304
 5511SOL    HW121380   2.411   7.063   0.124  0.0176 -0.8992  1.3184
 5511SOL    HW221381   2.264   7.057   0.159 -0.2616 -0.5317  0.2600
 5512SOL     OW21382   2.776   8.797   8.831  0.4255  0.3304  0.5925
 5512SOL    HW121383   2.821   8.854   8.768  1.0182 -0.8422 -0.0954
 5512SOL    HW221384   2.789   8.839   8.916  1.4115  0.8749  0.1899
 5513SOL     OW21385   7.391   4.490   5.889 -0.1020  0.5088 -0.1835
 5513SOL    HW121386   7.423   4.413   5.841 -0.2922  0.6772 -0.5874
 5513SOL    HW221387   7.470   4.540   5.908  0.0589  0.0653  0.3517
 5514SOL     OW21388   4.033   7.195   5.018  0.5557  0.4082  0.3364
 5514SOL    HW121389   4.045   7.237   5.103  0.1957  1.3823 -0.0815
 5514SOL    HW221390   3.988   7.260   4.965 -1.5720 -1.0994  0.1752
 5515SOL     OW21391   8.347   8.570   5.680  0.0303 -0.5110 -0.1696
 5515SOL    HW121392   8.298   8.624   5.742  0.7680  0.9469 -0.8189
 5515SOL    HW221393   8.282   8.511   5.643 -1.2382  1.2419 -0.8732
 5516SOL     OW21394   1.659   0.533   8.197  0.3146 -0.7460  0.1369
 5516SOL    HW121395   1.745   0.537   8.157  1.4131 -1.1995  2.2865
 5516SOL    HW221396   1.637   0.439   8.196  1.1267 -0.9991  2.0033
 5517SOL     OW21397   1.502   0.260   2.311  0.7049 -0.5483 -0.4948
 5517SOL    HW121398   1.518   0.192   2.377 -0.3125 -1.7142 -1.4051
 5517SOL    HW221399   1.499   0.212   2.228 -1.9221  0.2839 -0.9794
 5518SOL     OW21400   8.437   3.218   9.300 -0.2853 -0.1244 -0.3113
 5518SOL    HW121401   8.482   3.265   9.230 -1.2381 -0.7424 -1.3655
 5518SOL    HW221402   8.354   3.263   9.310 -0.0454  0.1308  0.6312
 5519SOL     OW21403   5.386   9.734   3.836  0.0010  0.5009 -0.0693
 5519SOL    HW121404   5.345   9.742   3.923  0.1985  0.9453 -0.0120
 5519SOL    HW221405   5.332   9.789   3.780  0.3498  0.8647 -0.0534
 5520SOL     OW21406   9.468   7.558   2.677 -0.2379 -0.3220  0.0744
 5520SOL    HW121407   9.503   7.639   2.639 -0.4506 -0.7347 -1.0318
 5520SOL    HW221408   9.436   7.584   2.763  0.7975  0.5215  0.2230
 5521SOL     OW21409   7.654   8.872   3.495 -0.3702 -0.5565 -0.3661
 5521SOL    HW121410   7.735   8.838   3.535 -0.8443 -1.4171 -0.1142
 5521SOL    HW221411   7.684   8.944   3.440  0.7145 -1.5220 -1.0959
 5522SOL     OW21412   2.557   8.277   0.405 -0.2138  0.5091 -0.3394
 5522SOL    HW121413   2.515   8.356   0.373 -0.6978 -0.8194 -3.3312
 5522SOL    HW221414   2.497   8.242   0.471 -0.7574  1.7653 -0.1403
 5523SOL     OW21415   9.350   0.524   8.517 -0.0150 -0.2756  0.4325
 5523SOL    HW121416   9.438   0.535   8.552  0.1711 -1.8749  0.5619
 5523SOL    HW221417   9.363   0.479   8.433 -0.7108 -0.6253  0.5054
 5524SOL     OW21418   2.947   8.765   6.898  0.2323  0.4670 -0.5138
 5524SOL    HW121419   2.865   8.812   6.910  0.0031 -0.0009 -0.1754
 5524SOL    HW221420   2.975   8.743   6.987  1.7535  2.3118 -0.4777
 5525SOL     OW21421   4.876   1.643   1.757 -0.2157  0.1005 -0.2989
 5525SOL    HW121422   4.940   1.571   1.759 -1.3855 -0.9833 -0.8053
 5525SOL    HW221423   4.799   1.608   1.801 -2.0679 -0.2838 -3.4878
 5526SOL     OW21424   7.459   3.943   0.121 -0.5283  0.1653  0.5373
 5526SOL    HW121425   7.536   3.951   0.065 -0.7972  0.0232  0.1443
 5526SOL    HW221426   7.490   3.895   0.197 -0.0799  0.6541  0.6714
 5527SOL     OW21427   2.627   1.736   3.006  0.5059 -0.5758  0.3825
 5527SOL    HW121428   2.639   1.694   3.091  1.2327  1.4478  1.3443
 5527SOL    HW221429   2.536   1.718   2.982  0.1349 -0.7459  1.8405
 5528SOL     OW21430   2.716   8.871   4.872  0.6668 -0.7463 -0.6891
 5528SOL    HW121431   2.649   8.805   4.852  1.0288 -0.8147 -1.7518
 5528SOL    HW221432   2.687   8.950   4.827 -0.3561  0.2106  1.5053
 5529SOL     OW21433   4.575   0.615   5.212 -0.1926 -0.0780 -0.5064
 5529SOL    HW121434   4.560   0.640   5.303  0.2078  3.0345 -1.1757
 5529SOL    HW221435   4.666   0.587   5.210  0.0237  0.5730 -0.0840
 5530SOL     OW21436   9.217   8.552   4.854  0.2608 -0.7924  0.0492
 5530SOL    HW121437   9.191   8.516   4.770  1.9611 -1.3606 -0.2693
 5530SOL    HW221438   9.163   8.505   4.918 -0.6256 -0.7695 -0.6712
 5531SOL     OW21439   5.859   3.133   6.531 -0.1955 -0.5161  0.2994
 5531SOL    HW121440   5.923   3.066   6.506  0.6319  0.9109 -1.6314
 5531SOL    HW221441   5.888   3.212   6.486 -2.3909  0.6144  0.7425
 5532SOL     OW21442   0.268   7.582   3.154  0.3477 -0.2653 -0.0026
 5532SOL    HW121443   0.294   7.668   3.189  2.6580 -1.4023  1.2861
 5532SOL    HW221444   0.250   7.529   3.232 -2.9344 -0.5110 -0.7973
 5533SOL     OW21445   0.767   7.091   7.516  0.0949  0.0741  0.0899
 5533SOL    HW121446   0.803   7.166   7.563  0.1612  0.0808  0.0287
 5533SOL    HW221447   0.837   7.066   7.455  1.2516 -1.7754  2.0251
 5534SOL     OW21448   2.857   5.263   0.940  0.0623 -0.5297 -0.2686
 5534SOL    HW121449   2.765   5.255   0.916 -0.0637 -0.7875  0.3008
 5534SOL    HW221450   2.868   5.355   0.964  0.2390 -0.2105 -1.4829
 5535SOL     OW21451   4.818   3.319   0.041  0.2732 -0.0160 -0.7776
 5535SOL    HW121452   4.813   3.333  -0.054  0.7911 -3.7461 -1.4965
 5535SOL    HW221453   4.906   3.284   0.055 -0.2047 -0.6041  0.8985
 5536SOL     OW21454   8.374   7.336   0.911 -0.0159 -0.0701 -0.3651
 5536SOL    HW121455   8.323   7.416   0.896  0.9768  0.4166 -1.3473
 5536SOL    HW221456   8.400   7.341   1.003 -0.0613  0.6869 -0.3873
 5537SOL     OW21457   8.219   5.488   2.063 -0.0730  0.1839  0.5749
 5537SOL    HW121458   8.223   5.393   2.076  1.6034  0.3258  1.3276
 5537SOL    HW221459   8.193   5.523   2.148 -1.3067  0.3719  0.1287
 5538SOL     OW21460   3.666   4.050   8.834 -0.6648  0.8422 -0.5396
 5538SOL    HW121461   3.617   3.976   8.867  0.0675  0.8741  0.6777
 5538SOL    HW221462   3.600   4.109   8.798 -1.2924 -0.1481 -1.0467
 5539SOL     OW21463   4.973   2.249   6.075  0.0325  0.4265 -0.2664
 5539SOL    HW121464   4.895   2.246   6.131  0.3696  1.0443  0.2444
 5539SOL    HW221465   4.955   2.319   6.012 -0.2245 -0.0763 -0.7620
 5540SOL     OW21466   4.313   5.111   7.779 -0.3163  0.4401 -0.2457
 5540SOL    HW121467   4.241   5.064   7.822 -0.5711  0.5005 -0.6047
 5540SOL    HW221468   4.272   5.159   7.708 -0.3048  2.4119  1.0007
 5541SOL     OW21469   8.204   4.286   3.671  0.9983  0.1016 -0.3042
 5541SOL    HW121470   8.295   4.274   3.698  0.6657 -0.3901  0.6256
 5541SOL    HW221471   8.165   4.200   3.678  0.4062  0.3426 -0.5412
 5542SOL     OW21472   1.502   1.362   2.398 -0.1976  0.0034 -0.0117
 5542SOL    HW121473   1.560   1.325   2.465 -0.2980  2.1798  1.3814
 5542SOL    HW221474   1.423   1.307   2.402  0.4278 -0.8789  0.5373
 5543SOL     OW21475   5.144   0.258   4.324  0.0736 -0.7503  0.0336
 5543SOL    HW121476   5.191   0.178   4.303  0.1699 -0.5805 -0.4009
 5543SOL    HW221477   5.160   0.316   4.249  0.1715 -0.2515  0.4336
 5544SOL     OW21478   2.205   3.545   7.925 -0.4841  0.8275  0.2190
 5544SOL    HW121479   2.176   3.486   7.855 -0.0771 -0.0083  0.7420
 5544SOL    HW221480   2.184   3.498   8.006 -0.5904  1.6181  0.6558
 5545SOL     OW21481   1.914   1.468   8.443  0.1606 -0.4924  0.7743
 5545SOL    HW121482   1.980   1.455   8.374  1.7259  3.5268  1.2531
 5545SOL    HW221483   1.959   1.443   8.524  1.1576  1.9593  1.0646
 5546SOL     OW21484   1.349   9.721   2.837  0.0742 -0.1450 -0.1644
 5546SOL    HW121485   1.438   9.708   2.867 -0.8441 -0.9378  2.4685
 5546SOL    HW221486   1.303   9.640   2.860 -1.7732  1.0203  0.5127
 5547SOL     OW21487   1.688   7.896   7.937 -0.1746 -0.4741  0.7442
 5547SOL    HW121488   1.707   7.969   7.996  0.8923 -0.9740  1.0458
 5547SOL    HW221489   1.596   7.875   7.954 -2.0934  3.6176 -2.5123
 5548SOL     OW21490   5.592   5.735   0.742 -0.1834  0.4599  0.4623
 5548SOL    HW121491   5.647   5.801   0.784  2.1919 -1.0018 -0.1507
 5548SOL    HW221492   5.624   5.651   0.776 -1.8462 -0.4972 -0.1939
 5549SOL     OW21493   9.368   3.210   4.948  0.1172 -0.0196 -0.6304
 5549SOL    HW121494   9.299   3.258   4.994  1.0517  1.0162 -0.2669
 5549SOL    HW221495   9.336   3.204   4.858 -1.6961 -2.0018  0.0624
 5550SOL     OW21496   8.601   2.028   8.173 -0.0878  0.4481 -0.0757
 5550SOL    HW121497   8.670   2.091   8.154  0.2598 -0.2163 -1.0710
 5550SOL    HW221498   8.622   1.952   8.120 -1.7737  0.3607 -0.6902
 5551SOL     OW21499   3.390   0.549   0.968 -0.2363  0.4394 -0.1026
 5551SOL    HW121500   3.431   0.613   0.910 -0.7433  2.4917  1.7007
 5551SOL    HW221501   3.462   0.498   1.004  0.8936  3.5895  2.5594
 5552SOL     OW21502   2.143   0.193   4.124  0.6201 -0.2878 -0.1021
 5552SOL    HW121503   2.188   0.265   4.078 -0.2935 -1.1235 -2.4758
 5552SOL    HW221504   2.195   0.116   4.102  0.8930 -0.5639  1.4197
 5553SOL     OW21505   2.537   8.135   9.153 -0.1587 -0.2464  0.6294
 5553SOL    HW121506   2.496   8.055   9.186  0.9963 -1.0109  0.2466
 5553SOL    HW221507   2.500   8.205   9.208 -1.4651 -0.9836  0.7178
 5554SOL     OW21508   0.366   1.988   0.428 -0.8799 -0.0614  0.2257
 5554SOL    HW121509   0.359   2.074   0.385 -3.3851  0.4103  1.4068
 5554SOL    HW221510   0.354   1.925   0.357 -3.8308  0.6881 -0.0725
 5555SOL     OW21511   7.125   8.403   7.893  0.1509  0.1455  0.1671
 5555SOL    HW121512   7.086   8.354   7.820 -0.4835  0.6206  0.1710
 5555SOL    HW221513   7.061   8.397   7.963  0.3664  0.4156  0.3913
 5556SOL     OW21514   8.888   7.614   3.822 -0.2930 -0.1224 -0.2518
 5556SOL    HW121515   8.978   7.607   3.790  0.8461  2.1100  2.0958
 5556SOL    HW221516   8.879   7.541   3.882  0.8661  0.9210  1.2843
 5557SOL     OW21517   5.338   7.817   9.545  0.2037  0.2888  0.0543
 5557SOL    HW121518   5.337   7.907   9.579 -0.4870  0.1642  0.3898
 5557SOL    HW221519   5.303   7.824   9.457  1.6207  0.5577 -0.5130
 5558SOL     OW21520   6.997   4.062   3.333  0.0671 -0.1224  0.0113
 5558SOL    HW121521   7.062   4.109   3.384  0.4304 -1.9799  1.3901
 5558SOL    HW221522   6.986   4.113   3.253  3.4122  0.1507 -0.3797
 5559SOL     OW21523   0.827   0.266   4.448 -0.3656 -0.3416 -0.1558
 5559SOL    HW121524   0.792   0.328   4.512  1.8414 -0.0424  0.8562
 5559SOL    HW221525   0.864   0.321   4.378  0.6627 -0.5084  0.2329
 5560SOL     OW21526   0.042   7.529   6.421 -0.3924  0.2289  0.2820
 5560SOL    HW121527   0.136   7.513   6.432 -0.7532 -2.5120 -0.0534
 5560SOL    HW221528  -0.001   7.464   6.477 -2.1633  2.6984  2.0108
 5561SOL     OW21529   4.385   9.670   3.072  0.0010  0.6514 -0.2757
 5561SOL    HW121530   4.328   9.722   3.129  1.3516  2.0576 -0.1644
 5561SOL    HW221531   4.462   9.652   3.125  0.4490  0.3336 -1.0233
 5562SOL     OW21532   0.711   9.710   2.306  0.1816  0.3839 -0.4045
 5562SOL    HW121533   0.671   9.629   2.337  2.0595 -0.4804 -0.0997
 5562SOL    HW221534   0.703   9.705   2.210  1.6895 -0.9752 -0.4977
 5563SOL     OW21535   7.087   7.721   9.217 -0.2106  0.0195 -0.2444
 5563SOL    HW121536   7.079   7.807   9.260 -1.2157  0.3546 -1.0628
 5563SOL    HW221537   7.067   7.739   9.125  1.2606 -0.8045 -0.7553
 5564SOL     OW21538   7.245   9.404   5.273 -0.2022 -0.4009 -0.3079
 5564SOL    HW121539   7.290   9.349   5.336 -0.0338 -1.5085 -1.3619
 5564SOL    HW221540   7.279   9.492   5.289  1.2053 -0.9647 -0.0726
 5565SOL     OW21541   6.289   3.511   5.684 -0.5782 -0.4307  0.6341
 5565SOL    HW121542   6.368   3.479   5.728 -0.3452  0.9366  1.2347
 5565SOL    HW221543   6.277   3.599   5.717 -2.0933 -0.4435  0.1664
 5566SOL     OW21544   2.393   8.897   2.394  0.1448 -0.1111  0.3878
 5566SOL    HW121545   2.360   8.881   2.482 -1.4965 -0.3166 -0.2308
 5566SOL    HW221546   2.336   8.965   2.358  1.3320  0.5981 -0.2325
 5567SOL     OW21547   6.919   6.339   6.697  0.5384  0.0981 -0.0381
 5567SOL    HW121548   7.006   6.369   6.727 -0.4174 -0.2823  3.5771
 5567SOL    HW221549   6.912   6.250   6.731 -1.8079  0.6713  1.1672
 5568SOL     OW21550   8.103   0.017   0.374  0.1684  0.1056  0.2481
 5568SOL    HW121551   8.117  -0.073   0.403  1.9641 -0.3237 -1.6717
 5568SOL    HW221552   8.016   0.017   0.335  0.1315 -0.7840  0.3163
 5569SOL     OW21553   6.569   9.307   3.579  0.0459  0.0317 -0.5388
 5569SOL    HW121554   6.475   9.289   3.577 -0.0352 -1.1807  3.6667
 5569SOL    HW221555   6.577   9.401   3.565 -1.9951  0.3845  0.3907
 5570SOL     OW21556   1.843   0.387   6.152  0.3655 -0.3590 -0.1338
 5570SOL    HW121557   1.804   0.310   6.194 -1.1592  1.3067  1.7237
 5570SOL    HW221558   1.808   0.386   6.063  0.6977 -2.0036 -0.2725
 5571SOL     OW21559   3.751   0.564   6.509 -0.0044 -0.2427 -0.3007
 5571SOL    HW121560   3.787   0.548   6.422  1.5462 -1.7048  0.5524
 5571SOL    HW221561   3.695   0.489   6.527 -2.2996  1.2228 -0.9486
 5572SOL     OW21562   0.532   0.797   3.575 -0.5701  0.1241  0.0365
 5572SOL    HW121563   0.612   0.829   3.617 -0.3213 -0.1211 -0.2459
 5572SOL    HW221564   0.551   0.706   3.552 -0.3044  0.5646 -1.5946
 5573SOL     OW21565   4.483   7.276   7.364  0.1622 -0.4211  0.4534
 5573SOL    HW121566   4.388   7.287   7.356  0.1764  0.1443  1.0273
 5573SOL    HW221567   4.517   7.301   7.278 -0.0792  0.9876  0.7503
 5574SOL     OW21568   9.679   1.186   9.523 -0.1399  0.5281  0.1654
 5574SOL    HW121569   9.667   1.273   9.561 -0.8651  0.4935  0.0404
 5574SOL    HW221570   9.590   1.150   9.519  0.0209  0.2274 -0.8282
 5575SOL     OW21571   6.442   7.470   0.846 -0.0162 -0.2694 -0.1407
 5575SOL    HW121572   6.350   7.473   0.871 -0.0668 -1.2669 -0.1784
 5575SOL    HW221573   6.487   7.527   0.909 -0.5246 -0.5203  0.4506
 5576SOL     OW21574   7.738   8.282   2.737  0.9085  0.0750  0.0113
 5576SOL    HW121575   7.677   8.319   2.801 -0.3712 -0.0065 -1.1125
 5576SOL    HW221576   7.682   8.235   2.676  2.3294 -2.0204  0.2469
 5577SOL     OW21577   6.866   4.471   0.087 -0.6323 -0.2044 -0.1072
 5577SOL    HW121578   6.873   4.400   0.024 -0.0891  0.6509 -1.0434
 5577SOL    HW221579   6.914   4.543   0.047 -0.0100  0.2743  1.4194
 5578SOL     OW21580   1.127   9.298   5.737 -0.3291  0.5811  0.1196
 5578SOL    HW121581   1.148   9.388   5.711  0.2737  0.9554  1.7354
 5578SOL    HW221582   1.112   9.304   5.832 -0.5344 -0.9776  0.2100
 5579SOL     OW21583   4.489   5.546   7.899  0.0733 -0.2010 -0.0409
 5579SOL    HW121584   4.451   5.533   7.812 -1.2846 -1.1489  0.6428
 5579SOL    HW221585   4.454   5.630   7.928  2.2078  1.1686 -1.1861
 5580SOL     OW21586   8.810   5.976   6.766 -0.0807 -0.2069  0.3520
 5580SOL    HW121587   8.848   6.028   6.836 -1.1249  0.2477  0.5946
 5580SOL    HW221588   8.860   6.000   6.688 -0.2952  0.8678  0.5362
 5581SOL     OW21589   7.628   8.334   3.423 -0.2668 -0.0009 -0.2714
 5581SOL    HW121590   7.565   8.330   3.495  0.7777 -0.2469  0.6521
 5581SOL    HW221591   7.575   8.324   3.344 -1.5012  0.8039  0.4201
 5582SOL     OW21592   5.659   0.808   5.588 -0.4912 -0.2529 -0.2199
 5582SOL    HW121593   5.689   0.739   5.528  1.0975  1.3270 -1.3605
 5582SOL    HW221594   5.644   0.883   5.531 -2.6457  0.2544  0.9237
 5583SOL     OW21595   6.991   0.636   1.752 -0.2569 -0.1466 -0.2418
 5583SOL    HW121596   6.946   0.706   1.801 -0.7757 -1.1597  0.7670
 5583SOL    HW221597   7.080   0.638   1.786  0.7094  2.1825 -2.5824
 5584SOL     OW21598   4.383   2.226   2.103 -0.2220  0.5764 -0.1488
 5584SOL    HW121599   4.452   2.165   2.130 -0.6851  0.7157  1.4146
 5584SOL    HW221600   4.407   2.309   2.145  0.6146  1.6534 -2.5459
 5585SOL     OW21601   1.716   2.505   2.849 -0.2991 -0.2879 -0.0052
 5585SOL    HW121602   1.658   2.577   2.875 -0.1312 -0.5376  1.1058
 5585SOL    HW221603   1.748   2.530   2.762  0.1792  1.2494  0.5749
 5586SOL     OW21604   6.481   1.666   5.670 -0.1342  0.2153  0.3602
 5586SOL    HW121605   6.508   1.737   5.611  2.1527  0.5025  1.6728
 5586SOL    HW221606   6.557   1.650   5.726 -0.9063 -2.6454  0.7548
 5587SOL     OW21607   9.665   8.563   3.339 -0.5232 -0.0571  0.1156
 5587SOL    HW121608   9.612   8.538   3.416 -1.7282  2.4407  0.2063
 5587SOL    HW221609   9.619   8.524   3.265 -2.3669  1.7098  0.2407
 5588SOL     OW21610   3.132   0.655   9.451  0.7653  0.0662  0.1144
 5588SOL    HW121611   3.101   0.619   9.534 -0.1473  0.8697  0.1361
 5588SOL    HW221612   3.079   0.613   9.384  0.6513  0.3336  0.0348
 5589SOL     OW21613   4.629   2.169   6.786  0.0732  0.0082  0.8388
 5589SOL    HW121614   4.647   2.143   6.695 -0.3200 -0.2343  0.8316
 5589SOL    HW221615   4.550   2.122   6.810  0.4753 -0.3605  1.4955
 5590SOL     OW21616   3.949   2.591   6.435 -0.7286  0.0607  0.3971
 5590SOL    HW121617   4.008   2.659   6.403 -0.6310 -0.2602 -0.1100
 5590SOL    HW221618   3.900   2.563   6.358 -1.0210 -0.1972  0.6724
 5591SOL     OW21619   2.302   8.124   5.180 -0.4437 -0.6661  0.5229
 5591SOL    HW121620   2.287   8.181   5.105  1.1373 -2.3995 -1.2340
 5591SOL    HW221621   2.357   8.175   5.239 -1.9440  0.8277  0.7118
 5592SOL     OW21622   0.811   0.225   3.862 -0.2246  0.6520  0.0684
 5592SOL    HW121623   0.784   0.258   3.948  0.1394  1.0169  0.0420
 5592SOL    HW221624   0.756   0.148   3.848 -0.0458  0.3868  0.7859
 5593SOL     OW21625   0.099   9.482   3.029 -0.4603 -0.2120 -0.3424
 5593SOL    HW121626   0.086   9.417   2.960  2.1892  0.7282 -1.8501
 5593SOL    HW221627   0.054   9.560   2.997 -1.2453 -0.4342  0.1668
 5594SOL     OW21628   2.743   3.584   8.162 -0.2600  0.1015  0.5503
 5594SOL    HW121629   2.742   3.500   8.209 -1.2300 -0.1036  0.1963
 5594SOL    HW221630   2.705   3.646   8.224 -1.5379 -0.1687  0.0739
 5595SOL     OW21631   8.586   7.025   8.993 -0.1513 -0.4524  0.0222
 5595SOL    HW121632   8.526   6.963   9.035 -1.6802  1.0893  0.2006
 5595SOL    HW221633   8.650   6.969   8.949 -0.1792 -2.1312  1.9836
 5596SOL     OW21634   6.249   6.486   2.691  0.1739 -0.2180 -0.1458
 5596SOL    HW121635   6.267   6.430   2.766  2.4274  0.4996 -0.0791
 5596SOL    HW221636   6.179   6.441   2.643 -0.3187 -1.3933  1.6045
 5597SOL     OW21637   9.395   7.392   7.008 -0.3129 -0.0841 -0.8294
 5597SOL    HW121638   9.336   7.324   7.040 -1.7644  1.1794 -0.7392
 5597SOL    HW221639   9.364   7.473   7.048  2.6997  0.4014  0.8475
 5598SOL     OW21640   6.743   1.752   5.767 -0.0437 -0.3419 -0.5828
 5598SOL    HW121641   6.753   1.817   5.836  2.4244 -0.1079 -1.0779
 5598SOL    HW221642   6.710   1.674   5.812 -1.4694  0.7051  0.2821
 5599SOL     OW21643   6.559   9.652   2.461 -0.3217  0.3096  0.1531
 5599SOL    HW121644   6.522   9.570   2.430 -0.8620 -0.0395  1.6314
 5599SOL    HW221645   6.605   9.688   2.385 -1.6385 -0.4354 -1.0445
 5600SOL     OW21646   4.311   5.826   2.756 -0.1130  0.1552 -0.4945
 5600SOL    HW121647   4.285   5.907   2.711  1.6786  0.7663 -0.5354
 5600SOL    HW221648   4.305   5.759   2.688 -0.8683  0.3999 -0.6774
 5601SOL     OW21649   1.091   7.424   1.383  0.3902  0.9506  0.2784
 5601SOL    HW121650   1.050   7.508   1.364 -0.5486  0.7458  1.2687
 5601SOL    HW221651   1.041   7.360   1.332  1.1755  0.9783 -0.5649
 5602SOL     OW21652   4.413   0.447   9.664  0.4068  0.3325  0.0744
 5602SOL    HW121653   4.417   0.541   9.683  0.8829  0.5469 -1.0040
 5602SOL    HW221654   4.488   0.431   9.607  0.6822 -0.8359  0.7227
 5603SOL     OW21655   9.085   9.293   2.556  0.5896 -0.2569  0.6249
 5603SOL    HW121656   9.067   9.215   2.502  2.9875 -0.4629  0.0211
 5603SOL    HW221657   9.140   9.261   2.627 -1.0218  0.3653  2.2340
 5604SOL     OW21658   0.022   3.895   4.063  0.6283 -0.0320  0.1313
 5604SOL    HW121659   0.027   3.985   4.031  0.5107 -0.6810 -1.8394
 5604SOL    HW221660  -0.041   3.853   4.005  1.0035 -1.5108  0.7555
 5605SOL     OW21661   4.142   9.303   7.262 -0.3254 -0.1036 -0.0101
 5605SOL    HW121662   4.220   9.269   7.218  0.6362 -0.1976  1.6639
 5605SOL    HW221663   4.074   9.240   7.242  0.1740 -0.3491 -1.0024
 5606SOL     OW21664   7.064   6.022   0.497 -0.2987  0.2410 -0.1560
 5606SOL    HW121665   7.020   6.062   0.572 -1.4064  1.8654 -1.5992
 5606SOL    HW221666   6.993   5.987   0.443  0.4379 -0.3007 -0.8041
 5607SOL     OW21667   3.339   1.335   7.766  0.2944  0.2877 -0.8585
 5607SOL    HW121668   3.307   1.421   7.793 -0.4178  0.4252 -2.1109
 5607SOL    HW221669   3.265   1.276   7.782  0.1475  0.2308 -1.7340
 5608SOL     OW21670   2.875   7.263   9.592  0.2018  0.3055 -0.0808
 5608SOL    HW121671   2.784   7.263   9.563  0.0304 -1.0998  0.4006
 5608SOL    HW221672   2.919   7.200   9.535  0.8716  0.9353 -0.2733
 5609SOL     OW21673   4.963   5.083   5.660  0.7046  0.3301  0.0966
 5609SOL    HW121674   4.917   5.000   5.669  0.1064  0.6933  0.4201
 5609SOL    HW221675   4.937   5.117   5.575 -0.8469  1.2528  0.8898
 5610SOL     OW21676   6.860   2.701   7.047 -0.0214  0.1757 -0.7015
 5610SOL    HW121677   6.940   2.682   6.998  0.1790  0.9668 -0.6988
 5610SOL    HW221678   6.885   2.772   7.107 -0.6987  0.3611 -0.6337
 5611SOL     OW21679   6.488   0.277   7.157 -0.2973  0.2352  0.6448
 5611SOL    HW121680   6.535   0.196   7.140 -0.6013  0.2706 -0.4060
 5611SOL    HW221681   6.436   0.258   7.236 -0.4192 -0.6202  0.3684
 5612SOL     OW21682   0.300   4.691   9.510 -0.3114 -0.0661 -0.0322
 5612SOL    HW121683   0.321   4.703   9.417 -1.3529  2.2215 -0.0428
 5612SOL    HW221684   0.381   4.658   9.549  0.7344  0.7539 -1.4321
 5613SOL     OW21685   0.583   4.162   7.651  0.1078  0.0746 -0.0963
 5613SOL    HW121686   0.492   4.190   7.665  0.3489  0.1020  1.6054
 5613SOL    HW221687   0.635   4.241   7.664  0.5996 -0.5773  2.2205
 5614SOL     OW21688   9.101   0.505   9.433 -0.0990 -0.3191 -0.5871
 5614SOL    HW121689   9.100   0.439   9.502  1.6843  0.5307  0.3169
 5614SOL    HW221690   9.049   0.577   9.468 -0.8775 -0.6827 -0.9859
 5615SOL     OW21691   8.700   5.159   4.811 -0.0492  0.0471 -0.5176
 5615SOL    HW121692   8.686   5.128   4.721 -0.1115 -0.8982 -0.1964
 5615SOL    HW221693   8.728   5.081   4.859  0.8005  0.7221  0.1057
 5616SOL     OW21694   8.533   3.622   2.262 -0.4351  0.4624  0.0837
 5616SOL    HW121695   8.604   3.672   2.302 -1.1938 -1.8045  5.1367
 5616SOL    HW221696   8.527   3.543   2.315 -4.6942 -0.9685 -2.0546
 5617SOL     OW21697   5.660   6.859   4.040  0.2296 -0.3380  0.1247
 5617SOL    HW121698   5.688   6.923   4.106  1.1690  1.2242 -1.6875
 5617SOL    HW221699   5.683   6.900   3.956  2.1645 -3.6083 -1.1223
 5618SOL     OW21700   4.627   1.948   2.535 -0.3781  0.1489 -0.2595
 5618SOL    HW121701   4.628   1.939   2.630  0.7639 -0.0293 -0.2773
 5618SOL    HW221702   4.682   1.876   2.503 -0.2185  0.5900 -1.0084
 5619SOL     OW21703   8.030   5.141   4.761 -0.1568 -0.1549 -0.1400
 5619SOL    HW121704   7.940   5.108   4.759  0.2672 -1.5069  0.9954
 5619SOL    HW221705   8.055   5.147   4.669 -0.7854 -1.6134 -0.4373
 5620SOL     OW21706   5.269   2.152   9.549  0.0526  0.3809 -0.5100
 5620SOL    HW121707   5.358   2.165   9.514 -0.5156  1.0791 -1.7426
 5620SOL    HW221708   5.283   2.105   9.632  1.6639  1.6424 -0.0089
 5621SOL     OW21709   3.927   5.355   7.660  0.0581  0.4258  0.0550
 5621SOL    HW121710   3.941   5.419   7.590 -1.2208  1.7190  0.9348
 5621SOL    HW221711   3.832   5.352   7.673  0.3109  2.0753  3.3355
 5622SOL     OW21712   3.404   7.424   4.122  0.6021 -0.6000 -0.3700
 5622SOL    HW121713   3.397   7.449   4.214  0.1062  1.3178 -0.8845
 5622SOL    HW221714   3.383   7.331   4.121  0.0019 -0.5231  1.3794
 5623SOL     OW21715   6.191   2.293   1.552  0.2733  0.5297 -0.2127
 5623SOL    HW121716   6.135   2.264   1.625 -1.0456  0.5613 -1.1829
 5623SOL    HW221717   6.279   2.265   1.578 -0.4716 -1.4749  0.3844
 5624SOL     OW21718   2.737   7.592   5.243  0.1389  0.2774 -0.3244
 5624SOL    HW121719   2.740   7.504   5.204 -1.5296 -1.1491  2.4555
 5624SOL    HW221720   2.827   7.625   5.235  0.6631 -1.3775 -2.0006
 5625SOL     OW21721   6.910   1.619   5.206 -0.0623 -0.6833 -0.0820
 5625SOL    HW121722   6.877   1.537   5.169 -0.4734 -0.2899 -0.5989
 5625SOL    HW221723   6.942   1.668   5.130  0.3032 -0.4151  0.2401
 5626SOL     OW21724   8.544   8.233   8.314 -0.2849 -0.3107  0.1086
 5626SOL    HW121725   8.509   8.253   8.401  0.0282 -1.6987  0.5715
 5626SOL    HW221726   8.604   8.305   8.295 -0.5769  0.1493  0.9044
 5627SOL     OW21727   4.890   0.724   8.435 -0.5070 -0.2135 -0.4268
 5627SOL    HW121728   4.817   0.663   8.446 -1.7281  1.1650 -0.6221
 5627SOL    HW221729   4.894   0.740   8.340 -0.7470  0.6491 -0.2958
 5628SOL     OW21730   6.640   2.867   7.066  0.2659 -0.1539 -0.1583
 5628SOL    HW121731   6.705   2.805   7.034 -0.2774 -1.7244  1.5675
 5628SOL    HW221732   6.629   2.844   7.158 -2.4473  0.3005 -0.2985
 5629SOL     OW21733   1.252   3.709   1.317  0.1828 -0.1874 -0.0037
 5629SOL    HW121734   1.284   3.796   1.342  0.3567  0.0311 -0.9313
 5629SOL    HW221735   1.287   3.696   1.229 -0.5325 -0.8472 -0.1971
 5630SOL     OW21736   3.416   3.669   1.692  0.0742  0.6767  0.3955
 5630SOL    HW121737   3.375   3.610   1.755 -2.1893  1.7926  0.0608
 5630SOL    HW221738   3.388   3.637   1.606 -0.3422  1.6118  0.1655
 5631SOL     OW21739   6.655   5.853   4.210  0.0599  0.0237  0.0863
 5631SOL    HW121740   6.648   5.859   4.115 -0.2742 -0.7567  0.0575
 5631SOL    HW221741   6.614   5.933   4.242  1.2258  0.8749 -0.4515
 5632SOL     OW21742   4.105   5.086   1.845  0.5654  0.7734  0.0773
 5632SOL    HW121743   4.016   5.061   1.871  0.2965  1.1738 -0.4584
 5632SOL    HW221744   4.104   5.181   1.843  0.4262  0.7690 -1.8905
 5633SOL     OW21745   4.852   0.722   5.637 -0.4473  0.2728  0.2492
 5633SOL    HW121746   4.858   0.784   5.564 -0.3444  1.0195  0.8718
 5633SOL    HW221747   4.776   0.753   5.688 -0.4916 -0.2105  0.4775
 5634SOL     OW21748   5.987   9.165   3.529  0.2471  0.0258  0.6320
 5634SOL    HW121749   5.969   9.211   3.448 -0.3155  1.8741  1.7586
 5634SOL    HW221750   5.903   9.126   3.554 -0.0242  0.9774  1.2324
 5635SOL     OW21751   8.293   4.736   9.214  0.1597 -0.0518  0.3049
 5635SOL    HW121752   8.306   4.829   9.232 -0.4628  0.4959 -1.8220
 5635SOL    HW221753   8.263   4.733   9.123 -0.2841 -2.3072  0.4699
 5636SOL     OW21754   6.521   9.473   2.742  0.3592 -0.3931  0.0645
 5636SOL    HW121755   6.455   9.542   2.747 -1.0701 -1.7664  0.9583
 5636SOL    HW221756   6.582   9.504   2.675 -1.2188  0.9052 -0.8601
 5637SOL     OW21757   0.527   4.940   8.646 -0.3125  0.4332  0.0361
 5637SOL    HW121758   0.510   5.034   8.651 -0.1724  0.4340  0.5672
 5637SOL    HW221759   0.562   4.927   8.558  1.2364  1.1471  0.5088
 5638SOL     OW21760   0.500   0.514   8.196  0.5946 -0.8881 -0.4982
 5638SOL    HW121761   0.555   0.515   8.118  0.5287 -2.8883 -0.6381
 5638SOL    HW221762   0.523   0.432   8.241  0.7630  0.2963  1.7077
 5639SOL     OW21763   4.330   9.095   3.570  0.5237 -0.6473  0.2642
 5639SOL    HW121764   4.263   9.035   3.603 -1.3561  0.1088 -1.9174
 5639SOL    HW221765   4.378   9.044   3.506  0.0704 -0.3751 -0.3076
 5640SOL     OW21766   7.028   1.059   3.098 -0.7803 -0.1769 -0.6489
 5640SOL    HW121767   7.101   1.036   3.041 -0.1271  0.8978 -0.2642
 5640SOL    HW221768   6.956   1.079   3.038 -1.0233 -2.0038 -1.0122
 5641SOL     OW21769   7.994   9.013   0.866  0.1586 -0.2322  0.1572
 5641SOL    HW121770   7.901   8.996   0.877 -0.1665  1.5423  0.3996
 5641SOL    HW221771   8.008   9.099   0.906  1.6154  0.1991 -1.1761
 5642SOL     OW21772   6.381   5.918   3.333 -0.2414 -0.4127 -0.5005
 5642SOL    HW121773   6.334   5.871   3.264 -0.0055 -0.8879 -0.3449
 5642SOL    HW221774   6.403   5.851   3.397 -1.7776  0.2792  0.8020
 5643SOL     OW21775   6.877   8.936   2.077 -0.0232 -0.4084 -0.2390
 5643SOL    HW121776   6.844   8.983   2.153  0.0174 -2.5022  1.1446
 5643SOL    HW221777   6.904   8.850   2.111  1.4016 -0.8798 -2.3467
 5644SOL     OW21778   7.649   8.817   8.000 -0.1381 -0.6568  0.2332
 5644SOL    HW121779   7.685   8.857   7.921  0.4162 -1.4486  0.0872
 5644SOL    HW221780   7.590   8.885   8.036  1.6233  0.7497  0.6096
 5645SOL     OW21781   3.162   6.424   0.430  0.2703 -0.3726  0.2752
 5645SOL    HW121782   3.094   6.389   0.372  0.7254  0.7868 -0.9989
 5645SOL    HW221783   3.236   6.442   0.372  1.1828 -0.3101  1.4238
 5646SOL     OW21784   3.342   4.977   7.344 -0.8959 -1.0653 -0.2644
 5646SOL    HW121785   3.264   4.923   7.352 -1.9237  0.4810  0.5974
 5646SOL    HW221786   3.348   5.025   7.427 -0.8033  1.1035 -1.4439
 5647SOL     OW21787   9.223   4.362   6.273 -0.1973  0.0250  0.0492
 5647SOL    HW121788   9.224   4.458   6.274  0.1683  0.0223  0.1717
 5647SOL    HW221789   9.272   4.337   6.351 -1.0747 -0.2680  0.5201
 5648SOL     OW21790   0.061   3.504   4.082  0.1477  0.0830 -0.1460
 5648SOL    HW121791   0.058   3.495   3.987  1.7227  1.2994 -0.3507
 5648SOL    HW221792   0.140   3.556   4.099  0.6822 -1.2592  1.9129
 5649SOL     OW21793   5.238   8.599   7.006  0.0827  0.5486 -0.2310
 5649SOL    HW121794   5.327   8.629   6.990  0.6070 -1.3730 -1.1687
 5649SOL    HW221795   5.183   8.668   6.970  1.1344  2.1381  1.0533
 5650SOL     OW21796   8.282   8.774   7.066 -0.6190  0.5761  0.4963
 5650SOL    HW121797   8.220   8.802   6.998  0.4546  0.6607 -0.4840
 5650SOL    HW221798   8.368   8.783   7.024 -0.0836 -1.9908  0.9197
 5651SOL     OW21799   4.043   0.253   0.786 -0.1123 -0.2924  0.3670
 5651SOL    HW121800   4.040   0.294   0.699 -0.4213  0.6931  0.8242
 5651SOL    HW221801   3.972   0.189   0.785  0.4489 -0.9295 -0.3993
 5652SOL     OW21802   8.478   1.049   1.987 -0.3879 -0.6097 -0.1598
 5652SOL    HW121803   8.418   1.118   1.957 -0.8579 -1.3903 -1.0678
 5652SOL    HW221804   8.514   1.013   1.906  2.5245  0.8408  0.3331
 5653SOL     OW21805   9.199   7.218   2.448 -0.4171 -0.3509 -0.1168
 5653SOL    HW121806   9.184   7.312   2.433 -0.3770  0.0671  2.1160
 5653SOL    HW221807   9.111   7.180   2.450 -0.4510 -0.3105 -0.6407
 5654SOL     OW21808   2.933   5.935   6.811  0.4343  0.1087 -0.5683
 5654SOL    HW121809   2.996   5.888   6.866  0.0600 -0.4234 -0.5877
 5654SOL    HW221810   2.979   5.950   6.728  0.5453 -0.2574 -0.5740
 5655SOL     OW21811   0.822   2.719   6.816 -1.0582  0.3451 -0.8754
 5655SOL    HW121812   0.747   2.755   6.770 -1.7517 -1.0445 -0.8611
 5655SOL    HW221813   0.791   2.637   6.853 -0.2377  0.9098  1.2130
 5656SOL     OW21814   5.125   4.815   1.587 -0.3830  0.0103  0.3416
 5656SOL    HW121815   5.071   4.833   1.510 -1.5409 -0.6609  0.9644
 5656SOL    HW221816   5.062   4.795   1.656  0.6539 -0.0738  1.2983
 5657SOL     OW21817   3.369   1.316   5.060  0.4092 -0.6283  0.5119
 5657SOL    HW121818   3.365   1.248   5.127 -0.3118 -1.3061 -0.1873
 5657SOL    HW221819   3.396   1.395   5.107  1.4969 -1.4383  1.3018
 5658SOL     OW21820   6.195   5.308   6.765 -0.0059 -0.2815  0.0678
 5658SOL    HW121821   6.222   5.324   6.675 -2.5694 -1.1890 -0.9631
 5658SOL    HW221822   6.112   5.356   6.774 -0.3814 -1.1365  1.5675
 5659SOL     OW21823   7.614   2.019   3.871  0.0023  0.0387 -0.3185
 5659SOL    HW121824   7.622   1.994   3.963  0.0720 -0.3764 -0.4373
 5659SOL    HW221825   7.557   2.096   3.872 -0.0486 -0.0033  0.0656
 5660SOL     OW21826   3.596   0.627   8.625  0.0325 -0.1912  0.3609
 5660SOL    HW121827   3.681   0.661   8.596 -0.1075 -1.7084 -2.1412
 5660SOL    HW221828   3.610   0.602   8.716  2.3336 -0.5030 -0.0100
 5661SOL     OW21829   5.485   8.756   3.166 -0.4441 -0.1985  0.4678
 5661SOL    HW121830   5.435   8.833   3.195  2.4228  2.7524 -1.7399
 5661SOL    HW221831   5.558   8.751   3.228 -0.1401 -0.5896  0.0793
 5662SOL     OW21832   3.539   1.266   8.850 -0.0425 -0.2441  0.1551
 5662SOL    HW121833   3.449   1.264   8.883 -0.3166 -0.6667 -0.5921
 5662SOL    HW221834   3.593   1.264   8.929 -0.6857 -0.6404  0.5996
 5663SOL     OW21835   5.136   0.132   2.856  0.2246 -0.1997  0.5527
 5663SOL    HW121836   5.095   0.203   2.905  0.7008 -0.5266  1.4339
 5663SOL    HW221837   5.133   0.057   2.914 -0.2998 -0.9379 -0.3843
 5664SOL     OW21838   4.499   0.801   7.164  0.0743  0.4397  0.7726
 5664SOL    HW121839   4.581   0.845   7.189  0.3402  0.5667 -0.2576
 5664SOL    HW221840   4.510   0.711   7.194  1.0215  0.2032 -0.2115
 5665SOL     OW21841   5.004   7.274   5.421 -0.9174  0.2622  0.3040
 5665SOL    HW121842   5.047   7.328   5.487 -1.1911 -0.1463  0.8294
 5665SOL    HW221843   5.060   7.197   5.412 -1.1034  0.1166  0.3768
 5666SOL     OW21844   6.852   1.620   0.895 -0.7126  0.1642 -0.3970
 5666SOL    HW121845   6.931   1.671   0.873 -0.2467  0.3934  1.5710
 5666SOL    HW221846   6.816   1.593   0.810  1.3508  0.2459 -1.3641
 5667SOL     OW21847   8.932   6.772   4.115  0.1611 -0.1402  0.1051
 5667SOL    HW121848   8.911   6.769   4.022 -2.5198 -2.2799  0.6572
 5667SOL    HW221849   8.899   6.858   4.144  1.3894  0.7139 -0.9308
 5668SOL     OW21850   0.091   6.007   8.665  0.0796  0.0212  0.2254
 5668SOL    HW121851   0.087   5.916   8.635  1.7808  0.1142 -0.4210
 5668SOL    HW221852   0.125   6.001   8.754 -1.0409 -0.0303  0.6597
 5669SOL     OW21853   5.255   9.048   5.026 -0.5197  0.3044 -0.7094
 5669SOL    HW121854   5.195   9.119   5.048  0.0383  0.0029  2.1261
 5669SOL    HW221855   5.257   8.992   5.104  0.4579 -1.8503 -2.1678
 5670SOL     OW21856   9.631   9.600   8.966  0.3761 -0.3225  0.1265
 5670SOL    HW121857   9.646   9.553   9.048  0.7483  0.8669  0.7606
 5670SOL    HW221858   9.718   9.618   8.932  0.2529  0.4354  0.2026
 5671SOL     OW21859   5.188   7.304   4.823  0.0061  0.0503 -0.2884
 5671SOL    HW121860   5.255   7.235   4.820  0.1733 -0.0525  2.8154
 5671SOL    HW221861   5.234   7.384   4.798  1.2269 -0.1032  1.3486
 5672SOL     OW21862   2.020   1.123   5.590 -0.3215  0.1796  0.3737
 5672SOL    HW121863   2.107   1.163   5.584  0.5867 -1.6408  0.8580
 5672SOL    HW221864   2.028   1.058   5.659 -2.0765 -0.0557  0.3936
 5673SOL     OW21865   7.264   7.444   3.647  0.0429  0.0471  0.7522
 5673SOL    HW121866   7.342   7.496   3.669  0.8288 -0.2801 -1.0829
 5673SOL    HW221867   7.191   7.503   3.663  0.7720  0.9187  0.9677
 5674SOL     OW21868   1.813   3.698   3.620 -0.0631 -0.2691 -0.0243
 5674SOL    HW121869   1.735   3.736   3.580  0.8965  1.3501 -0.4443
 5674SOL    HW221870   1.790   3.691   3.713  0.1069  2.5764  0.3238
 5675SOL     OW21871   2.626   5.754   6.061  0.0970 -0.4315  0.4421
 5675SOL    HW121872   2.575   5.699   6.001  1.1187 -2.2429  1.1616
 5675SOL    HW221873   2.588   5.841   6.051 -1.2371 -1.1369 -1.1530
 5676SOL     OW21874   3.961   0.985   9.069 -0.6036 -0.0439 -0.0537
 5676SOL    HW121875   4.010   1.046   9.124  1.1954 -1.1619 -0.3236
 5676SOL    HW221876   3.882   0.966   9.119  0.5217 -0.2864  1.7279
 5677SOL     OW21877   1.838   4.006   0.605  0.1369 -0.0122  0.3346
 5677SOL    HW121878   1.882   3.925   0.630  1.5071  0.6619  0.2294
 5677SOL    HW221879   1.750   3.998   0.639  0.9850 -0.4927  2.5707
 5678SOL     OW21880   4.205   5.495   0.572  0.0212 -0.1772 -0.2691
 5678SOL    HW121881   4.111   5.515   0.570  0.3860  1.6374 -0.5134
 5678SOL    HW221882   4.248   5.580   0.582  1.6586 -0.9678 -0.2410
 5679SOL     OW21883   0.498   2.053   0.950 -0.0267  0.0398 -0.5056
 5679SOL    HW121884   0.405   2.031   0.956 -0.1514  0.5313 -0.5598
 5679SOL    HW221885   0.531   2.043   1.039 -0.4280  1.1209 -0.2164
 5680SOL     OW21886   4.896   6.191   3.309  0.1218  0.3292  0.1569
 5680SOL    HW121887   4.833   6.253   3.346  2.2000  1.3680  2.1646
 5680SOL    HW221888   4.951   6.164   3.382  1.9436 -0.6342 -1.4528
 5681SOL     OW21889   0.418   2.087   1.997 -0.0074  0.2402 -0.1500
 5681SOL    HW121890   0.476   2.023   1.957  0.7279  0.4456  0.5785
 5681SOL    HW221891   0.476   2.152   2.036 -0.7338  0.9141 -0.1550
 5682SOL     OW21892   9.675   6.546   1.843  0.3595  0.3733 -0.2446
 5682SOL    HW121893   9.686   6.531   1.937  1.1652  0.8711 -0.2566
 5682SOL    HW221894   9.674   6.642   1.834 -0.3185  0.3349 -0.6788
 5683SOL     OW21895   5.001   0.725   1.464 -0.5179 -0.2953  0.1643
 5683SOL    HW121896   4.994   0.636   1.431 -0.4317 -0.2975  0.1522
 5683SOL    HW221897   5.073   0.722   1.527  0.4078  0.0617 -0.8324
 5684SOL     OW21898   3.730   2.398   7.723 -0.1451  0.2010  0.2595
 5684SOL    HW121899   3.654   2.445   7.758  0.0233  1.8770 -1.4085
 5684SOL    HW221900   3.782   2.466   7.681  0.8993 -1.2943 -0.9793
 5685SOL     OW21901   1.837   4.921   9.665 -0.1203 -0.3649 -0.3898
 5685SOL    HW121902   1.778   4.858   9.706 -1.6150  0.2504 -1.5282
 5685SOL    HW221903   1.921   4.906   9.708 -0.7471 -2.2317  0.2883
 5686SOL     OW21904   6.421   7.591   8.455  0.3791  0.1849  0.3230
 5686SOL    HW121905   6.345   7.532   8.452 -0.1497  0.8763 -0.9357
 5686SOL    HW221906   6.497   7.534   8.446 -0.0490 -0.4123  0.4486
 5687SOL     OW21907   6.326   6.884   1.905  0.5383  0.0305 -0.3579
 5687SOL    HW121908   6.369   6.962   1.940 -1.1856  1.6445 -1.6357
 5687SOL    HW221909   6.357   6.877   1.814 -1.0207  0.6031 -0.9650
 5688SOL     OW21910   4.284   4.069   6.878 -0.0198 -0.0678  0.1471
 5688SOL    HW121911   4.319   3.980   6.878 -1.0541 -0.5052  1.5109
 5688SOL    HW221912   4.197   4.061   6.838 -0.6854  0.0422  1.4918
 5689SOL     OW21913   1.888   2.177   6.501  0.0031 -0.3451  0.1014
 5689SOL    HW121914   1.827   2.241   6.535 -0.7397 -1.1245  0.2781
 5689SOL    HW221915   1.835   2.099   6.486  0.7759 -0.7577 -0.6054
 5690SOL     OW21916   5.596   1.814   2.821 -0.0815  0.0642  0.3498
 5690SOL    HW121917   5.597   1.910   2.818  0.7871  0.1312  2.0275
 5690SOL    HW221918   5.623   1.792   2.910  2.6919 -1.7746 -0.8073
 5691SOL     OW21919   5.475   7.912   0.909 -0.2207 -0.0590  0.1342
 5691SOL    HW121920   5.455   7.955   0.992 -1.7315  1.4978 -0.9504
 5691SOL    HW221921   5.570   7.921   0.899 -0.0567 -0.0713  1.5684
 5692SOL     OW21922   9.469   4.685   4.489  0.9350 -0.0012 -0.3501
 5692SOL    HW121923   9.555   4.719   4.461  0.4157  1.1192 -0.6601
 5692SOL    HW221924   9.489   4.628   4.563  1.7322  2.5034  1.4936
 5693SOL     OW21925   3.446   4.907   4.600 -0.3683 -0.1495  0.5697
 5693SOL    HW121926   3.526   4.901   4.653 -0.6162  2.1537  1.3205
 5693SOL    HW221927   3.403   4.822   4.610  1.1378 -0.8271  1.5252
 5694SOL     OW21928   6.758   4.227   3.347  0.1620 -0.2824  0.0579
 5694SOL    HW121929   6.829   4.177   3.389  0.6764 -0.5128 -1.0491
 5694SOL    HW221930   6.693   4.161   3.324  1.2499 -0.6715 -2.2471
 5695SOL     OW21931   8.137   0.017   9.033  0.1529 -0.0987 -0.9288
 5695SOL    HW121932   8.082   0.084   8.992  0.1085 -0.0928 -0.8613
 5695SOL    HW221933   8.225   0.054   9.030  0.0811  0.1050 -0.5991
 5696SOL     OW21934   6.730   3.256   2.731  0.0745 -0.1436 -0.0441
 5696SOL    HW121935   6.659   3.191   2.730 -0.2752  0.2136 -1.6905
 5696SOL    HW221936   6.717   3.304   2.812  0.2404 -2.0014  1.1540
 5697SOL     OW21937   6.047   4.465   9.380  0.1862  0.4020  0.5995
 5697SOL    HW121938   6.096   4.491   9.301  0.2167  0.4568  0.6369
 5697SOL    HW221939   6.114   4.430   9.439  0.0763 -0.3043  0.3256
 5698SOL     OW21940   6.194   7.474   4.146 -0.1901 -0.0672 -0.1965
 5698SOL    HW121941   6.193   7.414   4.220 -1.3332 -1.2093 -1.0802
 5698SOL    HW221942   6.113   7.525   4.157 -0.0293  0.2081 -0.3034
 5699SOL     OW21943   4.742   0.201   7.603 -0.5057 -0.2026 -0.4629
 5699SOL    HW121944   4.789   0.257   7.665 -0.0516 -1.8615  0.7619
 5699SOL    HW221945   4.662   0.177   7.648 -2.0129  1.5496 -2.0403
 5700SOL     OW21946   4.204   6.781   3.723 -0.7531 -0.1091 -0.8603
 5700SOL    HW121947   4.289   6.812   3.691 -0.3242 -0.9050 -0.5148
 5700SOL    HW221948   4.206   6.686   3.711 -1.3120 -0.2147 -0.2109
 5701SOL     OW21949   2.855   2.099   3.934  0.2912  0.6236  0.8108
 5701SOL    HW121950   2.827   2.009   3.953 -0.0524  1.1081  2.8780
 5701SOL    HW221951   2.774   2.149   3.933  0.3572  0.7968 -1.4846
 5702SOL     OW21952   0.676   7.314   5.478  0.3416  0.0758 -0.1065
 5702SOL    HW121953   0.762   7.281   5.506  0.4668  0.9015  0.5402
 5702SOL    HW221954   0.696   7.399   5.438  0.0685 -0.7242 -2.0407
 5703SOL     OW21955   4.293   7.511   1.530 -0.2915  0.2021 -0.3408
 5703SOL    HW121956   4.210   7.534   1.488 -1.2801  0.3855  1.5575
 5703SOL    HW221957   4.304   7.418   1.514 -1.4905 -0.0787  0.3178
 5704SOL     OW21958   7.971   8.154   4.228 -1.0812  0.6877 -0.0538
 5704SOL    HW121959   7.978   8.088   4.159 -2.0643  1.6505 -1.1200
 5704SOL    HW221960   8.043   8.134   4.288 -1.1817 -1.1725 -0.4860
 5705SOL     OW21961   6.513   5.587   4.035  0.8944  0.4384  0.0254
 5705SOL    HW121962   6.489   5.513   3.979 -3.0189  1.6049 -0.1702
 5705SOL    HW221963   6.516   5.550   4.123 -0.5257 -0.1100 -0.1269
 5706SOL     OW21964   0.352   6.294   7.248  0.2727  0.1165 -0.2115
 5706SOL    HW121965   0.394   6.379   7.256 -0.9377  0.6835  0.4048
 5706SOL    HW221966   0.401   6.237   7.308 -0.1622  0.9043  0.9293
 5707SOL     OW21967   2.403   8.583   6.242 -0.0202  0.0252 -0.2349
 5707SOL    HW121968   2.324   8.637   6.234  0.0625  0.1066 -0.5021
 5707SOL    HW221969   2.375   8.497   6.211  0.4092  0.4421 -1.8687
 5708SOL     OW21970   1.619   6.395   2.994  0.1453 -0.1693 -0.4319
 5708SOL    HW121971   1.560   6.470   2.983 -0.0355 -0.3539 -0.7519
 5708SOL    HW221972   1.568   6.332   3.046  0.7501  0.4237  0.9050
 5709SOL     OW21973   1.650   8.499   5.117 -0.4661  0.1155  0.2080
 5709SOL    HW121974   1.637   8.411   5.080  1.1686 -0.1382  0.1597
 5709SOL    HW221975   1.702   8.484   5.196  1.5580  1.1400 -0.8275
 5710SOL     OW21976   0.712   4.998   7.023 -0.4463 -0.1925  0.2239
 5710SOL    HW121977   0.727   4.988   7.117 -0.6022  1.3045  0.4218
 5710SOL    HW221978   0.624   4.965   7.010 -0.8432  0.5949  0.8055
 5711SOL     OW21979   8.048   4.871   3.206 -0.2803  0.3475 -0.4964
 5711SOL    HW121980   8.043   4.799   3.269  0.1750 -0.1703 -1.0400
 5711SOL    HW221981   8.042   4.950   3.260  0.6884 -0.0801  0.2637
 5712SOL     OW21982   6.306   6.880   6.648 -0.1726 -0.1170 -0.7258
 5712SOL    HW121983   6.396   6.909   6.636  0.2206 -0.5704  0.9422
 5712SOL    HW221984   6.310   6.785   6.642 -0.2291 -0.2558  1.0598
 5713SOL     OW21985   2.529   0.107   2.652  0.1515  0.1398  0.5682
 5713SOL    HW121986   2.598   0.155   2.607 -0.0436 -0.8529 -0.8612
 5713SOL    HW221987   2.454   0.111   2.592 -0.3160 -0.7125  1.0691
 5714SOL     OW21988   9.703   0.318   0.932  0.2284  0.1879 -0.1761
 5714SOL    HW121989   9.682   0.296   1.022  3.0500  1.0581  0.8077
 5714SOL    HW221990   9.727   0.234   0.892  1.6246  0.0967  0.7537
 5715SOL     OW21991   0.473   2.255   1.168 -0.3159 -0.2549 -0.0275
 5715SOL    HW121992   0.460   2.276   1.075  0.4658 -0.1872 -0.1277
 5715SOL    HW221993   0.424   2.323   1.214  1.6992  1.5812 -0.3623
 5716SOL     OW21994   7.468   3.502   9.190 -0.8100 -0.1332 -0.3585
 5716SOL    HW121995   7.386   3.488   9.237 -0.2389  0.0871  0.7358
 5716SOL    HW221996   7.525   3.431   9.219 -0.3181  0.2333 -0.4052
 5717SOL     OW21997   2.876   1.899   4.350  0.4809  0.4635  0.0676
 5717SOL    HW121998   2.872   1.986   4.311 -0.8336  0.8002  0.9127
 5717SOL    HW221999   2.925   1.846   4.286 -1.1176  1.1235 -1.7834
 5718SOL     OW22000   3.529   4.351   4.096  0.0087  0.1095  0.0332
 5718SOL    HW122001   3.583   4.370   4.020  2.0936 -0.5443  1.2776
 5718SOL    HW222002   3.466   4.424   4.099  0.6679  0.8007 -1.5657
 5719SOL     OW22003   7.163   2.848   1.132  0.4843 -0.1414  0.0178
 5719SOL    HW122004   7.232   2.830   1.069 -0.4081 -3.3526 -0.2284
 5719SOL    HW222005   7.123   2.763   1.149 -2.9080  1.4217  0.7533
 5720SOL     OW22006   3.642   1.845   0.561 -0.2771  0.1783  0.2436
 5720SOL    HW122007   3.703   1.918   0.557  1.7331 -1.3393  1.3646
 5720SOL    HW222008   3.683   1.782   0.620 -1.6928 -2.0457 -0.9742
 5721SOL     OW22009   5.876   8.466   7.004  0.0186  0.3209  0.0042
 5721SOL    HW122010   5.789   8.454   7.041  0.2879  0.5556  0.7194
 5721SOL    HW222011   5.931   8.402   7.050  0.3896  0.7315  0.1328
 5722SOL     OW22012   8.410   6.795   8.795 -0.3858 -0.1776  0.1799
 5722SOL    HW122013   8.424   6.875   8.845  0.4180  0.3893 -0.9145
 5722SOL    HW222014   8.460   6.728   8.843 -1.1201 -0.0686  1.1357
 5723SOL     OW22015   2.237   4.036   7.269 -0.2920 -0.2605 -0.9825
 5723SOL    HW122016   2.153   4.053   7.313 -0.8102 -0.3439 -1.9278
 5723SOL    HW222017   2.288   4.115   7.285 -1.2107  0.5345 -1.9126
 5724SOL     OW22018   6.454   2.481   3.646  0.1995 -0.2578 -0.2504
 5724SOL    HW122019   6.398   2.474   3.568  0.3398 -0.2112 -0.3573
 5724SOL    HW222020   6.439   2.570   3.678  2.5973  0.9434 -2.1418
 5725SOL     OW22021   8.977   0.036   8.751 -0.2557 -0.0164  0.6925
 5725SOL    HW122022   9.070   0.058   8.745 -0.6593  1.5442 -1.3032
 5725SOL    HW222023   8.967  -0.006   8.836  1.9994  1.2160  1.6628
 5726SOL     OW22024   0.607   6.858   9.419  0.0356 -0.5791  0.4346
 5726SOL    HW122025   0.517   6.827   9.403 -0.2507 -1.2339  2.8522
 5726SOL    HW222026   0.649   6.784   9.462  1.0660  0.5034  1.3186
 5727SOL     OW22027   5.148   2.842   9.738  0.1270  0.0985 -0.3710
 5727SOL    HW122028   5.131   2.900   9.813  0.4125 -0.6052  0.2467
 5727SOL    HW222029   5.229   2.796   9.761  0.1879 -0.1723 -1.0923
 5728SOL     OW22030   6.861   3.646   7.387  0.2018  1.1727 -0.2733
 5728SOL    HW122031   6.800   3.700   7.337  1.8114  2.7926 -0.5977
 5728SOL    HW222032   6.885   3.701   7.462 -0.5937 -0.4177  1.2236
 5729SOL     OW22033   5.110   7.398   5.702 -0.0396  0.2176 -0.4655
 5729SOL    HW122034   5.073   7.311   5.720 -0.9789  0.3623 -1.5724
 5729SOL    HW222035   5.189   7.402   5.756  0.7892 -1.8814 -1.4292
 5730SOL     OW22036   5.207   7.239   4.292  0.2644 -0.1553 -0.5401
 5730SOL    HW122037   5.204   7.217   4.385 -1.0052  0.7668 -0.3420
 5730SOL    HW222038   5.134   7.192   4.253  0.3838 -0.0086 -0.9458
 5731SOL     OW22039   9.513   9.681   1.967  0.4599 -0.3677 -0.2110
 5731SOL    HW122040   9.577   9.745   1.938 -0.2577  0.5220  0.1126
 5731SOL    HW222041   9.444   9.684   1.899 -0.5024  0.6392  0.7585
 5732SOL     OW22042   9.596   4.649   9.088 -0.4323 -0.2688 -0.0087
 5732SOL    HW122043   9.587   4.729   9.036 -1.3343 -0.0115  0.5238
 5732SOL    HW222044   9.535   4.587   9.048 -0.7515 -0.2360  0.4150
 5733SOL     OW22045   5.965   6.061   3.536 -0.2874  0.4158  0.0009
 5733SOL    HW122046   5.906   6.063   3.460 -0.5311  0.4170  0.1871
 5733SOL    HW222047   6.007   5.976   3.531 -0.1920  0.4741 -0.2188
 5734SOL     OW22048   1.148   0.120   5.412 -0.0833 -0.0262  0.4658
 5734SOL    HW122049   1.205   0.043   5.411 -1.9127 -1.4667 -0.2712
 5734SOL    HW222050   1.070   0.091   5.460 -1.0825  1.1430 -0.3941
 5735SOL     OW22051   2.118   0.602   4.802 -0.4236  0.4386  0.0771
 5735SOL    HW122052   2.197   0.588   4.854 -1.4621 -0.7958  1.3842
 5735SOL    HW222053   2.143   0.671   4.740  2.2031 -1.0697 -0.7286
 5736SOL     OW22054   4.328   3.880   7.767 -0.1314 -0.8358 -0.0248
 5736SOL    HW122055   4.288   3.965   7.784 -1.5192 -1.3746 -0.3609
 5736SOL    HW222056   4.415   3.900   7.733 -0.2738  0.4299  0.3065
 5737SOL     OW22057   1.014   8.840   2.866 -0.2902 -0.4429 -0.7299
 5737SOL    HW122058   0.942   8.900   2.888  0.1607 -0.1608 -0.0091
 5737SOL    HW222059   1.092   8.883   2.900  0.2923 -0.5124 -1.9536
 5738SOL     OW22060   7.440   5.431   8.262  0.4612 -0.1771  0.6941
 5738SOL    HW122061   7.364   5.399   8.308  0.4587  0.3515  1.0683
 5738SOL    HW222062   7.412   5.437   8.170 -0.3931  1.2984  1.0257
 5739SOL     OW22063   4.592   0.164   0.077  0.3789 -0.5181 -0.4120
 5739SOL    HW122064   4.582   0.106   0.152 -0.2604  0.2421  0.1050
 5739SOL    HW222065   4.576   0.252   0.112 -0.7240 -0.2214 -1.5895
 5740SOL     OW22066   9.336   3.573   5.537 -0.2224  0.0992 -0.1580
 5740SOL    HW122067   9.328   3.485   5.573  0.5477  0.2340  0.3866
 5740SOL    HW222068   9.424   3.575   5.498  0.9761  1.4373  2.3144
 5741SOL     OW22069   0.060   9.263   2.863 -0.2272 -0.4105 -0.0637
 5741SOL    HW122070   0.052   9.327   2.793  1.5432 -0.5355 -0.4364
 5741SOL    HW222071  -0.012   9.201   2.849 -0.6663  0.2942 -0.9831
 5742SOL     OW22072   6.923   7.811   9.559 -0.2596 -0.0493  0.0064
 5742SOL    HW122073   6.940   7.843   9.647 -0.8187 -0.3183  0.2156
 5742SOL    HW222074   6.888   7.722   9.571  0.3720 -0.3851 -0.5183
 5743SOL     OW22075   1.151   6.257   5.760  0.0124 -0.0738  0.9653
 5743SOL    HW122076   1.186   6.340   5.728  1.2015 -1.0877 -0.4986
 5743SOL    HW222077   1.056   6.268   5.757  0.1493  0.9666  0.0631
 5744SOL     OW22078   0.578   2.724   2.577  0.0335  0.0057 -0.1163
 5744SOL    HW122079   0.563   2.657   2.510 -1.3472  0.2498 -0.0778
 5744SOL    HW222080   0.513   2.705   2.645  0.9194  0.2203  0.8048
 5745SOL     OW22081   7.982   2.495   4.618 -0.0476 -0.0480 -0.1824
 5745SOL    HW122082   7.946   2.407   4.625 -1.2007  0.2668 -1.8035
 5745SOL    HW222083   7.907   2.553   4.631  0.3087  0.6542 -1.1454
 5746SOL     OW22084   9.566   7.716   8.411  0.2270  0.1138  0.1747
 5746SOL    HW122085   9.607   7.784   8.464 -0.2690  0.2147  0.4400
 5746SOL    HW222086   9.472   7.728   8.425  0.1141 -0.2631 -0.2299
 5747SOL     OW22087   3.904   5.011   6.617 -0.4542 -0.2835  0.1860
 5747SOL    HW122088   3.822   4.966   6.598 -0.5032 -0.3486  0.5460
 5747SOL    HW222089   3.917   5.071   6.543 -1.9335  1.3141  1.1526
 5748SOL     OW22090   4.782   3.254   6.252 -0.6753 -0.1303 -0.4057
 5748SOL    HW122091   4.859   3.267   6.196 -0.4716 -0.1583 -0.1378
 5748SOL    HW222092   4.797   3.169   6.294  0.0922  0.6899  1.0873
 5749SOL     OW22093   7.601   2.026   7.070  0.1129  0.7514  0.2736
 5749SOL    HW122094   7.650   2.003   6.991 -1.5924 -1.0485 -0.3143
 5749SOL    HW222095   7.535   1.958   7.079 -0.1731  1.2568  2.9157
 5750SOL     OW22096   9.176   6.229   8.871  0.6472 -0.0368 -0.0041
 5750SOL    HW122097   9.130   6.309   8.848 -3.5672 -2.1328  0.1458
 5750SOL    HW222098   9.171   6.225   8.967 -0.1479 -0.9295 -0.0689
 5751SOL     OW22099   8.658   2.957   2.876  0.2635  0.1031 -0.3144
 5751SOL    HW122100   8.650   2.873   2.830 -0.4403 -1.4708  2.4398
 5751SOL    HW222101   8.751   2.963   2.898 -0.0732 -1.5407  1.9883
 5752SOL     OW22102   2.256   5.976   0.237 -0.0110 -0.6090  0.7049
 5752SOL    HW122103   2.307   6.033   0.295 -0.2281 -0.5634  0.8551
 5752SOL    HW222104   2.301   5.892   0.239  0.8093 -0.2070 -0.1965
 5753SOL     OW22105   3.740   7.587   4.445  0.0180  0.5713  0.2861
 5753SOL    HW122106   3.777   7.650   4.506  0.2696 -0.7525  1.5532
 5753SOL    HW222107   3.816   7.552   4.397 -0.0650  0.8443 -0.0507
 5754SOL     OW22108   1.757   5.881   3.284  0.2645 -0.4620 -0.2618
 5754SOL    HW122109   1.699   5.809   3.259 -1.9219  0.3109  2.0838
 5754SOL    HW222110   1.794   5.912   3.202  0.0598 -3.2365 -1.4884
 5755SOL     OW22111   3.092   7.056   4.477  0.3818 -0.0992 -0.2075
 5755SOL    HW122112   2.998   7.041   4.485  0.5432 -0.4559  1.2828
 5755SOL    HW222113   3.120   6.995   4.409 -0.7951  1.6266 -2.3779
 5756SOL     OW22114   7.291   2.461   1.181  0.0516  0.0978  0.2222
 5756SOL    HW122115   7.244   2.378   1.191 -2.1701  1.1398 -0.9696
 5756SOL    HW222116   7.345   2.448   1.102 -0.3977 -0.1783 -0.0423
 5757SOL     OW22117   9.628   0.983   6.477 -0.3148  0.6694 -0.3167
 5757SOL    HW122118   9.589   0.897   6.490 -0.1186  0.5903 -0.2603
 5757SOL    HW222119   9.552   1.042   6.468 -0.4801  0.8447  1.8234
 5758SOL     OW22120   0.502   1.133   3.034  0.2250  0.0578 -0.2972
 5758SOL    HW122121   0.491   1.206   3.095  0.1842  1.6884 -2.1315
 5758SOL    HW222122   0.542   1.064   3.086 -0.5194  1.0626  1.7389
 5759SOL     OW22123   7.484   1.992   9.105  0.0408 -0.3673 -0.1860
 5759SOL    HW122124   7.438   2.049   9.166  1.6735  0.6244  0.1805
 5759SOL    HW222125   7.414   1.947   9.057 -1.3532 -1.5880  2.6969
 5760SOL     OW22126   5.866   1.994   3.809  0.6159  0.2034 -0.1741
 5760SOL    HW122127   5.943   2.050   3.819  0.9486 -0.3149  0.3187
 5760SOL    HW222128   5.886   1.918   3.864  0.3918 -0.6152 -1.1968
 5761SOL     OW22129   3.200   8.487   5.502 -0.3633  0.2031  0.0424
 5761SOL    HW122130   3.182   8.558   5.441  0.9016 -0.5235 -1.2274
 5761SOL    HW222131   3.126   8.427   5.491 -0.8180  0.7148  0.2335
 5762SOL     OW22132   2.062   8.812   9.378  0.4228 -0.4421  0.3016
 5762SOL    HW122133   2.092   8.820   9.288 -1.4691 -3.2967 -0.7507
 5762SOL    HW222134   2.000   8.738   9.376 -3.3648  2.2500  2.9885
 5763SOL     OW22135   6.468   5.031   1.209  0.2877 -0.0343 -0.8860
 5763SOL    HW122136   6.379   5.061   1.226  0.7189  1.1087 -0.6077
 5763SOL    HW222137   6.470   4.942   1.243 -0.2332  0.5555  0.7593
 5764SOL     OW22138   8.720   9.723   4.267  0.5077  0.0594 -0.3282
 5764SOL    HW122139   8.743   9.653   4.328  2.3843  0.0218 -1.0043
 5764SOL    HW222140   8.784   9.792   4.285 -0.1968  0.8685 -0.8690
 5765SOL     OW22141   8.532   2.485   3.300  0.5209 -0.6460  0.0623
 5765SOL    HW122142   8.463   2.467   3.235 -0.0578  2.2308 -0.2512
 5765SOL    HW222143   8.520   2.416   3.366 -2.1332 -0.7521 -0.3999
 5766SOL     OW22144   4.640   9.652   3.213 -0.1118 -0.2147  0.0101
 5766SOL    HW122145   4.723   9.686   3.179  0.5477 -0.7288  1.0428
 5766SOL    HW222146   4.656   9.641   3.307 -0.8001 -1.9074 -0.0506
 5767SOL     OW22147   7.946   9.711   5.303  0.2749  0.1848 -0.6447
 5767SOL    HW122148   7.962   9.801   5.333 -3.3521  0.6974  0.1622
 5767SOL    HW222149   7.901   9.722   5.219 -0.8056 -0.8374 -0.2176
 5768SOL     OW22150   4.567   2.862   6.445 -0.0870  0.6346  0.0156
 5768SOL    HW122151   4.571   2.923   6.371  0.5036 -0.6080 -1.0320
 5768SOL    HW222152   4.474   2.855   6.465 -0.2484  1.0475 -0.5692
 5769SOL     OW22153   4.464   9.561   9.209  0.2997 -0.0492 -0.0459
 5769SOL    HW122154   4.444   9.623   9.139 -1.7895 -2.1136 -1.4606
 5769SOL    HW222155   4.392   9.573   9.272 -0.2728 -1.1298 -0.4619
 5770SOL     OW22156   0.899   1.657   5.377 -0.5619  0.2572 -0.1426
 5770SOL    HW122157   0.947   1.656   5.294 -0.8635 -2.3581 -0.3677
 5770SOL    HW222158   0.951   1.602   5.435  0.0787  2.6890  1.7595
 5771SOL     OW22159   0.948   6.629   4.431  0.1120 -0.3638  0.7642
 5771SOL    HW122160   1.040   6.608   4.443  0.3703  1.5828  2.7502
 5771SOL    HW222161   0.919   6.570   4.361  2.3720 -2.3014  1.3271
 5772SOL     OW22162   7.046   5.712   2.626  1.0308  0.0295  0.0079
 5772SOL    HW122163   7.004   5.796   2.643  2.9005  0.6755  1.9219
 5772SOL    HW222164   7.084   5.721   2.539 -2.2507 -0.4334 -1.6005
 5773SOL     OW22165   8.116   2.317   8.606  0.3420 -0.7315 -0.2490
 5773SOL    HW122166   8.078   2.313   8.694 -1.0269 -0.8658 -0.8235
 5773SOL    HW222167   8.041   2.313   8.548  0.9710  2.3263 -1.4215
 5774SOL     OW22168   8.680   7.459   3.441 -0.0338  0.1669 -0.2063
 5774SOL    HW122169   8.638   7.538   3.474 -0.7581 -0.4809  0.4641
 5774SOL    HW222170   8.768   7.460   3.479 -0.5504 -0.1062  1.0552
 5775SOL     OW22171   5.637   9.704   8.886  0.6578  0.3794  0.6666
 5775SOL    HW122172   5.604   9.782   8.842  0.8808  0.4819  0.6813
 5775SOL    HW222173   5.732   9.710   8.877  0.8268  1.1799  2.4325
 5776SOL     OW22174   3.854   0.222   1.606 -0.8941 -0.8543 -0.2733
 5776SOL    HW122175   3.926   0.267   1.651 -1.5623 -0.2801  0.2238
 5776SOL    HW222176   3.882   0.218   1.514 -0.6644  0.2592 -0.2662
 5777SOL     OW22177   8.822   6.336   9.268  0.1218 -0.0221 -0.1688
 5777SOL    HW122178   8.740   6.331   9.219 -0.5321  0.3446  0.8632
 5777SOL    HW222179   8.815   6.416   9.320  0.1505 -1.1384  1.6492
 5778SOL     OW22180   8.550   3.519   0.793 -0.4241 -0.1559 -0.7362
 5778SOL    HW122181   8.562   3.494   0.702  0.3751 -0.3469 -0.5877
 5778SOL    HW222182   8.627   3.572   0.814 -1.6239  1.7090 -0.7778
 5779SOL     OW22183   2.596   5.646   9.709 -0.0675 -0.3364 -0.1515
 5779SOL    HW122184   2.644   5.597   9.775 -2.2077 -1.4913  0.6538
 5779SOL    HW222185   2.569   5.726   9.754  0.2948 -0.1246 -0.3082
 5780SOL     OW22186   1.428   4.994   8.934 -0.8144 -0.7729  0.6343
 5780SOL    HW122187   1.439   4.950   9.018 -0.3535  0.7525  1.4061
 5780SOL    HW222188   1.472   5.078   8.944  0.1418 -0.9340 -1.4805
 5781SOL     OW22189   5.877   7.208   6.959 -0.9729 -0.0020 -0.2506
 5781SOL    HW122190   5.913   7.269   6.895 -1.0768  1.3095  0.8915
 5781SOL    HW222191   5.907   7.122   6.930  0.7407  0.7611 -0.8785
 5782SOL     OW22192   5.480   2.209   0.135  0.0529  0.2914 -0.5910
 5782SOL    HW122193   5.494   2.119   0.106  0.4645 -0.1272  0.8371
 5782SOL    HW222194   5.473   2.260   0.054 -0.7963 -1.1064 -1.4217
 5783SOL     OW22195   7.555   9.092   8.629  0.0291 -0.0937  0.0171
 5783SOL    HW122196   7.526   9.031   8.696  1.2548  1.0910  1.6928
 5783SOL    HW222197   7.644   9.064   8.606  1.0218  1.5684  1.5578
 5784SOL     OW22198   3.959   2.422   2.531  0.2363  0.4201 -0.4403
 5784SOL    HW122199   3.904   2.418   2.609  1.8784  1.0640  0.8381
 5784SOL    HW222200   3.906   2.465   2.465 -0.0441  3.2361  1.4674
 5785SOL     OW22201   7.048   2.226   4.328 -0.2042  0.1912 -0.1808
 5785SOL    HW122202   7.091   2.198   4.247 -1.1401 -0.2735 -0.5392
 5785SOL    HW222203   7.063   2.155   4.390  0.4256  0.5009  0.0263
 5786SOL     OW22204   1.715   5.108   0.576 -0.1677  0.4496  0.4344
 5786SOL    HW122205   1.647   5.102   0.509 -0.5678  2.8898  0.5445
 5786SOL    HW222206   1.689   5.044   0.642 -1.6846  0.4614 -0.1146
 5787SOL     OW22207   3.846   5.887   3.397 -0.3866  0.5404  0.1944
 5787SOL    HW122208   3.918   5.835   3.433  1.0286  2.2186 -0.0588
 5787SOL    HW222209   3.768   5.836   3.416  0.8506 -1.3465  0.5247
 5788SOL     OW22210   1.941   4.104   1.869  0.4355 -0.1230  0.7950
 5788SOL    HW122211   1.933   4.014   1.836 -2.0168  0.0583  0.7476
 5788SOL    HW222212   2.035   4.120   1.872  0.9021 -2.3880 -0.0209
 5789SOL     OW22213   0.316   4.985   9.073  0.0690 -0.1334  0.6363
 5789SOL    HW122214   0.327   5.014   9.163 -2.0432 -1.7710  1.5165
 5789SOL    HW222215   0.224   4.957   9.068  0.5073 -1.4326 -1.5932
 5790SOL     OW22216   1.366   6.923   0.011 -0.2571  0.3006 -0.1192
 5790SOL    HW122217   1.340   6.954  -0.076  0.0572  1.0916  0.0581
 5790SOL    HW222218   1.286   6.885   0.048 -0.1154 -1.0878 -1.1862
 5791SOL     OW22219   8.621   6.165   0.265 -0.3905  0.0603  0.4273
 5791SOL    HW122220   8.710   6.199   0.254 -0.9103  2.3989  2.4823
 5791SOL    HW222221   8.632   6.089   0.323  0.3124 -0.0107  0.2154
 5792SOL     OW22222   3.342   1.001   7.018 -0.1433 -0.1366 -0.0583
 5792SOL    HW122223   3.428   1.010   7.057 -1.3032 -0.3158  2.7607
 5792SOL    HW222224   3.334   0.908   6.998 -0.0742 -0.3170  0.7203
 5793SOL     OW22225   3.873   1.648   8.758  0.3450  0.0170 -0.3043
 5793SOL    HW122226   3.806   1.697   8.711  2.8151  3.5573 -0.5622
 5793SOL    HW222227   3.840   1.642   8.848 -1.0516  0.0647 -0.7952
 5794SOL     OW22228   3.120   2.090   7.598  0.3575  0.1288  0.7088
 5794SOL    HW122229   3.205   2.049   7.613  0.2685 -1.6859 -2.8217
 5794SOL    HW222230   3.139   2.165   7.542 -0.3572 -0.5167 -0.4273
 5795SOL     OW22231   8.519   4.549   3.765  0.7787 -0.3212  0.4120
 5795SOL    HW122232   8.450   4.614   3.778  1.8116  0.4999  2.1030
 5795SOL    HW222233   8.587   4.597   3.717  0.7901 -0.7048  0.0403
 5796SOL     OW22234   5.083   4.139   7.605 -0.3721  0.3473 -0.0350
 5796SOL    HW122235   5.096   4.143   7.510 -0.6249  0.0929 -0.0828
 5796SOL    HW222236   5.154   4.191   7.642  0.6591 -0.8507 -0.2803
 5797SOL     OW22237   5.092   5.700   3.037 -0.0633  0.5689 -0.1343
 5797SOL    HW122238   5.053   5.627   2.988  0.9934  0.2823 -0.5684
 5797SOL    HW222239   5.118   5.663   3.121 -0.0140  0.5778 -0.1457
 5798SOL     OW22240   6.141   7.543   2.206 -0.2873 -0.6710  0.0577
 5798SOL    HW122241   6.138   7.483   2.280 -1.5898  0.2341  0.7683
 5798SOL    HW222242   6.230   7.579   2.208 -0.7874  0.6284  2.2608
 5799SOL     OW22243   8.878   2.996   1.527  0.2250  0.1803 -0.3166
 5799SOL    HW122244   8.803   3.043   1.491 -0.1849 -1.3602 -1.6102
 5799SOL    HW222245   8.939   2.988   1.453 -0.5328 -2.8505 -0.7533
 5800SOL     OW22246   7.870   3.878   6.695  0.4238  0.0208 -0.3985
 5800SOL    HW122247   7.867   3.907   6.786 -2.1890 -0.9082 -0.1043
 5800SOL    HW222248   7.865   3.958   6.643 -3.0618  0.4803  0.3838
 5801SOL     OW22249   6.868   1.387   3.750 -0.1112  0.1639 -0.5431
 5801SOL    HW122250   6.944   1.356   3.800 -1.7334 -2.0008  0.8042
 5801SOL    HW222251   6.858   1.322   3.680 -0.2045  0.9531 -1.2734
 5802SOL     OW22252   1.141   9.235   9.089 -0.2364 -0.5609 -0.3941
 5802SOL    HW122253   1.124   9.142   9.100 -1.5534 -0.0702  2.6591
 5802SOL    HW222254   1.054   9.275   9.082  0.3145  0.4398 -2.3563
 5803SOL     OW22255   7.391   7.211   9.412  0.0291  0.4039 -0.6010
 5803SOL    HW122256   7.451   7.181   9.479  0.1367 -0.8740 -1.2439
 5803SOL    HW222257   7.442   7.272   9.359  0.2554  0.5883 -0.1735
 5804SOL     OW22258   2.482   2.788   5.017 -0.1526  0.2362 -0.5854
 5804SOL    HW122259   2.407   2.788   4.959 -0.0936 -0.4119 -0.6645
 5804SOL    HW222260   2.446   2.765   5.103 -0.0920  0.2250 -0.5630
 5805SOL     OW22261   9.223   3.777   3.200 -0.0778 -0.1922 -0.2716
 5805SOL    HW122262   9.259   3.864   3.185  0.0476 -0.0645  0.6978
 5805SOL    HW222263   9.284   3.736   3.261 -0.9476 -0.3994  0.4707
 5806SOL     OW22264   2.610   9.251   5.346 -0.0855  0.2193 -0.3090
 5806SOL    HW122265   2.606   9.271   5.439  1.4755  1.7676 -0.5337
 5806SOL    HW222266   2.611   9.155   5.342  0.8407  0.1278  1.3424
 5807SOL     OW22267   1.138   5.755   0.073  0.2923  0.1402  0.2099
 5807SOL    HW122268   1.106   5.836   0.113 -0.6016 -0.1646  0.1250
 5807SOL    HW222269   1.131   5.772  -0.021 -0.9531 -0.4323  0.1858
 5808SOL     OW22270   4.111   1.759   1.708 -0.1380  0.3530  0.5560
 5808SOL    HW122271   4.194   1.794   1.739  0.6600 -0.5581 -0.4640
 5808SOL    HW222272   4.099   1.796   1.621  0.4634 -1.4181 -0.3251
 5809SOL     OW22273   8.596   3.067   8.020 -0.0999  0.4359  0.1490
 5809SOL    HW122274   8.552   3.084   7.937 -0.9652 -1.5326  0.1425
 5809SOL    HW222275   8.556   3.128   8.082  0.3632  1.7296 -0.7873
 5810SOL     OW22276   0.111   0.265   3.921 -0.0875  0.6206  0.0737
 5810SOL    HW122277   0.141   0.266   4.012  0.0312 -0.4664  0.0673
 5810SOL    HW222278   0.018   0.288   3.926 -0.5213 -1.0864  0.6855
 5811SOL     OW22279   2.700   3.728   4.627 -0.5180  0.2360 -0.0205
 5811SOL    HW122280   2.689   3.818   4.594 -0.9128  0.8059  1.6064
 5811SOL    HW222281   2.691   3.736   4.722  1.2573 -1.2667  0.3101
 5812SOL     OW22282   4.226   3.813   9.533 -0.2755  0.4837  0.4654
 5812SOL    HW122283   4.263   3.883   9.587  1.8051  1.5358 -2.0587
 5812SOL    HW222284   4.141   3.846   9.505  1.6165  3.4569 -2.6989
 5813SOL     OW22285   1.103   7.817   2.366 -0.2049 -0.0451  0.2959
 5813SOL    HW122286   1.131   7.760   2.294 -0.4726  1.9510 -1.5205
 5813SOL    HW222287   1.013   7.790   2.384 -0.7724  0.5736 -1.4250
 5814SOL     OW22288   9.416   1.881   5.377  0.5743 -0.0573  0.1884
 5814SOL    HW122289   9.422   1.861   5.470  1.5676 -0.7281 -0.0057
 5814SOL    HW222290   9.330   1.922   5.367 -0.8198 -2.5959  0.9231
 5815SOL     OW22291   5.202   2.403   9.356  0.3036 -0.1196  0.3050
 5815SOL    HW122292   5.237   2.491   9.350 -0.3872  0.1227 -0.1909
 5815SOL    HW222293   5.237   2.357   9.279  0.7831 -0.3295  0.6411
 5816SOL     OW22294   5.271   0.412   0.104 -0.4747 -0.2443 -0.5492
 5816SOL    HW122295   5.195   0.404   0.161  0.2925 -2.2718  0.2757
 5816SOL    HW222296   5.271   0.333   0.051  0.0458  0.6069 -1.8865
 5817SOL     OW22297   4.179   7.376   8.029 -0.0941  0.0171 -0.1195
 5817SOL    HW122298   4.204   7.380   8.122  0.5762  0.7791 -0.3129
 5817SOL    HW222299   4.251   7.328   7.988 -0.1929  0.0317 -0.3059
 5818SOL     OW22300   7.361   7.006   6.869 -0.3951 -0.1860  0.3127
 5818SOL    HW122301   7.279   7.047   6.841  0.1563  1.7248  1.3144
 5818SOL    HW222302   7.429   7.057   6.826  0.2923 -1.3703 -0.0247
 5819SOL     OW22303   3.537   6.380   2.254 -0.3308 -0.3073 -0.1181
 5819SOL    HW122304   3.609   6.438   2.227  0.9194 -1.5193  0.4941
 5819SOL    HW222305   3.472   6.389   2.184 -0.3498  2.0654  0.1159
 5820SOL     OW22306   0.893   7.459   1.051  0.0296 -0.0320 -0.3390
 5820SOL    HW122307   0.798   7.473   1.054  0.0422 -0.0263  1.6308
 5820SOL    HW222308   0.906   7.377   1.098  1.0358  0.2535 -0.1019
 5821SOL     OW22309   1.474   2.375   1.371 -0.1771 -0.4814  0.5005
 5821SOL    HW122310   1.560   2.415   1.384 -0.9094  1.5693 -0.4831
 5821SOL    HW222311   1.438   2.420   1.295 -2.7578 -0.1412  1.8132
 5822SOL     OW22312   6.157   1.060   5.729 -1.6110 -0.6051 -0.1089
 5822SOL    HW122313   6.170   1.152   5.750 -2.3080 -0.6071  0.3736
 5822SOL    HW222314   6.063   1.045   5.743 -1.4133 -1.5130  0.3461
 5823SOL     OW22315   8.790   3.442   4.285 -0.3460  0.0599 -0.0622
 5823SOL    HW122316   8.792   3.531   4.252 -2.3017  0.4906  0.8558
 5823SOL    HW222317   8.868   3.400   4.247 -1.2592  1.0968 -3.3709
 5824SOL     OW22318   6.998   2.155   8.681  0.1099 -0.0543  0.3079
 5824SOL    HW122319   7.046   2.079   8.715 -1.2808 -0.8234  0.6335
 5824SOL    HW222320   6.937   2.177   8.751 -0.8594  0.1081 -0.5731
 5825SOL     OW22321   4.509   8.855   3.371  0.0950  0.5660  0.2507
 5825SOL    HW122322   4.527   8.928   3.312  0.2139 -0.3599 -0.8866
 5825SOL    HW222323   4.595   8.822   3.396  0.1235 -1.5956 -2.3382
 5826SOL     OW22324   4.940   4.570   8.095 -0.2672  0.2394  0.0257
 5826SOL    HW122325   4.972   4.491   8.052  2.8270  0.8934  0.8914
 5826SOL    HW222326   4.955   4.555   8.189 -0.5035  1.4979  0.2899
 5827SOL     OW22327   9.515   4.605   8.458 -0.6971  0.2091 -0.1842
 5827SOL    HW122328   9.500   4.581   8.550  1.3729 -0.4832  0.0219
 5827SOL    HW222329   9.437   4.574   8.412 -0.7744 -1.5110  1.0136
 5828SOL     OW22330   3.352   4.938   6.637 -0.4409 -0.7315  0.2806
 5828SOL    HW122331   3.330   4.902   6.722 -0.0497  0.3407  0.8505
 5828SOL    HW222332   3.285   5.005   6.620 -0.1907 -0.5405  0.0123
 5829SOL     OW22333   6.136   7.399   6.814 -0.2181  0.7858 -0.1863
 5829SOL    HW122334   6.122   7.361   6.728 -1.0834 -0.4628  0.4684
 5829SOL    HW222335   6.213   7.354   6.848 -0.4361  0.5931  0.0567
 5830SOL     OW22336   0.398   9.105   1.000 -0.6630 -0.8558 -0.6513
 5830SOL    HW122337   0.358   9.104   0.913  0.5854  1.1493 -1.3086
 5830SOL    HW222338   0.475   9.161   0.990 -0.5939 -0.4186  1.7989
 5831SOL     OW22339   1.199   2.545   8.809  0.6047  0.3116  0.7418
 5831SOL    HW122340   1.154   2.610   8.754  2.5850  0.3607 -0.9795
 5831SOL    HW222341   1.292   2.567   8.799  1.2210 -1.7469  1.5059
 5832SOL     OW22342   2.552   7.067   4.227 -0.4485  0.5125 -0.4523
 5832SOL    HW122343   2.463   7.084   4.258 -0.5627 -1.0383  0.1774
 5832SOL    HW222344   2.545   6.987   4.175  0.8181 -0.7449  1.1676
 5833SOL     OW22345   3.466   6.649   5.888 -0.8323 -0.5811 -0.7054
 5833SOL    HW122346   3.380   6.617   5.917 -0.2928 -0.9456  0.5403
 5833SOL    HW222347   3.529   6.597   5.937  0.1028  1.6939  0.7118
 5834SOL     OW22348   8.348   8.822   4.083 -0.2267 -0.0879  0.5199
 5834SOL    HW122349   8.400   8.828   4.163  0.0227  1.4194  0.2841
 5834SOL    HW222350   8.257   8.827   4.113 -0.1530 -0.0958  0.7481
 5835SOL     OW22351   6.314   9.711   7.657 -0.5636  0.1732  0.0817
 5835SOL    HW122352   6.290   9.803   7.643 -0.5919  0.3742  1.3298
 5835SOL    HW222353   6.409   9.713   7.671 -0.1600 -0.3000 -2.2170
 5836SOL     OW22354   5.466   1.557   7.379 -0.5763 -0.2875  0.0287
 5836SOL    HW122355   5.495   1.467   7.392 -1.9940 -0.8345 -0.4098
 5836SOL    HW222356   5.492   1.578   7.289 -1.0274 -0.5939 -0.1811
 5837SOL     OW22357   9.663   4.788   8.349  0.0353  0.4987 -0.3507
 5837SOL    HW122358   9.740   4.792   8.406 -0.2894 -1.5934  0.3385
 5837SOL    HW222359   9.612   4.715   8.384 -0.6144 -0.3177 -2.8183
 5838SOL     OW22360   0.039   0.776   3.837  0.4002  0.6767 -0.0175
 5838SOL    HW122361   0.111   0.751   3.780  0.7525  1.6008  0.0118
 5838SOL    HW222362  -0.031   0.804   3.778 -0.0350 -0.4279 -0.0541
 5839SOL     OW22363   6.966   8.633   2.130 -0.0722 -0.1517 -0.2923
 5839SOL    HW122364   6.908   8.602   2.199  0.7919 -0.3932  0.3434
 5839SOL    HW222365   7.048   8.653   2.175 -0.4389  2.7801 -0.6769
 5840SOL     OW22366   7.758   0.248   5.885 -0.0035  0.2516  0.0752
 5840SOL    HW122367   7.663   0.261   5.888 -0.2474 -1.3394 -0.1516
 5840SOL    HW222368   7.773   0.166   5.931  1.2489  0.3562 -0.1105
 5841SOL     OW22369   7.050   4.281   5.574 -0.2978  0.0911  0.4558
 5841SOL    HW122370   7.129   4.226   5.579 -0.5803 -0.2692  1.0728
 5841SOL    HW222371   6.991   4.244   5.640 -1.2752 -0.1094 -0.5068
 5842SOL     OW22372   5.026   0.549   8.801  0.1526  0.1287  0.0491
 5842SOL    HW122373   4.980   0.559   8.884  0.6154  0.9251  0.2199
 5842SOL    HW222374   5.118   0.545   8.825  0.3996  1.8334 -0.5185
 5843SOL     OW22375   7.287   1.995   3.056  0.3366  0.1455  0.3534
 5843SOL    HW122376   7.279   1.900   3.065 -2.8424  0.1886 -0.7403
 5843SOL    HW222377   7.331   2.008   2.973 -1.3431 -0.4652 -0.6839
 5844SOL     OW22378   6.133   1.131   8.339 -0.0374  0.0814  0.1978
 5844SOL    HW122379   6.215   1.090   8.311  0.7927  1.0442  1.1283
 5844SOL    HW222380   6.149   1.225   8.330 -0.5118  0.3313  1.7782
 5845SOL     OW22381   2.078   1.790   8.039  0.1883  0.6646 -0.1246
 5845SOL    HW122382   1.996   1.801   8.086  0.1391  1.9629 -0.4829
 5845SOL    HW222383   2.055   1.741   7.961 -0.0874  0.2974  0.1821
 5846SOL     OW22384   9.015   8.261   3.500  0.6755 -0.1067  0.2184
 5846SOL    HW122385   9.015   8.350   3.463 -1.0850  0.2979  1.0758
 5846SOL    HW222386   8.961   8.268   3.579  1.2600 -1.7578  0.8032
 5847SOL     OW22387   1.986   7.792   3.293  0.1063  0.3268 -0.1983
 5847SOL    HW122388   2.051   7.732   3.256 -0.5227  0.1793 -1.0882
 5847SOL    HW222389   1.931   7.737   3.348  0.5801  0.4168  0.3901
 5848SOL     OW22390   8.906   8.032   3.654  0.0151 -0.1816  0.6477
 5848SOL    HW122391   8.990   8.076   3.668  0.4594 -0.3012 -1.3176
 5848SOL    HW222392   8.930   7.944   3.624 -0.7534  0.0797 -0.8358
 5849SOL     OW22393   3.394   7.917   8.950  0.1657  0.1748 -0.0540
 5849SOL    HW122394   3.441   7.843   8.990  0.7931  0.9416  0.6488
 5849SOL    HW222395   3.353   7.962   9.024 -0.5299  0.3253 -0.5228
 5850SOL     OW22396   1.848   3.935   2.974  0.3343 -0.2411  0.2269
 5850SOL    HW122397   1.867   3.973   2.888 -2.0254  1.8504  0.5221
 5850SOL    HW222398   1.826   3.844   2.955 -1.1539  0.4188 -1.5810
 5851SOL     OW22399   9.691   2.237   5.120 -0.8377 -0.3014  0.1625
 5851SOL    HW122400   9.684   2.266   5.029  1.3349  0.4119  0.1670
 5851SOL    HW222401   9.667   2.313   5.172  2.8907  1.1318  0.1443
 5852SOL     OW22402   1.471   3.837   5.311  0.0234 -0.0354 -0.1125
 5852SOL    HW122403   1.511   3.755   5.281  0.9824  0.9226 -1.6241
 5852SOL    HW222404   1.379   3.828   5.286  0.3311 -0.2528 -1.2695
 5853SOL     OW22405   2.790   7.439   2.041 -0.1271 -0.3623  0.0972
 5853SOL    HW122406   2.869   7.492   2.052 -0.9871  0.7645  1.1888
 5853SOL    HW222407   2.749   7.473   1.961  0.0276 -0.3211  0.0355
 5854SOL     OW22408   2.565   3.050   5.890  0.1620 -0.1567 -0.3875
 5854SOL    HW122409   2.566   3.109   5.815  0.7859  1.9941  1.1908
 5854SOL    HW222410   2.472   3.040   5.911  0.0727  1.6897  0.2936
 5855SOL     OW22411   4.632   6.944   3.484  0.1249 -0.3603 -0.2434
 5855SOL    HW122412   4.560   6.966   3.543 -0.4564  1.4621 -1.5544
 5855SOL    HW222413   4.693   7.018   3.492  1.3373 -1.3608  0.0361
 5856SOL     OW22414   9.338   0.636   5.491  0.3548  0.1110 -1.2547
 5856SOL    HW122415   9.374   0.722   5.513 -2.0497  0.8563  0.0944
 5856SOL    HW222416   9.300   0.647   5.404 -2.0909  1.2114 -0.1220
 5857SOL     OW22417   1.006   8.604   8.260 -0.0270  0.3753  1.0129
 5857SOL    HW122418   1.043   8.562   8.182 -1.4877 -0.0824  0.5380
 5857SOL    HW222419   1.024   8.697   8.249 -0.0114  0.2827  0.2362
 5858SOL     OW22420   2.648   9.063   9.027  0.0188  0.1590 -0.0294
 5858SOL    HW122421   2.609   9.064   8.940 -0.6412 -1.2237  0.2144
 5858SOL    HW222422   2.742   9.053   9.011 -0.1177 -0.2940 -0.5890
 5859SOL     OW22423   4.231   4.144   4.531  0.3806  0.3311  0.1609
 5859SOL    HW122424   4.166   4.200   4.489  0.2046  1.2935  1.6409
 5859SOL    HW222425   4.263   4.195   4.605  2.3704 -0.3872 -0.1491
 5860SOL     OW22426   5.631   3.143   2.534  0.5312  0.0644  0.4934
 5860SOL    HW122427   5.597   3.171   2.449  2.8033  0.1468 -0.4627
 5860SOL    HW222428   5.624   3.221   2.590 -0.8362  0.0515  0.3674
 5861SOL     OW22429   5.198   7.142   4.552  0.2431 -0.0349 -0.2838
 5861SOL    HW122430   5.153   7.117   4.633  1.3955  0.6395  0.5936
 5861SOL    HW222431   5.288   7.112   4.563  0.8546  1.5701 -0.5573
 5862SOL     OW22432   5.818   4.636   8.814  0.2460  0.2715  1.2023
 5862SOL    HW122433   5.852   4.708   8.761 -0.6493  0.4000  0.7896
 5862SOL    HW222434   5.882   4.565   8.803 -0.9160 -0.4349 -1.7336
 5863SOL     OW22435   2.412   7.858   7.309  0.4465 -0.4898  0.4363
 5863SOL    HW122436   2.423   7.897   7.222  1.4576 -0.8925  0.3674
 5863SOL    HW222437   2.327   7.814   7.305  0.7879 -1.0855 -0.5843
 5864SOL     OW22438   8.740   9.339   1.095 -0.1867 -0.8077  0.0729
 5864SOL    HW122439   8.752   9.433   1.111 -1.9788 -0.6870  0.9982
 5864SOL    HW222440   8.783   9.324   1.011  2.6149  0.2129  1.2154
 5865SOL     OW22441   1.896   8.690   1.873  0.7449  0.0949 -0.0293
 5865SOL    HW122442   1.834   8.698   1.946 -1.4908  0.4435 -1.8673
 5865SOL    HW222443   1.898   8.597   1.854  0.1620  0.1642 -0.4551
 5866SOL     OW22444   6.263   5.012   5.029 -0.0257  0.1046 -0.0598
 5866SOL    HW122445   6.196   5.054   5.083  0.5686 -0.0568  0.8188
 5866SOL    HW222446   6.324   5.083   5.007 -0.9743  0.4651 -1.6808
 5867SOL     OW22447   8.522   9.072   5.935  0.2429 -0.1486 -0.0094
 5867SOL    HW122448   8.539   8.989   5.890 -1.9563 -0.8311  0.3384
 5867SOL    HW222449   8.595   9.080   5.997  0.3304 -1.9948  0.1874
 5868SOL     OW22450   9.542   2.851   7.702  0.6702 -0.3536  0.1452
 5868SOL    HW122451   9.557   2.917   7.770 -1.9801  0.5582 -0.0569
 5868SOL    HW222452   9.553   2.900   7.620 -0.6183 -0.3068 -0.0108
 5869SOL     OW22453   7.344   8.461   2.149  0.4688  0.4324 -0.0869
 5869SOL    HW122454   7.300   8.397   2.092 -0.7237 -0.7481  2.0233
 5869SOL    HW222455   7.433   8.427   2.159  0.7470  0.7430 -1.3139
 5870SOL     OW22456   7.696   8.710   2.677  0.0165 -0.6252 -0.6586
 5870SOL    HW122457   7.690   8.764   2.598 -1.8398 -1.1359 -0.8987
 5870SOL    HW222458   7.620   8.735   2.729  0.7012 -0.9781  0.5559
 5871SOL     OW22459   1.570   1.702   0.250  0.3280 -0.1270 -0.1410
 5871SOL    HW122460   1.540   1.616   0.279  1.0938 -0.5053 -0.4281
 5871SOL    HW222461   1.553   1.760   0.323  1.4582 -0.8885  0.7679
 5872SOL     OW22462   3.340   1.749   4.050  0.4723 -0.1810  0.4153
 5872SOL    HW122463   3.343   1.829   4.103  2.5892 -0.0087  0.1126
 5872SOL    HW222464   3.410   1.695   4.085  1.2459 -0.4937 -1.5250
 5873SOL     OW22465   8.404   0.823   3.535 -0.1358 -0.4562  0.2419
 5873SOL    HW122466   8.478   0.860   3.488  1.2773 -0.9688  1.9476
 5873SOL    HW222467   8.345   0.897   3.550  0.5993  0.2121 -0.1232
 5874SOL     OW22468   2.523   5.503   3.100  0.2468 -0.5279 -0.0203
 5874SOL    HW122469   2.486   5.540   3.180 -2.3327 -1.5912 -0.6284
 5874SOL    HW222470   2.462   5.433   3.075  2.3996 -2.0254 -1.4717
 5875SOL     OW22471   6.789   7.618   6.660 -0.0537 -0.2378  0.4887
 5875SOL    HW122472   6.736   7.646   6.735 -1.7650  2.2194 -1.4771
 5875SOL    HW222473   6.733   7.556   6.614 -0.9921  1.6737 -1.0954
 5876SOL     OW22474   7.627   4.191   0.238 -0.1940 -0.0100  0.3678
 5876SOL    HW122475   7.700   4.251   0.218  1.2519 -1.3106  1.4753
 5876SOL    HW222476   7.572   4.194   0.160  1.0017  1.0901 -0.4877
 5877SOL     OW22477   7.492   8.301   6.946 -0.2803  0.0148  0.3833
 5877SOL    HW122478   7.405   8.339   6.956 -0.0384  1.0752 -1.1721
 5877SOL    HW222479   7.551   8.376   6.941  0.8498 -0.6884  2.0273
 5878SOL     OW22480   5.380   1.651   3.012  0.7171 -0.4385 -0.4493
 5878SOL    HW122481   5.311   1.599   3.054  1.1943 -0.1419  0.7407
 5878SOL    HW222482   5.461   1.618   3.051  1.2971 -1.0059 -2.0739
 5879SOL     OW22483   1.020   2.205   1.878 -0.0881  0.9245 -0.5030
 5879SOL    HW122484   0.994   2.295   1.900 -1.7932  0.3228  0.1237
 5879SOL    HW222485   0.938   2.156   1.878  0.9462 -0.9114  0.4310
 5880SOL     OW22486   1.967   2.469   1.974  0.1985 -0.1589  0.1190
 5880SOL    HW122487   1.885   2.495   1.931 -0.4275 -1.9453  0.1307
 5880SOL    HW222488   2.014   2.419   1.908  1.5481  1.2513 -0.0400
 5881SOL     OW22489   8.012   4.871   4.084  0.4049  0.2487 -0.6749
 5881SOL    HW122490   7.969   4.787   4.065 -0.2263  0.4917 -0.3495
 5881SOL    HW222491   8.089   4.871   4.027  1.1426 -1.1277  0.2656
 5882SOL     OW22492   9.686   1.792   1.352  0.5960 -0.2022 -0.2895
 5882SOL    HW122493   9.633   1.790   1.432  0.8602 -1.1654 -0.1263
 5882SOL    HW222494   9.651   1.720   1.299  0.5670  0.2957 -0.9465
 5883SOL     OW22495   7.937   9.174   2.330 -0.3443 -0.3419  0.3561
 5883SOL    HW122496   7.949   9.242   2.396  1.0643 -1.0058  0.8359
 5883SOL    HW222497   7.968   9.213   2.249  0.4046 -0.3695  0.6194
 5884SOL     OW22498   9.331   7.137   2.198  0.1913 -0.3420 -0.5971
 5884SOL    HW122499   9.303   7.149   2.288  0.8605  0.3102 -0.4713
 5884SOL    HW222500   9.256   7.164   2.145  0.5718  1.4919 -0.2679
 5885SOL     OW22501   6.311   9.663   2.737  0.4026 -0.2832 -0.2466
 5885SOL    HW122502   6.255   9.711   2.798 -0.7070  0.3382 -1.6979
 5885SOL    HW222503   6.373   9.728   2.705  0.9694 -0.6049  0.1647
 5886SOL     OW22504   7.696   4.157   8.124 -0.0387 -0.2898  0.5262
 5886SOL    HW122505   7.663   4.073   8.155  0.2943 -0.4280  0.5068
 5886SOL    HW222506   7.719   4.142   8.032  2.1659 -0.8185  1.1002
 5887SOL     OW22507   8.082   5.910   7.421 -0.2310  0.4854  0.7565
 5887SOL    HW122508   8.086   5.890   7.515 -0.1399 -0.8226  0.4936
 5887SOL    HW222509   8.112   6.001   7.415  1.8026 -0.0502  1.7992
 5888SOL     OW22510   6.171   4.034   8.105  0.4117 -0.1607 -0.2516
 5888SOL    HW122511   6.192   3.950   8.065 -0.5493 -1.1896  1.2882
 5888SOL    HW222512   6.211   4.029   8.192  2.3968  1.9774 -0.9267
 5889SOL     OW22513   3.319   8.890   2.278 -0.7184 -0.4688 -0.0987
 5889SOL    HW122514   3.236   8.844   2.290 -0.0950 -2.1239 -1.6625
 5889SOL    HW222515   3.381   8.821   2.252  0.5864  1.0561 -1.2295
 5890SOL     OW22516   3.409   4.474   1.264 -0.1822  0.0624 -0.1806
 5890SOL    HW122517   3.343   4.510   1.205 -2.6037 -1.9462  1.0939
 5890SOL    HW222518   3.369   4.479   1.351  1.4566 -1.0363  0.7002
 5891SOL     OW22519   4.356   0.352   1.483 -0.1449 -0.8632  0.2996
 5891SOL    HW122520   4.407   0.311   1.414  1.8736 -0.1485  1.2793
 5891SOL    HW222521   4.370   0.296   1.560 -0.1374 -0.2068  0.7893
 5892SOL     OW22522   7.534   8.999   4.336 -0.5010 -0.0904  0.2267
 5892SOL    HW122523   7.626   8.977   4.350  0.6125  1.3441 -3.6489
 5892SOL    HW222524   7.494   8.917   4.307  0.1939 -0.1511 -0.5754
 5893SOL     OW22525   5.881   6.775   9.227 -0.2965 -0.4050  0.1078
 5893SOL    HW122526   5.856   6.796   9.317  0.2359  0.5692  0.0418
 5893SOL    HW222527   5.925   6.854   9.195  1.7119 -1.5848 -0.1893
 5894SOL     OW22528   0.557   5.379   7.648 -0.5963  0.1648 -0.1356
 5894SOL    HW122529   0.586   5.471   7.649 -0.4737  0.1490 -1.1937
 5894SOL    HW222530   0.469   5.382   7.684 -0.7541  0.7643 -0.5505
 5895SOL     OW22531   6.486   7.212   1.027  0.5928  0.0776  0.5243
 5895SOL    HW122532   6.427   7.162   1.083  0.3871 -1.7455 -1.1799
 5895SOL    HW222533   6.470   7.177   0.939  0.1820  3.4411 -0.8825
 5896SOL     OW22534   3.276   9.665   4.838 -0.3191  0.1533  0.3134
 5896SOL    HW122535   3.253   9.614   4.760 -0.9155 -1.3159  1.4006
 5896SOL    HW222536   3.356   9.623   4.871  0.2154  1.0832  0.2164
 5897SOL     OW22537   6.126   3.972   6.717 -0.3143  0.5183 -0.2383
 5897SOL    HW122538   6.072   4.018   6.781 -0.9240 -1.3173  0.6435
 5897SOL    HW222539   6.183   4.040   6.680  0.4127  1.5890  2.5891
 5898SOL     OW22540   6.283   1.383   7.907  1.0011 -0.8566  0.1873
 5898SOL    HW122541   6.228   1.320   7.860 -1.7530  1.4748  0.0092
 5898SOL    HW222542   6.329   1.431   7.839  0.2569 -0.2787  0.0785
 5899SOL     OW22543   1.664   9.436   2.449 -0.0145  0.2100  0.2401
 5899SOL    HW122544   1.759   9.440   2.465  0.0829  2.5206 -0.4819
 5899SOL    HW222545   1.656   9.383   2.370  0.9334  1.5792 -0.8521
 5900SOL     OW22546   6.273   6.742   5.571 -0.2827  0.6633 -0.1974
 5900SOL    HW122547   6.248   6.657   5.607  0.1760  0.7713  0.4007
 5900SOL    HW222548   6.204   6.764   5.508  0.0604 -0.5569 -1.0184
 5901SOL     OW22549   0.806   3.695   3.950 -0.3947  0.4408 -0.3802
 5901SOL    HW122550   0.858   3.746   3.888 -0.6142 -0.1512 -1.0538
 5901SOL    HW222551   0.871   3.660   4.011  0.0230 -0.3649 -1.2645
 5902SOL     OW22552   2.210   0.969   5.088 -0.2709  0.0206  0.3917
 5902SOL    HW122553   2.164   1.008   5.162 -0.1290  2.9094 -0.8866
 5902SOL    HW222554   2.284   0.923   5.127 -0.2882  1.3136  2.0900
 5903SOL     OW22555   1.873   6.370   6.857  0.4190  0.1039 -0.1218
 5903SOL    HW122556   1.892   6.437   6.923  0.2636 -0.3207  0.3611
 5903SOL    HW222557   1.923   6.397   6.780  0.6700  0.5588  0.1956
 5904SOL     OW22558   3.293   8.250   1.342 -0.0447  0.0010 -0.2077
 5904SOL    HW122559   3.291   8.221   1.250 -0.0573 -0.1872 -0.1483
 5904SOL    HW222560   3.291   8.169   1.393 -0.4224  0.1180 -0.0327
 5905SOL     OW22561   8.302   9.369   3.494 -0.2464 -0.6901 -0.0752
 5905SOL    HW122562   8.290   9.391   3.587 -1.9118 -0.8229 -0.2395
 5905SOL    HW222563   8.352   9.288   3.495  2.3942  0.8061  0.6145
 5906SOL     OW22564   3.352   1.681   1.505 -0.0489 -0.2558 -0.6374
 5906SOL    HW122565   3.366   1.586   1.503 -1.0858 -0.4328 -2.7675
 5906SOL    HW222566   3.257   1.690   1.505  0.0304  0.7562 -1.4733
 5907SOL     OW22567   1.605   4.592   7.241 -0.0559 -0.6302  0.5365
 5907SOL    HW122568   1.526   4.642   7.220  2.9914  4.7405  0.1321
 5907SOL    HW222569   1.630   4.551   7.158 -2.6854 -3.2179  0.8794
 5908SOL     OW22570   1.074   4.553   1.947  0.2577  0.1744  0.3945
 5908SOL    HW122571   1.132   4.620   1.910  0.8367  0.0983  1.1402
 5908SOL    HW222572   1.058   4.582   2.037  1.8394 -1.5030  1.2787
 5909SOL     OW22573   7.571   2.737   0.807  0.1262 -0.5455 -0.2578
 5909SOL    HW122574   7.582   2.833   0.810  0.7871 -0.6087 -0.4887
 5909SOL    HW222575   7.644   2.704   0.860  0.8545 -0.9732 -1.4785
 5910SOL     OW22576   1.433   1.422   6.995 -0.3013  0.4500  0.2345
 5910SOL    HW122577   1.415   1.363   7.068  0.4434 -2.4945 -1.7781
 5910SOL    HW222578   1.362   1.486   6.998 -1.6120 -0.9790  2.1551
 5911SOL     OW22579   3.139   0.334   6.149  0.2291 -0.3022  0.2164
 5911SOL    HW122580   3.056   0.379   6.165  0.0047 -1.5815  3.3759
 5911SOL    HW222581   3.142   0.264   6.214  3.6844 -0.4391  0.1335
 5912SOL     OW22582   6.131   0.113   2.346 -0.0300  0.0961  0.3905
 5912SOL    HW122583   6.189   0.049   2.303 -1.0430  0.0554 -0.9664
 5912SOL    HW222584   6.191   0.181   2.378  0.8755 -0.4688 -0.0362
 5913SOL     OW22585   7.944   8.829   8.044  0.0627 -0.8824 -0.2057
 5913SOL    HW122586   7.851   8.831   8.021 -0.2807 -0.7453  1.1372
 5913SOL    HW222587   7.968   8.921   8.054 -0.0484 -0.9576  0.8911
 5914SOL     OW22588   7.864   2.161   8.654  0.0962 -0.2501 -0.1218
 5914SOL    HW122589   7.891   2.160   8.746  1.0700 -0.5816 -0.4009
 5914SOL    HW222590   7.895   2.078   8.618 -0.0404 -0.0094 -0.8203
 5915SOL     OW22591   2.815   6.852   2.442 -0.1008  0.2693 -0.0168
 5915SOL    HW122592   2.729   6.882   2.415 -0.5628  1.6647  2.6493
 5915SOL    HW222593   2.802   6.813   2.528  1.8524  0.1331  0.2815
 5916SOL     OW22594   5.273   9.253   8.917 -0.4371 -0.6292 -0.2926
 5916SOL    HW122595   5.367   9.241   8.909 -0.2045 -0.5817  1.8585
 5916SOL    HW222596   5.237   9.220   8.834  1.3355 -2.0639 -0.5313
 5917SOL     OW22597   2.996   0.158   6.898 -0.4863 -0.2387 -0.2567
 5917SOL    HW122598   3.004   0.079   6.844 -0.0827  1.0838 -2.2428
 5917SOL    HW222599   3.086   0.185   6.915 -0.5883  0.8241 -1.2498
 5918SOL     OW22600   7.487   2.842   5.343 -0.0552 -0.3681 -0.0960
 5918SOL    HW122601   7.482   2.748   5.332  0.4581 -0.2440 -1.6756
 5918SOL    HW222602   7.554   2.870   5.280  1.0001  0.8672  1.5154
 5919SOL     OW22603   3.883   4.572   5.106  0.9834  0.4864  0.3847
 5919SOL    HW122604   3.822   4.525   5.049 -0.6709  2.6103  0.2693
 5919SOL    HW222605   3.907   4.508   5.173 -1.8415 -0.3507  0.7492
 5920SOL     OW22606   0.433   1.715   3.582  0.2173 -0.4056 -0.0442
 5920SOL    HW122607   0.358   1.704   3.524  0.4096  1.0480 -0.6176
 5920SOL    HW222608   0.475   1.795   3.551  0.7412  0.0165  1.6548
 5921SOL     OW22609   0.974   7.610   8.630  1.0300 -0.4727 -0.1547
 5921SOL    HW122610   0.895   7.624   8.578  1.8403  3.3038 -0.6207
 5921SOL    HW222611   0.942   7.611   8.721  0.2523 -2.1665 -0.3548
 5922SOL     OW22612   4.309   8.853   1.612  0.5491 -0.3114  0.3060
 5922SOL    HW122613   4.309   8.847   1.516 -2.8578  1.0928  0.0511
 5922SOL    HW222614   4.369   8.924   1.632  1.9129 -1.1351 -0.6851
 5923SOL     OW22615   1.086   7.054   9.080  0.0830 -0.2254  0.0179
 5923SOL    HW122616   1.056   7.083   9.166  1.5145 -0.0595  0.4887
 5923SOL    HW222617   1.011   7.067   9.022 -0.1033  2.1680  0.7046
 5924SOL     OW22618   4.130   9.399   7.504 -0.1749 -0.1660 -0.2301
 5924SOL    HW122619   4.133   9.356   7.419  0.9343  1.8406 -1.2593
 5924SOL    HW222620   4.222   9.412   7.528 -0.4729  1.1571  0.2804
 5925SOL     OW22621   0.453   2.481   9.109 -0.2743 -0.1474 -0.6080
 5925SOL    HW122622   0.488   2.529   9.034 -0.0675  0.8493  0.1083
 5925SOL    HW222623   0.519   2.415   9.129  0.4815  0.7283 -0.2132
 5926SOL     OW22624   5.582   6.995   1.934  0.6999 -0.2695 -0.1229
 5926SOL    HW122625   5.560   6.907   1.905 -1.6321 -0.0255  0.6827
 5926SOL    HW222626   5.551   6.999   2.025 -0.2955  1.7006 -0.4845
 5927SOL     OW22627   8.221   7.210   6.679  0.6579 -0.0396 -0.1170
 5927SOL    HW122628   8.233   7.236   6.771  1.6313 -1.7795  0.2860
 5927SOL    HW222629   8.191   7.290   6.636  0.2591  0.8451  1.6902
 5928SOL     OW22630   3.100   9.141   1.063  0.3711 -0.3488  0.6180
 5928SOL    HW122631   3.089   9.160   1.156 -0.1728 -1.1705  0.7350
 5928SOL    HW222632   3.140   9.054   1.062  1.3087  0.0752  0.0902
 5929SOL     OW22633   5.369   0.050   1.260 -0.1860 -0.3555  0.4337
 5929SOL    HW122634   5.450   0.072   1.307 -0.3271 -1.0078  0.9976
 5929SOL    HW222635   5.305   0.034   1.329 -0.6328 -0.4525 -0.0015
 5930SOL     OW22636   9.083   1.314   6.816  0.1371  0.0023 -0.0134
 5930SOL    HW122637   9.076   1.293   6.723  0.0199  1.4282 -0.3360
 5930SOL    HW222638   8.993   1.330   6.844 -0.0271 -1.9132  0.7430
 5931SOL     OW22639   8.809   5.161   3.142  0.2977 -0.0915 -0.3992
 5931SOL    HW122640   8.753   5.126   3.073 -1.8935  1.4844  0.4345
 5931SOL    HW222641   8.844   5.242   3.106 -0.9769  0.8171  0.3034
 5932SOL     OW22642   7.161   3.920   8.263 -0.0974  0.7256  0.4394
 5932SOL    HW122643   7.176   3.980   8.190  3.0380  0.5584  0.8036
 5932SOL    HW222644   7.082   3.873   8.239  0.7990  0.6628 -2.9169
 5933SOL     OW22645   9.124   6.131   8.309  0.0119 -0.5211 -0.1554
 5933SOL    HW122646   9.124   6.148   8.403  0.6834  0.0562 -0.2534
 5933SOL    HW222647   9.063   6.195   8.273  0.5780 -0.0172 -0.2307
 5934SOL     OW22648   5.706   4.590   0.108  0.1206  0.0288 -0.1779
 5934SOL    HW122649   5.774   4.581   0.042 -0.5179  0.8550 -0.9659
 5934SOL    HW222650   5.635   4.533   0.079 -0.0748  0.2238 -0.0923
 5935SOL     OW22651   0.472   7.901   7.002  0.7597  0.0096  0.2129
 5935SOL    HW122652   0.458   7.991   6.972 -1.3132 -0.0909  0.7533
 5935SOL    HW222653   0.496   7.853   6.923  1.4654  0.9281 -0.1559
 5936SOL     OW22654   0.965   7.221   3.674 -0.2530  0.2253  0.1727
 5936SOL    HW122655   1.029   7.238   3.605  1.6454 -1.4031  1.4430
 5936SOL    HW222656   1.015   7.183   3.745 -2.5288 -0.3738  1.5668
 5937SOL     OW22657   2.585   9.292   5.046 -0.3244  0.4181 -0.3470
 5937SOL    HW122658   2.675   9.260   5.035  0.0743  1.1062  0.6819
 5937SOL    HW222659   2.583   9.326   5.136 -1.7100  0.1347 -0.2465
 5938SOL     OW22660   8.385   1.612   3.797 -0.4610  0.4568 -0.0170
 5938SOL    HW122661   8.362   1.520   3.790  1.1089 -0.0695  1.2014
 5938SOL    HW222662   8.306   1.655   3.830 -1.2312 -0.4227 -0.7015
 5939SOL     OW22663   2.984   5.650   2.402  0.1712 -0.5940  0.5759
 5939SOL    HW122664   2.966   5.724   2.345  0.9093 -0.4096  0.5818
 5939SOL    HW222665   2.899   5.606   2.411 -0.3487  0.4336  0.8431
 5940SOL     OW22666   6.314   6.487   9.011 -0.4706 -0.0021 -0.4717
 5940SOL    HW122667   6.248   6.535   9.061 -1.0461  0.0684 -1.2960
 5940SOL    HW222668   6.305   6.396   9.039  0.8203  0.3727  1.3211
 5941SOL     OW22669   6.397   1.586   3.110 -0.3256  0.2644  0.0788
 5941SOL    HW122670   6.358   1.525   3.173 -0.0763  0.6037  0.5640
 5941SOL    HW222671   6.412   1.666   3.160 -0.3701  0.6278 -0.4807
 5942SOL     OW22672   8.260   9.382   2.944 -0.2380 -0.4608  0.8913
 5942SOL    HW122673   8.228   9.463   2.905  3.1250  0.8115  0.4644
 5942SOL    HW222674   8.265   9.401   3.038  2.2277  0.6198  0.6274
 5943SOL     OW22675   7.913   0.208   5.499  0.2349  0.3375  0.0951
 5943SOL    HW122676   7.947   0.241   5.416 -0.8357  3.2116  0.7000
 5943SOL    HW222677   7.935   0.275   5.563 -1.3076 -0.5213  1.6261
 5944SOL     OW22678   2.137   4.362   7.812  0.5429 -0.0922 -0.0748
 5944SOL    HW122679   2.080   4.303   7.764  1.5752  0.9811 -2.8406
 5944SOL    HW222680   2.080   4.403   7.877 -1.4199 -0.3328 -1.5474
 5945SOL     OW22681   3.429   2.963   0.490  0.2557  0.2230 -0.3320
 5945SOL    HW122682   3.461   3.053   0.496  0.2709  0.1237  1.6280
 5945SOL    HW222683   3.336   2.973   0.467  0.4422  0.6856 -0.9339
 5946SOL     OW22684   1.381   7.008   7.200  0.0971  0.0414 -0.3979
 5946SOL    HW122685   1.425   7.035   7.280 -3.7076  0.0686  1.9393
 5946SOL    HW222686   1.378   6.912   7.205  1.7278 -0.1353 -1.7410
 5947SOL     OW22687   7.094   1.190   2.468 -0.1037  0.1885 -0.7875
 5947SOL    HW122688   7.155   1.120   2.446 -0.3570  0.0751 -1.1333
 5947SOL    HW222689   7.021   1.146   2.511 -1.3724 -0.1119 -3.0510
 5948SOL     OW22690   0.495   5.667   7.215 -0.1265 -0.0962 -0.3635
 5948SOL    HW122691   0.442   5.667   7.136  0.0688 -1.4658 -0.5328
 5948SOL    HW222692   0.526   5.577   7.222 -1.2154 -0.3686  1.9891
 5949SOL     OW22693   6.331   4.229   1.564  0.5313 -0.4474 -0.2324
 5949SOL    HW122694   6.344   4.223   1.469  0.6655 -1.1399 -0.1740
 5949SOL    HW222695   6.254   4.174   1.581  1.6471 -1.9000  0.2986
 5950SOL     OW22696   5.666   0.135   4.057 -0.3453 -0.5097  0.5040
 5950SOL    HW122697   5.732   0.146   4.125 -0.5336 -2.3245  1.0219
 5950SOL    HW222698   5.613   0.215   4.061 -1.4430 -1.2678  3.7312
 5951SOL     OW22699   1.614   8.019   7.680 -0.0765  0.2504 -0.4340
 5951SOL    HW122700   1.568   7.936   7.695 -1.5976  0.7628 -1.9639
 5951SOL    HW222701   1.707   7.994   7.674 -0.5275 -1.4216 -1.2435
 5952SOL     OW22702   5.586   1.653   4.373  0.0148 -0.4564 -0.4594
 5952SOL    HW122703   5.612   1.745   4.379  1.1799 -0.7364 -1.0972
 5952SOL    HW222704   5.561   1.640   4.282 -2.6390 -0.1701  0.1178
 5953SOL     OW22705   0.333   5.164   8.612 -0.9022  0.5241 -0.0936
 5953SOL    HW122706   0.296   5.108   8.544 -0.7634 -0.0069  0.2614
 5953SOL    HW222707   0.261   5.223   8.637 -1.2011  0.1696 -0.1196
 5954SOL     OW22708   7.280   8.312   8.257  0.1804  0.1825 -0.0591
 5954SOL    HW122709   7.209   8.248   8.251  0.2429  0.2385 -2.7588
 5954SOL    HW222710   7.291   8.328   8.351 -3.1465 -0.0902  0.4930
 5955SOL     OW22711   0.132   8.274   3.872 -0.2174 -0.0733  0.3632
 5955SOL    HW122712   0.100   8.186   3.852 -0.4351 -0.1998  1.2079
 5955SOL    HW222713   0.183   8.299   3.795 -0.3616 -0.8371  0.0061
 5956SOL     OW22714   4.819   6.804   5.721  0.2744 -0.1580 -0.4076
 5956SOL    HW122715   4.906   6.844   5.730  0.0220  0.2012  0.5510
 5956SOL    HW222716   4.837   6.710   5.720  0.6943 -0.0836 -0.3726
 5957SOL     OW22717   6.623   9.111   8.456 -0.6440  0.7156 -0.1784
 5957SOL    HW122718   6.540   9.064   8.462  0.2714 -1.0827 -0.7673
 5957SOL    HW222719   6.619   9.176   8.527 -2.1387  0.0422  0.4048
 5958SOL     OW22720   2.307   5.460   1.189  0.2258 -0.1075  0.0813
 5958SOL    HW122721   2.370   5.418   1.130  0.5820 -0.6617  0.8307
 5958SOL    HW222722   2.362   5.505   1.254 -0.0963 -1.7473  1.5634
 5959SOL     OW22723   1.544   8.883   2.365  0.0853  0.1796  0.0858
 5959SOL    HW122724   1.478   8.928   2.312 -1.8694 -0.5411  1.7902
 5959SOL    HW222725   1.601   8.953   2.397 -1.2434  1.1364  0.4487
 5960SOL     OW22726   8.475   7.235   2.725 -0.5060  0.1218  0.0284
 5960SOL    HW122727   8.384   7.253   2.751 -0.3666  0.6389  0.1776
 5960SOL    HW222728   8.515   7.197   2.804 -1.2950 -2.7710 -0.8271
 5961SOL     OW22729   6.665   1.559   6.736  0.6787 -0.2010 -0.4011
 5961SOL    HW122730   6.594   1.590   6.680 -1.4310 -0.0820  2.1158
 5961SOL    HW222731   6.743   1.605   6.706 -0.8987  1.9046 -1.4682
 5962SOL     OW22732   0.646   4.287   6.680 -0.4944  0.0976 -0.0197
 5962SOL    HW122733   0.678   4.253   6.597 -0.1744  1.4358 -0.4668
 5962SOL    HW222734   0.599   4.213   6.720  0.8433 -1.0836 -0.5679
 5963SOL     OW22735   0.975   3.385   8.452 -0.0585  0.2753  0.1334
 5963SOL    HW122736   1.057   3.382   8.403 -0.3692  0.9995 -0.4552
 5963SOL    HW222737   0.913   3.428   8.393 -0.7504  0.1220  0.7290
 5964SOL     OW22738   3.515   8.735   9.546 -0.1092 -0.3934  0.2924
 5964SOL    HW122739   3.476   8.732   9.633  2.1369 -2.0744  1.3326
 5964SOL    HW222740   3.607   8.715   9.560  0.2902 -0.9868 -2.5152
 5965SOL     OW22741   8.283   1.038   6.740 -0.8263  0.0689 -0.2345
 5965SOL    HW122742   8.303   1.131   6.741  1.7910 -0.3754  2.3954
 5965SOL    HW222743   8.336   1.002   6.669 -0.3469  0.3350 -0.0123
 5966SOL     OW22744   7.396   1.824   7.048 -0.5882 -0.5792 -0.3932
 5966SOL    HW122745   7.326   1.843   7.110 -2.1966  2.1044 -2.7492
 5966SOL    HW222746   7.351   1.820   6.963  1.9783  0.3447 -1.8940
 5967SOL     OW22747   6.420   7.555   9.313 -0.0865  0.0562  0.0810
 5967SOL    HW122748   6.416   7.651   9.315 -0.7496  0.0415 -0.4290
 5967SOL    HW222749   6.449   7.534   9.225 -1.1473 -0.2453 -0.2102
 5968SOL     OW22750   6.210   1.343   4.006  0.3924 -0.2883 -0.1953
 5968SOL    HW122751   6.149   1.304   3.944 -0.8829 -0.0946  0.8915
 5968SOL    HW222752   6.220   1.277   4.075 -0.8031  0.7423  1.0250
 5969SOL     OW22753   7.263   6.096   0.754  0.1654  0.5805 -0.3640
 5969SOL    HW122754   7.222   6.021   0.712  0.9699  0.6349 -1.2765
 5969SOL    HW222755   7.287   6.065   0.841 -0.9177  0.2590 -0.1701
 5970SOL     OW22756   5.014   8.505   1.331  0.2212 -0.2673 -0.7203
 5970SOL    HW122757   5.100   8.463   1.330  1.0272  1.3213 -1.5784
 5970SOL    HW222758   5.020   8.571   1.400 -0.0032  0.4281 -1.3528
 5971SOL     OW22759   7.860   4.315   8.732 -0.1997 -0.1142 -0.3086
 5971SOL    HW122760   7.924   4.367   8.781  1.1529 -1.4497 -0.5541
 5971SOL    HW222761   7.876   4.225   8.760 -3.2560 -0.3629  0.9709
 5972SOL     OW22762   0.155   8.939   6.146  0.5092 -0.3047  0.4545
 5972SOL    HW122763   0.065   8.953   6.176 -0.0127  2.3970 -1.8560
 5972SOL    HW222764   0.204   9.013   6.181  1.1469 -0.2378 -0.5229
 5973SOL     OW22765   1.897   4.413   7.254 -1.1985  0.2651 -0.9221
 5973SOL    HW122766   1.880   4.473   7.327 -2.6050  1.2420 -2.0053
 5973SOL    HW222767   1.862   4.458   7.177 -3.0672 -2.2918 -1.6957
 5974SOL     OW22768   7.547   7.009   4.431  0.8590  0.5680 -0.3164
 5974SOL    HW122769   7.560   7.098   4.465 -0.1821  0.2534  0.9723
 5974SOL    HW222770   7.623   6.961   4.464  1.3876  0.9532 -0.9545
 5975SOL     OW22771   6.067   3.274   0.466 -0.3104 -0.0442  0.0335
 5975SOL    HW122772   6.077   3.181   0.485 -2.5104 -0.2579  0.4715
 5975SOL    HW222773   6.125   3.318   0.528 -0.7895 -1.0710  1.2664
 5976SOL     OW22774   3.318   9.387   0.361  0.0019  0.3212 -0.1011
 5976SOL    HW122775   3.312   9.292   0.372  1.2806  0.3559  1.1417
 5976SOL    HW222776   3.282   9.403   0.273  0.5038 -1.3970 -0.6583
 5977SOL     OW22777   3.835   7.205   1.350  0.3313 -0.1143 -0.0189
 5977SOL    HW122778   3.840   7.164   1.264  0.1509  1.0441 -0.5959
 5977SOL    HW222779   3.748   7.247   1.351  0.4280  0.0761  0.6318
 5978SOL     OW22780   7.544   1.507   8.407 -0.4524  0.4521  0.8343
 5978SOL    HW122781   7.518   1.433   8.463 -0.1706 -0.5007 -0.2461
 5978SOL    HW222782   7.532   1.584   8.462  0.7502 -0.5075  2.5623
 5979SOL     OW22783   0.373   9.533   8.773 -0.7279  0.2203 -0.5662
 5979SOL    HW122784   0.420   9.614   8.753 -0.6229  0.2107 -0.3657
 5979SOL    HW222785   0.441   9.467   8.782 -0.8403  0.0219 -1.1268
 5980SOL     OW22786   8.389   3.027   8.458 -0.3557  0.0584  0.4320
 5980SOL    HW122787   8.400   3.043   8.364  0.4021 -0.7942  0.3655
 5980SOL    HW222788   8.446   2.953   8.477 -0.9502 -0.1636  1.4550
 5981SOL     OW22789   4.731   9.634   0.190 -1.0895 -0.2678  0.4066
 5981SOL    HW122790   4.759   9.543   0.184  0.6527  0.2755 -0.1414
 5981SOL    HW222791   4.721   9.650   0.284 -1.3859 -1.0123  0.5052
 5982SOL     OW22792   0.632   0.563   3.773  0.2661  0.1340 -0.1169
 5982SOL    HW122793   0.635   0.532   3.682 -0.0319 -0.4360  0.0610
 5982SOL    HW222794   0.705   0.624   3.780  2.6109 -2.5014  0.2162
 5983SOL     OW22795   1.243   4.009   2.207  0.0510 -0.1798 -0.3019
 5983SOL    HW122796   1.278   3.933   2.254 -0.8010 -0.6545 -0.4083
 5983SOL    HW222797   1.154   4.019   2.241 -0.3448 -0.1140 -1.3238
 5984SOL     OW22798   6.150   0.981   0.949 -0.0489  0.9085 -0.4044
 5984SOL    HW122799   6.086   1.025   0.895 -0.2197  0.5970 -0.4594
 5984SOL    HW222800   6.101   0.949   1.025 -0.3733 -1.0054 -1.3526
 5985SOL     OW22801   8.309   9.648   6.693  0.1402  0.2100  0.0206
 5985SOL    HW122802   8.279   9.613   6.777  2.7113  0.5235  1.1592
 5985SOL    HW222803   8.341   9.736   6.713  1.8292 -0.1166 -1.0244
 5986SOL     OW22804   1.380   8.420   3.633  0.5794  0.2460  0.6681
 5986SOL    HW122805   1.323   8.349   3.602  1.1151  0.7020 -1.5350
 5986SOL    HW222806   1.389   8.404   3.727 -1.2856 -1.1709  0.6661
 5987SOL     OW22807   7.953   4.343   3.906 -0.2590 -0.5052 -0.0033
 5987SOL    HW122808   8.013   4.408   3.871  1.9978 -1.6178  1.5579
 5987SOL    HW222809   7.906   4.309   3.830  1.4206  0.1144 -1.3602
 5988SOL     OW22810   7.558   4.997   0.482  0.2446 -0.4647 -0.3344
 5988SOL    HW122811   7.537   4.912   0.443  1.2539 -0.4231 -1.0059
 5988SOL    HW222812   7.649   5.013   0.458  0.5188  0.1510  1.0014
 5989SOL     OW22813   7.348   5.970   8.527  0.1066 -0.0049  0.4131
 5989SOL    HW122814   7.316   5.881   8.540 -2.0769 -0.0449 -3.4511
 5989SOL    HW222815   7.440   5.960   8.506  0.0647 -1.2817  0.7731
 5990SOL     OW22816   3.104   3.500   3.088  0.1873  0.3627  0.3481
 5990SOL    HW122817   3.013   3.525   3.108 -0.0396 -0.9877  1.0929
 5990SOL    HW222818   3.114   3.412   3.125  2.2068  0.9939  1.4570
 5991SOL     OW22819   9.306   2.527   5.101 -0.3340 -0.7057 -0.9835
 5991SOL    HW122820   9.345   2.604   5.142 -0.1887 -2.0500  1.6383
 5991SOL    HW222821   9.292   2.553   5.010  0.4058  2.1231 -0.4033
 5992SOL     OW22822   8.236   0.388   8.301 -0.5997 -0.0969 -0.2162
 5992SOL    HW122823   8.190   0.364   8.381  0.8304 -2.0340  0.1121
 5992SOL    HW222824   8.259   0.480   8.313 -0.1634 -0.4153  1.7576
 5993SOL     OW22825   4.142   1.189   6.935 -0.1487 -0.2480  0.2569
 5993SOL    HW122826   4.197   1.266   6.951  0.8255 -0.5235 -1.4716
 5993SOL    HW222827   4.202   1.114   6.945 -0.6769 -0.6748  0.2716
 5994SOL     OW22828   6.555   4.534   0.807 -0.0088 -0.3029  0.1305
 5994SOL    HW122829   6.606   4.507   0.883  0.9886  3.0195  0.8139
 5994SOL    HW222830   6.473   4.567   0.844 -0.6568 -1.1104 -0.5355
 5995SOL     OW22831   3.691   3.041   1.314  0.6682 -0.1720 -0.0374
 5995SOL    HW122832   3.680   3.130   1.281  0.8219 -0.2742 -0.3806
 5995SOL    HW222833   3.768   3.045   1.370 -0.9354  0.5051  2.2347
 5996SOL     OW22834   3.269   9.593   1.558 -0.2962  0.1286  0.6614
 5996SOL    HW122835   3.260   9.681   1.595 -0.0995  1.1252 -1.5433
 5996SOL    HW222836   3.193   9.583   1.501 -0.2172 -1.0810  0.7499
 5997SOL     OW22837   0.926   8.555   3.071  0.1086 -0.1394 -0.4072
 5997SOL    HW122838   1.014   8.580   3.046 -0.1189 -0.7968 -1.9653
 5997SOL    HW222839   0.878   8.638   3.079  0.3181  0.1302 -1.7543
 5998SOL     OW22840   9.750   7.016   1.511  0.4062  0.0600  0.4277
 5998SOL    HW122841   9.678   6.984   1.456  0.4098  0.0534  0.4271
 5998SOL    HW222842   9.825   7.020   1.452 -0.0104  1.8053 -0.0710
 5999SOL     OW22843   9.328   2.262   5.120 -0.3795 -0.4274 -0.0771
 5999SOL    HW122844   9.318   2.357   5.127 -1.2177 -0.5443  0.4901
 5999SOL    HW222845   9.353   2.247   5.029  0.5150  0.3863  0.0123
 6000SOL     OW22846   3.019   3.895   5.264  0.0944  0.1589  0.0424
 6000SOL    HW122847   2.985   3.974   5.223 -0.9880 -0.0942  0.4186
 6000SOL    HW222848   3.077   3.857   5.198 -0.3262  0.6227 -0.6043
 6001SOL     OW22849   0.106   5.661   2.628 -0.1308  0.2478  0.3773
 6001SOL    HW122850   0.157   5.604   2.685  0.1560 -0.0040 -0.1205
 6001SOL    HW222851   0.167   5.688   2.559 -0.8900 -0.7999 -0.7439
 6002SOL     OW22852   5.438   2.745   0.109 -0.0512 -0.1447  0.1872
 6002SOL    HW122853   5.374   2.734   0.180 -0.2169  2.0049  0.4265
 6002SOL    HW222854   5.514   2.694   0.137 -0.3576  0.1407  1.5974
 6003SOL     OW22855   1.879   7.103   8.350 -0.5879  0.0793 -0.2704
 6003SOL    HW122856   1.867   7.116   8.256  0.8160  0.4587 -0.4284
 6003SOL    HW222857   1.862   7.189   8.389  0.7976  0.4576 -0.4280
 6004SOL     OW22858   6.367   3.043   1.922 -0.1711 -0.3384  0.0954
 6004SOL    HW122859   6.442   3.101   1.931  1.3242 -1.3860 -3.6803
 6004SOL    HW222860   6.301   3.096   1.878 -0.2966 -0.4179  0.1870
 6005SOL     OW22861   1.431   2.886   5.508  0.5812 -0.5923 -0.1218
 6005SOL    HW122862   1.482   2.831   5.567  0.6602  0.0134  0.3873
 6005SOL    HW222863   1.496   2.929   5.452  0.6597  0.3090  0.6386
 6006SOL     OW22864   4.599   5.458   0.989  0.0466  0.4257 -0.2744
 6006SOL    HW122865   4.652   5.398   1.042  0.8144 -0.3838 -1.9008
 6006SOL    HW222866   4.546   5.401   0.934 -0.1422  1.2356 -0.9571
 6007SOL     OW22867   8.322   9.565   0.404  0.1329  0.3796 -0.6040
 6007SOL    HW122868   8.350   9.656   0.391  0.2482  0.1694 -1.9124
 6007SOL    HW222869   8.350   9.519   0.325  3.0086 -1.5469  1.3312
 6008SOL     OW22870   7.965   5.035   3.451  0.2100 -0.4784 -0.3867
 6008SOL    HW122871   7.946   4.976   3.524 -0.0036  0.3113  0.1973
 6008SOL    HW222872   7.919   5.116   3.472 -2.7601 -1.2802 -3.0220
 6009SOL     OW22873   8.698   5.654   4.198  0.6786  0.5596 -0.6072
 6009SOL    HW122874   8.757   5.642   4.272  0.1858 -0.3853 -0.3533
 6009SOL    HW222875   8.755   5.679   4.125  1.1415  1.7370  0.1315
 6010SOL     OW22876   5.236   7.784   8.187 -0.3152  0.4483  0.5750
 6010SOL    HW122877   5.324   7.805   8.220 -0.4698  0.7515  0.7973
 6010SOL    HW222878   5.222   7.693   8.214  0.0133  0.3275  0.3543
 6011SOL     OW22879   6.171   5.744   5.398 -0.4620 -0.0206 -0.6035
 6011SOL    HW122880   6.105   5.790   5.346 -2.4695 -0.9732  0.9197
 6011SOL    HW222881   6.212   5.813   5.451 -1.1871  0.4362 -0.6208
 6012SOL     OW22882   6.822   0.671   0.105 -0.4625 -0.1698 -0.2351
 6012SOL    HW122883   6.845   0.637   0.192 -0.7532  0.0741 -0.0582
 6012SOL    HW222884   6.756   0.738   0.123 -0.6018 -0.1929 -0.6557
 6013SOL     OW22885   5.956   1.484   2.585 -0.0903 -0.2744 -0.3084
 6013SOL    HW122886   5.887   1.491   2.652  1.1598 -1.1796  1.1278
 6013SOL    HW222887   5.960   1.572   2.547 -2.0797 -0.2095 -0.5157
 6014SOL     OW22888   5.736   0.578   1.782 -0.2376  0.0390 -0.5976
 6014SOL    HW122889   5.829   0.556   1.782  0.0098  0.9725 -1.4370
 6014SOL    HW222890   5.697   0.521   1.847  0.9130 -0.4322 -0.3036
 6015SOL     OW22891   6.894   9.722   4.748  0.0973  0.3210  0.1845
 6015SOL    HW122892   6.943   9.781   4.691 -2.0666 -0.2876 -2.5283
 6015SOL    HW222893   6.840   9.780   4.801 -0.1834  0.8807 -0.6806
 6016SOL     OW22894   9.703   0.443   3.230  0.4837  0.1010 -0.2036
 6016SOL    HW122895   9.755   0.512   3.189 -1.8639  1.9741 -0.2375
 6016SOL    HW222896   9.731   0.444   3.322  1.7833 -0.2182 -0.5820
 6017SOL     OW22897   8.669   4.087   8.411 -0.4030 -0.2644 -0.2110
 6017SOL    HW122898   8.625   4.002   8.409 -0.3834 -0.2640 -0.6359
 6017SOL    HW222899   8.615   4.144   8.357 -1.4507  0.5128  1.5592
 6018SOL     OW22900   2.583   4.633   7.214 -0.5025  0.1165  0.2559
 6018SOL    HW122901   2.589   4.703   7.280  0.9625  1.5479 -1.3094
 6018SOL    HW222902   2.580   4.679   7.130  0.3790 -1.6999 -0.8319
 6019SOL     OW22903   4.482   8.442   1.331  0.1259  0.1975  0.3477
 6019SOL    HW122904   4.568   8.409   1.305 -0.3599 -0.5338 -0.4075
 6019SOL    HW222905   4.497   8.486   1.414  0.9661 -1.3080  1.0383
 6020SOL     OW22906   0.203   5.057   8.388  0.7748 -0.2284 -0.1209
 6020SOL    HW122907   0.146   5.107   8.330  0.4614  1.5830  1.6407
 6020SOL    HW222908   0.264   5.012   8.329  0.8368  1.9646 -1.8383
 6021SOL     OW22909   7.690   6.979   0.603  0.7754  0.1150 -0.2850
 6021SOL    HW122910   7.619   7.030   0.563 -0.4950 -1.1423  0.3033
 6021SOL    HW222911   7.738   7.043   0.656  0.5169  1.1301 -1.2412
 6022SOL     OW22912   6.810   2.953   0.903  0.9270 -0.6280  0.4620
 6022SOL    HW122913   6.876   2.995   0.958  0.9858 -0.6464  0.4060
 6022SOL    HW222914   6.731   2.949   0.958  0.3076  1.3885 -0.1983
 6023SOL     OW22915   5.957   4.631   7.621  0.6653  0.4619 -0.1892
 6023SOL    HW122916   5.884   4.693   7.626  0.0593 -0.0274 -2.3120
 6023SOL    HW222917   6.034   4.685   7.638 -0.0898  1.0972  1.5114
 6024SOL     OW22918   7.087   6.377   3.780  0.7539  0.3976  0.2734
 6024SOL    HW122919   7.098   6.342   3.868  1.1432 -0.8486 -0.2524
 6024SOL    HW222920   6.992   6.373   3.764  0.7479  0.0270  0.4000
 6025SOL     OW22921   2.420   8.154   8.712 -0.1646 -0.1933  0.1897
 6025SOL    HW122922   2.428   8.224   8.776 -1.3132  1.3871 -1.2808
 6025SOL    HW222923   2.343   8.104   8.740 -1.3779  1.2045 -0.5427
 6026SOL     OW22924   6.558   9.087   0.135 -0.1302  0.5887 -0.2411
 6026SOL    HW122925   6.628   9.077   0.200 -0.0698 -0.8412 -0.4842
 6026SOL    HW222926   6.599   9.059   0.053 -1.3850 -1.9395 -0.1144
 6027SOL     OW22927   6.974   5.847   4.968  0.1475 -0.1777  0.4152
 6027SOL    HW122928   6.913   5.920   4.964  0.6925  0.2840  0.3652
 6027SOL    HW222929   6.934   5.779   4.914 -1.2497 -0.6035  1.8876
 6028SOL     OW22930   4.640   3.505   5.631  0.1429 -0.2395 -0.0117
 6028SOL    HW122931   4.718   3.450   5.629  1.0142  0.9764 -0.2932
 6028SOL    HW222932   4.639   3.549   5.546 -0.4069  0.3620  0.2951
 6029SOL     OW22933   6.881   3.750   2.919 -0.1721 -0.1775  0.0900
 6029SOL    HW122934   6.860   3.716   3.006 -0.9499 -0.1469 -0.0761
 6029SOL    HW222935   6.859   3.678   2.859 -3.3184  1.0495 -0.4121
 6030SOL     OW22936   8.063   3.845   2.389 -0.5778 -0.1496  0.4158
 6030SOL    HW122937   7.982   3.893   2.374 -0.2044 -0.1110 -1.8405
 6030SOL    HW222938   8.057   3.769   2.331  1.0602 -0.0543  0.0836
 6031SOL     OW22939   2.198   6.236   0.035  0.0781  0.1151 -0.2243
 6031SOL    HW122940   2.251   6.272   0.105  1.6690  0.8891 -1.7391
 6031SOL    HW222941   2.233   6.148   0.021 -0.7258 -0.3155  0.4210
 6032SOL     OW22942   8.394   8.615   6.821 -0.0671 -0.5714  0.0313
 6032SOL    HW122943   8.486   8.640   6.810 -0.1613 -0.7297 -1.2776
 6032SOL    HW222944   8.397   8.534   6.872  0.3738  0.5564  1.9269
 6033SOL     OW22945   5.833   5.809   6.598  0.1497  0.5678  0.5779
 6033SOL    HW122946   5.752   5.832   6.553  1.1688  1.5978 -0.8234
 6033SOL    HW222947   5.840   5.871   6.670  0.4181  1.5026 -0.2225
 6034SOL     OW22948   7.387   8.750   6.368 -0.1717 -0.6504  0.0780
 6034SOL    HW122949   7.388   8.684   6.298  1.6322 -2.8995  2.0438
 6034SOL    HW222950   7.325   8.715   6.432  0.6810 -0.3529  1.0790
 6035SOL     OW22951   0.055   1.899   7.450 -0.2261  0.0704  0.3186
 6035SOL    HW122952  -0.002   1.944   7.512  0.0813  0.0347  0.6341
 6035SOL    HW222953   0.100   1.833   7.503  1.6817  1.4713  0.5734
 6036SOL     OW22954   5.221   4.419   1.370 -0.5921 -0.5603  0.4411
 6036SOL    HW122955   5.217   4.501   1.321 -0.2315 -0.5509  0.4242
 6036SOL    HW222956   5.137   4.414   1.415 -1.0126 -0.6742 -0.3480
 6037SOL     OW22957   4.193   8.093   5.702 -0.2082 -0.1776 -0.0333
 6037SOL    HW122958   4.141   8.123   5.776 -1.0376 -1.6831  0.0292
 6037SOL    HW222959   4.209   8.000   5.719  3.3027  0.3500  0.4124
 6038SOL     OW22960   9.649   3.696   2.050  0.3933  0.3308  0.2305
 6038SOL    HW122961   9.654   3.726   2.140  0.0785 -0.0346  0.3732
 6038SOL    HW222962   9.729   3.728   2.009  0.0840  1.3201  0.3898
 6039SOL     OW22963   9.224   7.927   0.210 -0.0420  0.0712  0.3746
 6039SOL    HW122964   9.173   7.897   0.285  1.1823 -0.7543  0.9084
 6039SOL    HW222965   9.216   8.022   0.211 -0.9856 -0.0109  0.8561
 6040SOL     OW22966   3.165   6.468   4.194  0.2160  0.0567 -0.2635
 6040SOL    HW122967   3.096   6.525   4.227  0.9153  0.5977  0.3088
 6040SOL    HW222968   3.243   6.525   4.189  0.4669 -0.3620 -1.5392
 6041SOL     OW22969   9.594   0.468   4.211  0.0656 -0.0013  0.1720
 6041SOL    HW122970   9.583   0.459   4.116 -0.4227  3.1743 -0.2007
 6041SOL    HW222971   9.520   0.419   4.248  1.2144 -2.7215 -0.9208
 6042SOL     OW22972   5.625   7.757   0.436 -1.0694  0.3604  0.1463
 6042SOL    HW122973   5.695   7.715   0.487 -0.8782  2.3495  1.6921
 6042SOL    HW222974   5.569   7.685   0.407  1.4349 -1.2864 -0.9236
 6043SOL     OW22975   7.189   2.881   3.454 -0.0546  0.2653  0.0330
 6043SOL    HW122976   7.113   2.851   3.405  0.1413 -1.2221  0.5726
 6043SOL    HW222977   7.173   2.851   3.544  0.0623  2.0410  0.6717
 6044SOL     OW22978   3.339   0.105   3.885 -0.1693  0.1176  0.1384
 6044SOL    HW122979   3.354   0.024   3.934  0.2379  0.2169  0.1809
 6044SOL    HW222980   3.245   0.105   3.867 -0.0694 -0.6830 -0.4196
 6045SOL     OW22981   8.283   9.672   5.547 -0.5101 -0.4369 -0.1632
 6045SOL    HW122982   8.283   9.759   5.585 -1.0552 -1.1705  1.6551
 6045SOL    HW222983   8.242   9.683   5.461  1.2567  1.3811 -0.8420
 6046SOL     OW22984   4.566   7.175   3.914  0.1721 -0.1901 -1.0186
 6046SOL    HW122985   4.607   7.260   3.898 -2.2983  0.9984 -1.5739
 6046SOL    HW222986   4.512   7.189   3.991 -1.4185 -0.7637 -1.9694
 6047SOL     OW22987   8.818   6.239   1.478 -0.2036 -0.5964 -0.3216
 6047SOL    HW122988   8.731   6.275   1.494  0.6008  0.6520  1.7724
 6047SOL    HW222989   8.834   6.182   1.553  1.6081  1.0202  0.6230
 6048SOL     OW22990   4.367   7.631   3.398 -0.2694 -0.3484 -0.2410
 6048SOL    HW122991   4.321   7.674   3.326 -0.6147  1.1874  0.8625
 6048SOL    HW222992   4.392   7.546   3.362  0.3803  0.7166 -2.4745
 6049SOL     OW22993   6.230   1.307   5.492  0.0054 -0.0777  0.1421
 6049SOL    HW122994   6.214   1.219   5.458 -2.1117  0.8080 -1.3685
 6049SOL    HW222995   6.188   1.306   5.578  0.3370 -0.6349  0.3075
 6050SOL     OW22996   6.564   5.889   5.477  0.1308 -0.2100 -0.6274
 6050SOL    HW122997   6.582   5.952   5.407  0.1501  1.5112  0.8422
 6050SOL    HW222998   6.611   5.924   5.553 -0.6576 -1.4902  0.4932
 6051SOL     OW22999   2.441   1.313   4.818 -0.3573 -0.6992  0.0824
 6051SOL    HW123000   2.519   1.264   4.791  0.6434 -0.1316  1.7404
 6051SOL    HW223001   2.378   1.300   4.748  1.3307 -0.9807 -1.4428
 6052SOL     OW23002   5.876   0.259   4.481  0.2378  0.0290 -0.1872
 6052SOL    HW123003   5.906   0.176   4.517 -0.0679  0.6939  1.7180
 6052SOL    HW223004   5.781   0.250   4.477  0.2641 -0.0011 -0.7216
 6053SOL     OW23005   0.407   3.771   1.904  0.0599  0.4209  0.2109
 6053SOL    HW123006   0.417   3.795   1.996  0.8959 -1.7918  0.7513
 6053SOL    HW223007   0.315   3.746   1.895  0.2847 -0.7031  0.8315
 6054SOL     OW23008   0.610   5.474   9.363  0.1602 -0.0571  0.6748
 6054SOL    HW123009   0.610   5.420   9.284  0.2436 -0.0035  0.6381
 6054SOL    HW223010   0.697   5.461   9.401  1.4292  2.5227 -1.0253
 6055SOL     OW23011   9.234   8.641   8.247 -0.4535  1.0680 -1.1355
 6055SOL    HW123012   9.306   8.605   8.195  1.2344 -0.4038  1.9281
 6055SOL    HW223013   9.276   8.705   8.305 -0.6844 -1.9155  2.8393
 6056SOL     OW23014   1.932   8.111   1.874 -0.0820 -0.0751 -0.2245
 6056SOL    HW123015   1.938   8.204   1.894  1.8564  0.5799 -3.2465
 6056SOL    HW223016   1.942   8.105   1.779 -0.2284 -3.3696 -0.1705
 6057SOL     OW23017   3.809   0.585   5.827  0.1362  0.1974  0.2730
 6057SOL    HW123018   3.716   0.565   5.813  0.1775 -0.6369  1.1245
 6057SOL    HW223019   3.832   0.644   5.754 -0.3935 -1.6368 -1.4543
 6058SOL     OW23020   0.832   2.431   8.363 -0.4687 -0.1028 -0.0056
 6058SOL    HW123021   0.897   2.419   8.294  0.0993  0.5559  0.4040
 6058SOL    HW223022   0.858   2.369   8.431 -3.3466 -3.7932 -1.9276
 6059SOL     OW23023   4.929   0.508   9.347 -0.2643  0.3105  0.0327
 6059SOL    HW123024   4.952   0.600   9.358  1.2644 -0.1595  1.1364
 6059SOL    HW223025   4.902   0.479   9.435  2.7885 -1.1367  0.6273
 6060SOL     OW23026   5.169   2.777   7.223 -0.5031 -0.5886  0.1758
 6060SOL    HW123027   5.156   2.746   7.133 -0.7134 -0.1603  0.0550
 6060SOL    HW223028   5.082   2.772   7.263 -0.6051  0.1150  0.0633
 6061SOL     OW23029   6.446   9.356   0.441  0.0205  0.9504  0.2119
 6061SOL    HW123030   6.474   9.350   0.350  0.4722 -2.4844  0.4220
 6061SOL    HW223031   6.519   9.396   0.487  0.6067  0.9156 -0.6723
 6062SOL     OW23032   5.605   2.429   7.879 -0.4209 -0.0841  0.0445
 6062SOL    HW123033   5.515   2.410   7.852 -0.3388  2.1544 -2.2339
 6062SOL    HW223034   5.614   2.523   7.865  2.1472 -0.1725  0.7011
 6063SOL     OW23035   3.560   8.314   1.020 -0.0843 -0.5611 -0.0779
 6063SOL    HW123036   3.595   8.243   1.074 -0.8631 -1.2051 -0.4048
 6063SOL    HW223037   3.470   8.288   1.000 -0.1936  0.2365 -0.6906
 6064SOL     OW23038   1.062   3.950   3.546  0.0641 -0.2804  0.6025
 6064SOL    HW123039   0.972   3.968   3.519 -0.0092  0.7574  1.4393
 6064SOL    HW223040   1.116   4.003   3.487 -0.0319  1.0019  1.6001
 6065SOL     OW23041   8.459   7.162   6.135 -0.8424 -0.0055 -0.0107
 6065SOL    HW123042   8.496   7.074   6.131 -0.8951 -0.0540  0.5188
 6065SOL    HW223043   8.394   7.164   6.064 -2.1319 -0.9938  1.0839
 6066SOL     OW23044   8.715   6.155   8.071  0.1910 -0.7492  0.7789
 6066SOL    HW123045   8.647   6.220   8.085  0.1567 -0.7070  0.4275
 6066SOL    HW223046   8.672   6.087   8.017  0.4160 -0.7375  0.5839
 6067SOL     OW23047   1.183   7.149   8.564  0.1139 -0.4868  0.1139
 6067SOL    HW123048   1.170   7.059   8.596  0.8157 -0.7186 -0.2304
 6067SOL    HW223049   1.197   7.201   8.643  2.0349 -1.0872  0.2225
 6068SOL     OW23050   1.275   9.598   8.777  0.0087  0.6637 -0.1234
 6068SOL    HW123051   1.331   9.547   8.836 -2.0944 -0.3549  1.0977
 6068SOL    HW223052   1.325   9.678   8.761  1.5113  0.1219  1.4698
 6069SOL     OW23053   9.674   9.372   0.798 -0.4462 -0.0026 -0.2718
 6069SOL    HW123054   9.740   9.312   0.832  0.2736  0.1561 -1.3257
 6069SOL    HW223055   9.591   9.337   0.830 -0.0869 -1.7978 -1.1535
 6070SOL     OW23056   1.624   1.750   4.253 -0.1617  0.6600 -0.2392
 6070SOL    HW123057   1.654   1.665   4.283 -0.3018  0.6252 -0.1975
 6070SOL    HW223058   1.676   1.768   4.174  1.4805  1.5369  0.9757
 6071SOL     OW23059   8.747   5.821   2.233 -0.2125 -0.5095 -0.4435
 6071SOL    HW123060   8.654   5.844   2.226 -0.0018  0.1438 -1.4059
 6071SOL    HW223061   8.764   5.767   2.155  0.3095 -0.2370 -0.5252
 6072SOL     OW23062   6.092   0.646   4.785  0.4502  0.7132 -0.4714
 6072SOL    HW123063   6.139   0.702   4.722  0.6714  0.5481 -0.4526
 6072SOL    HW223064   6.041   0.587   4.730  0.7190  0.5045 -0.4963
 6073SOL     OW23065   4.242   6.482   6.141 -0.3866  0.6635 -0.2779
 6073SOL    HW123066   4.150   6.507   6.144 -0.5581  0.0708 -0.3663
 6073SOL    HW223067   4.262   6.472   6.048 -1.2052 -2.5403 -0.2388
 6074SOL     OW23068   6.742   4.825   8.272 -0.8252 -0.1084  0.2632
 6074SOL    HW123069   6.837   4.832   8.260 -0.8040 -0.7764  0.0250
 6074SOL    HW223070   6.707   4.903   8.228 -0.5288 -0.8957 -1.4666
 6075SOL     OW23071   8.376   0.850   8.535 -0.2506  0.2330 -0.1233
 6075SOL    HW123072   8.322   0.896   8.471  0.2426 -0.7714 -1.3184
 6075SOL    HW223073   8.463   0.849   8.495 -0.1053 -1.0918  0.1870
 6076SOL     OW23074   5.415   7.597   3.540  0.4351 -0.9314  0.0914
 6076SOL    HW123075   5.480   7.667   3.536 -0.6525  0.0500 -1.5167
 6076SOL    HW223076   5.467   7.517   3.551  1.9234 -0.1583 -0.8711
 6077SOL     OW23077   6.465   5.034   5.418 -0.5982  0.7835  0.6060
 6077SOL    HW123078   6.423   4.992   5.342  0.8065  1.4110 -0.5669
 6077SOL    HW223079   6.558   5.028   5.400 -0.1867  0.1950  2.7407
 6078SOL     OW23080   6.527   3.241   1.980  0.1498 -0.4174  0.4573
 6078SOL    HW123081   6.485   3.290   1.910  0.7830 -0.0694  0.3063
 6078SOL    HW223082   6.559   3.308   2.041  1.7927 -0.5608 -0.1857
 6079SOL     OW23083   7.437   0.161   1.823 -0.2724  0.1627  0.6301
 6079SOL    HW123084   7.427   0.183   1.730 -2.8005 -1.6695  0.3534
 6079SOL    HW223085   7.459   0.244   1.865  0.3368  1.1553 -1.5124
 6080SOL     OW23086   6.238   0.266   4.258  0.3045 -0.4349  0.1924
 6080SOL    HW123087   6.299   0.307   4.197  1.5181 -0.2698  1.4605
 6080SOL    HW223088   6.206   0.338   4.312 -1.4794 -0.4339 -0.8127
 6081SOL     OW23089   7.780   4.335   5.462 -0.3249 -0.1551  0.2957
 6081SOL    HW123090   7.811   4.258   5.510 -1.8637 -0.4895  0.8063
 6081SOL    HW223091   7.843   4.403   5.483 -0.0332 -0.7516  1.4347
 6082SOL     OW23092   1.729   5.217   8.278 -0.2211 -0.2340 -0.2804
 6082SOL    HW123093   1.768   5.162   8.346 -0.3649  0.0713  0.0554
 6082SOL    HW223094   1.711   5.157   8.206  0.4695 -0.4550 -0.2768
 6083SOL     OW23095   8.579   5.170   8.172  0.0307 -0.2605  0.0806
 6083SOL    HW123096   8.491   5.170   8.134 -0.8015  0.3732  1.9063
 6083SOL    HW223097   8.637   5.152   8.097 -1.5271  0.5786 -1.4002
 6084SOL     OW23098   0.391   4.973   6.405 -0.0698  0.4716  0.0666
 6084SOL    HW123099   0.462   4.925   6.363  1.1246  1.9484  0.3061
 6084SOL    HW223100   0.372   4.924   6.485  1.5597  0.7023  0.6305
 6085SOL     OW23101   9.449   6.909   1.745  0.4958 -0.2383  0.2580
 6085SOL    HW123102   9.450   7.004   1.730 -0.3650 -0.2254  0.1893
 6085SOL    HW223103   9.535   6.879   1.716  0.0280  0.2197 -1.7984
 6086SOL     OW23104   8.294   5.307   0.265  0.6825 -0.0486  0.7285
 6086SOL    HW123105   8.378   5.345   0.240  0.0879  0.0274 -1.3590
 6086SOL    HW223106   8.301   5.215   0.244  0.7113 -0.3437  1.9394
 6087SOL     OW23107   8.396   9.081   0.773 -0.5863 -0.0835 -0.4203
 6087SOL    HW123108   8.446   9.154   0.736  2.2941 -1.2765  0.8844
 6087SOL    HW223109   8.359   9.116   0.854 -1.4289  0.6195 -1.0771
 6088SOL     OW23110   1.013   7.060   1.812  0.0397  0.3712 -0.1775
 6088SOL    HW123111   0.933   7.066   1.864 -0.4286  1.4593 -0.9621
 6088SOL    HW223112   0.992   6.996   1.744  0.2908 -0.2833  0.3517
 6089SOL     OW23113   2.904   2.338   9.380  0.2342  0.1491  0.5701
 6089SOL    HW123114   2.957   2.387   9.316 -0.2030  0.4429  0.4275
 6089SOL    HW223115   2.851   2.405   9.423  0.9718  0.0435  1.6932
 6090SOL     OW23116   4.735   5.029   6.851 -0.5533 -0.0753  0.4455
 6090SOL    HW123117   4.665   5.071   6.901  1.0334  1.4477  1.4854
 6090SOL    HW223118   4.815   5.071   6.882  1.0129 -2.8635  0.4434
 6091SOL     OW23119   7.229   2.404   5.038 -0.2836  0.1431 -0.4094
 6091SOL    HW123120   7.244   2.318   5.000  0.8464  0.0702  0.1685
 6091SOL    HW223121   7.316   2.439   5.055 -0.6414  2.1578 -2.2371
 6092SOL     OW23122   1.322   1.853   4.747  0.2608  0.0289  0.4882
 6092SOL    HW123123   1.287   1.862   4.836 -0.7349 -0.2001  0.1315
 6092SOL    HW223124   1.350   1.761   4.741 -0.9808 -0.3413  0.1183
 6093SOL     OW23125   3.717   9.069   6.964  0.0248  0.3423  0.0703
 6093SOL    HW123126   3.682   9.146   6.920  1.5545  0.8545 -0.3041
 6093SOL    HW223127   3.674   9.069   7.050 -0.8071  0.9776 -0.3316
 6094SOL     OW23128   0.851   0.069   6.229 -0.1551  0.5673  0.1623
 6094SOL    HW123129   0.860   0.153   6.183  0.2789  1.0836  1.1474
 6094SOL    HW223130   0.842   0.004   6.160  1.1295  1.2405 -0.6811
 6095SOL     OW23131   3.912   8.765   5.902 -0.2398 -0.2543 -0.2584
 6095SOL    HW123132   3.955   8.847   5.882  0.5934 -0.5258  0.3734
 6095SOL    HW223133   3.974   8.718   5.958 -0.8366 -1.1722 -0.3427
 6096SOL     OW23134   6.857   2.298   2.391  0.1794 -0.3154  0.2420
 6096SOL    HW123135   6.942   2.336   2.414  0.3184 -0.5535  0.1252
 6096SOL    HW223136   6.794   2.367   2.410  0.3159 -0.4162  1.1164
 6097SOL     OW23137   7.352   8.663   0.021 -0.5207 -0.4813 -0.4403
 6097SOL    HW123138   7.346   8.576  -0.018 -1.3882 -1.0790  0.9596
 6097SOL    HW223139   7.428   8.703  -0.022  1.6880 -2.9753  0.8841
 6098SOL     OW23140   7.665   5.513   2.725 -0.5070  0.2226 -0.4436
 6098SOL    HW123141   7.595   5.574   2.700 -1.7891 -0.7617  0.5965
 6098SOL    HW223142   7.634   5.428   2.695  1.4619  0.0708 -2.2665
 6099SOL     OW23143   8.005   5.396   8.705  0.0777 -0.1131 -0.3130
 6099SOL    HW123144   8.069   5.467   8.712 -0.2122 -0.0429  2.9885
 6099SOL    HW223145   8.044   5.336   8.641  4.5895 -1.0116  2.7621
 6100SOL     OW23146   3.031   1.816   2.041 -0.2324  0.0689 -0.1565
 6100SOL    HW123147   3.061   1.906   2.030 -0.9161  0.0189 -3.7759
 6100SOL    HW223148   3.104   1.763   2.008 -1.0838 -0.4577 -1.2610
 6101SOL     OW23149   2.415   0.397   4.145 -0.4060 -0.8650  0.2062
 6101SOL    HW123150   2.444   0.483   4.175  0.3788 -1.2907  0.7262
 6101SOL    HW223151   2.460   0.336   4.203 -3.7404 -1.5691  2.3347
 6102SOL     OW23152   7.830   5.926   3.299  0.0501  0.0323 -0.1150
 6102SOL    HW123153   7.855   5.842   3.336 -1.9586 -1.0977 -1.1747
 6102SOL    HW223154   7.762   5.959   3.357 -0.1513  0.2627 -0.4736
 6103SOL     OW23155   3.053   5.473   3.678 -0.2641 -0.0277 -0.3444
 6103SOL    HW123156   3.093   5.560   3.676 -1.6863  0.6609  0.0342
 6103SOL    HW223157   2.959   5.489   3.683 -0.6194 -1.6019 -1.2071
 6104SOL     OW23158   6.468   9.405   2.374  0.7478 -0.3507 -0.4279
 6104SOL    HW123159   6.547   9.356   2.397  0.6042 -0.3939 -0.0249
 6104SOL    HW223160   6.396   9.354   2.412  0.6204  0.3307  0.2591
 6105SOL     OW23161   8.112   8.850   7.419 -0.3495  0.0510  0.9348
 6105SOL    HW123162   8.198   8.877   7.386 -0.4416 -2.2204 -1.5716
 6105SOL    HW223163   8.098   8.763   7.381 -3.7673  0.3273  1.2237
 6106SOL     OW23164   5.931   7.179   2.911  0.2872 -0.2153  0.2443
 6106SOL    HW123165   5.948   7.270   2.935 -2.0065  0.3754 -0.1022
 6106SOL    HW223166   5.847   7.159   2.953  0.4739 -1.9965 -0.1618
 6107SOL     OW23167   7.908   0.956   8.874  0.1273  0.0346 -0.2345
 6107SOL    HW123168   7.961   0.977   8.797 -0.1143 -0.8495 -0.6549
 6107SOL    HW223169   7.972   0.952   8.946  0.4455  0.2215 -0.5017
 6108SOL     OW23170   3.179   4.857   1.011  0.1822 -0.2329  0.0611
 6108SOL    HW123171   3.158   4.946   0.980  3.6972  0.8721  0.3986
 6108SOL    HW223172   3.167   4.861   1.105 -1.4216 -0.7206 -0.1018
 6109SOL     OW23173   3.626   6.488   5.450  0.0341  0.0096  0.4129
 6109SOL    HW123174   3.613   6.454   5.361 -2.1906  0.2574  0.5951
 6109SOL    HW223175   3.654   6.578   5.437 -1.9177  0.5796 -0.0740
 6110SOL     OW23176   2.874   5.227   6.719  0.6796  1.0299  0.1019
 6110SOL    HW123177   2.849   5.306   6.768 -0.1745 -1.1028  3.4371
 6110SOL    HW223178   2.813   5.160   6.750 -0.3863 -0.5004 -4.5202
 6111SOL     OW23179   5.820   7.985   6.031  0.4477 -0.0925  0.3532
 6111SOL    HW123180   5.779   8.072   6.034  0.3921 -0.0585 -0.7780
 6111SOL    HW223181   5.913   8.002   6.047  0.3141  0.0799  0.9394
 6112SOL     OW23182   2.340   6.606   6.980  0.1337  0.2632  0.3538
 6112SOL    HW123183   2.326   6.677   6.917  0.2220  0.1627  0.2220
 6112SOL    HW223184   2.395   6.645   7.048  0.9626  0.0574 -0.1832
 6113SOL     OW23185   7.251   8.481   3.760 -0.3965  0.5530 -0.9849
 6113SOL    HW123186   7.216   8.481   3.849  1.8887 -0.1845 -0.0008
 6113SOL    HW223187   7.184   8.439   3.708 -0.5968 -1.7992  0.9804
 6114SOL     OW23188   2.682   5.306   4.914  0.2166 -0.2269  0.1644
 6114SOL    HW123189   2.664   5.298   4.821 -0.4678  0.5045  0.2195
 6114SOL    HW223190   2.716   5.221   4.940 -0.6903 -0.8128 -0.5119
 6115SOL     OW23191   8.497   5.502   2.655 -0.1426  0.8046 -0.2821
 6115SOL    HW123192   8.482   5.522   2.747  2.4146 -0.5932  0.5241
 6115SOL    HW223193   8.535   5.582   2.619 -0.5212  1.1294  0.0168
 6116SOL     OW23194   4.998   0.566   0.969  0.7553  0.0515 -0.4341
 6116SOL    HW123195   4.971   0.657   0.973  0.1115 -0.0984 -1.0511
 6116SOL    HW223196   4.930   0.518   1.016  0.6531 -0.1876 -0.8148
 6117SOL     OW23197   2.083   8.029   6.443 -0.1432  0.2978  0.1699
 6117SOL    HW123198   2.124   8.111   6.470 -0.7580  0.5538  0.3444
 6117SOL    HW223199   2.030   8.003   6.518  1.7881 -1.4706  1.0404
 6118SOL     OW23200   0.803   0.055   0.204 -0.7872  0.5591 -0.0393
 6118SOL    HW123201   0.790   0.056   0.109  0.5414  0.6417 -0.2405
 6118SOL    HW223202   0.867  -0.015   0.218 -0.1365  1.2776  0.6707
 6119SOL     OW23203   8.652   8.102   2.793  0.1470 -0.4293 -0.1627
 6119SOL    HW123204   8.636   8.061   2.879 -0.8722 -0.1849 -0.2198
 6119SOL    HW223205   8.745   8.124   2.794  0.3150 -1.1138  0.5838
 6120SOL     OW23206   3.496   5.532   7.141  0.2886  0.3423 -0.0647
 6120SOL    HW123207   3.497   5.438   7.124 -0.3042  0.5291 -1.2227
 6120SOL    HW223208   3.421   5.564   7.092  0.5491  1.4420  0.2352
 6121SOL     OW23209   1.372   6.401   3.724 -0.4161 -0.1532  0.2215
 6121SOL    HW123210   1.405   6.404   3.814 -0.7691  0.1754  0.3409
 6121SOL    HW223211   1.423   6.467   3.678  0.2053 -0.7567  0.0272
 6122SOL     OW23212   9.602   2.825   0.498  0.7001 -0.4545  0.3577
 6122SOL    HW123213   9.593   2.868   0.583 -0.6872  1.7114 -0.7874
 6122SOL    HW223214   9.662   2.882   0.449  0.0775 -0.6881 -0.6953
 6123SOL     OW23215   8.746   9.108   0.934  0.1693 -0.7741 -0.6918
 6123SOL    HW123216   8.741   9.034   0.874  0.7880 -0.0744 -1.6416
 6123SOL    HW223217   8.725   9.072   1.020  2.9452 -2.5850 -0.6676
 6124SOL     OW23218   0.417   5.825   8.781 -0.5842 -0.1809 -0.2354
 6124SOL    HW123219   0.409   5.843   8.875  2.1561  4.0887 -0.5325
 6124SOL    HW223220   0.477   5.750   8.777 -0.6331 -0.3574  1.3851
 6125SOL     OW23221   3.815   0.701   2.195  0.0186 -1.1299  0.6026
 6125SOL    HW123222   3.811   0.763   2.122  1.3904  0.6389  1.9636
 6125SOL    HW223223   3.876   0.633   2.165  0.3618 -0.5730  0.0066
 6126SOL     OW23224   2.440   8.773   8.794 -0.2388 -0.6589  0.2874
 6126SOL    HW123225   2.526   8.809   8.811  0.2364 -1.8361  0.4574
 6126SOL    HW223226   2.407   8.823   8.719  1.4203 -1.4846 -1.0577
 6127SOL     OW23227   3.602   7.963   1.535 -0.4356 -0.0413 -0.4076
 6127SOL    HW123228   3.551   7.897   1.582 -1.8500  0.9451 -0.4911
 6127SOL    HW223229   3.687   7.922   1.521 -0.8290 -1.3230  0.7374
 6128SOL     OW23230   7.711   3.751   9.194  0.1995  0.3877 -0.6825
 6128SOL    HW123231   7.771   3.679   9.211  0.2925  0.8838  1.3371
 6128SOL    HW223232   7.698   3.751   9.099  1.6732 -1.0796 -0.9042
 6129SOL     OW23233   3.481   1.877   3.165  0.0989 -0.1747 -0.2407
 6129SOL    HW123234   3.385   1.875   3.158  0.0822 -2.9673 -0.3920
 6129SOL    HW223235   3.506   1.786   3.180  2.6942  0.6413  0.9416
 6130SOL     OW23236   1.343   2.130   4.330  0.6395  0.1122  0.1405
 6130SOL    HW123237   1.381   2.049   4.365  1.7994  0.5920  0.0368
 6130SOL    HW223238   1.252   2.128   4.359  0.4143 -1.6427 -0.5797
 6131SOL     OW23239   4.343   7.084   6.102  0.0394  0.1863 -0.0899
 6131SOL    HW123240   4.292   7.163   6.083 -1.4587 -0.5200  0.7436
 6131SOL    HW223241   4.348   7.038   6.019 -1.5776 -0.1905 -0.0146
 6132SOL     OW23242   1.425   6.618   9.709  0.0814 -0.2133  0.7169
 6132SOL    HW123243   1.393   6.582   9.792  1.4087 -0.9331  0.9484
 6132SOL    HW223244   1.520   6.603   9.712  0.3380  1.0718 -0.2955
 6133SOL     OW23245   4.681   3.531   6.247  0.1122  0.2089  0.2905
 6133SOL    HW123246   4.678   3.621   6.214 -0.5469 -1.0250 -3.5307
 6133SOL    HW223247   4.759   3.494   6.206  0.1949 -1.0857  1.5627
 6134SOL     OW23248   8.856   6.409   3.126 -0.6083 -0.1278  0.1955
 6134SOL    HW123249   8.949   6.431   3.130  0.0839 -2.6666 -0.0134
 6134SOL    HW223250   8.816   6.482   3.078  1.0150  1.6584  1.4306
 6135SOL     OW23251   5.005   9.028   3.851 -0.3083  0.0933 -0.1471
 6135SOL    HW123252   5.012   9.028   3.755 -0.4839  2.2952 -0.2155
 6135SOL    HW223253   5.068   8.962   3.880 -0.5759 -0.9438 -1.7789
 6136SOL     OW23254   0.735   7.825   5.845  0.0818 -0.1571  0.4101
 6136SOL    HW123255   0.686   7.881   5.906  2.5689  1.3525  1.2185
 6136SOL    HW223256   0.707   7.854   5.759  0.3759  1.5759  0.8356
 6137SOL     OW23257   8.347   0.675   6.317  0.2771 -0.2209  0.3129
 6137SOL    HW123258   8.282   0.723   6.266  0.5542  0.2191  0.3719
 6137SOL    HW223259   8.297   0.605   6.359 -0.1626  0.1209  0.3689
 6138SOL     OW23260   6.027   4.550   5.112 -0.0974 -0.2959 -0.2150
 6138SOL    HW123261   6.109   4.586   5.146  0.2451 -0.4974 -0.8102
 6138SOL    HW223262   6.020   4.463   5.151  0.2559 -0.4963 -0.5862
 6139SOL     OW23263   9.630   2.397   4.745 -0.5728  0.4088 -0.3584
 6139SOL    HW123264   9.687   2.465   4.709 -1.1569  0.5502 -1.0462
 6139SOL    HW223265   9.689   2.338   4.791 -0.1523  1.9757  1.2724
 6140SOL     OW23266   2.074   9.208   9.440 -0.2149 -0.4970  0.2727
 6140SOL    HW123267   2.012   9.147   9.480  0.0374 -0.1779  1.1933
 6140SOL    HW223268   2.023   9.288   9.426  0.0614 -0.1066  1.3866
 6141SOL     OW23269   6.941   0.599   7.569 -0.4441  0.7343  0.2201
 6141SOL    HW123270   6.957   0.607   7.663  0.9072  0.3006  0.0431
 6141SOL    HW223271   7.003   0.533   7.539 -0.4475  1.2897 -1.0867
 6142SOL     OW23272   4.389   0.037   4.627  0.3103 -0.6879  0.2027
 6142SOL    HW123273   4.461   0.046   4.564 -0.4866 -0.2232 -0.6790
 6142SOL    HW223274   4.369  -0.057   4.627  0.1859 -0.6685 -0.4115
 6143SOL     OW23275   5.006   8.453   6.349 -0.3793  0.1379 -0.2141
 6143SOL    HW123276   4.974   8.480   6.436  1.2887  1.8382 -0.0571
 6143SOL    HW223277   4.982   8.525   6.292 -1.1931 -0.8422 -1.1431
 6144SOL     OW23278   3.498   6.801   5.641 -0.2305 -0.2265 -0.2419
 6144SOL    HW123279   3.421   6.854   5.620  1.1211  0.8746 -2.8365
 6144SOL    HW223280   3.572   6.861   5.633  1.0028 -1.4771  1.2268
 6145SOL     OW23281   0.749   3.635   9.622 -0.1010  0.1655 -0.0154
 6145SOL    HW123282   0.693   3.704   9.658 -1.4040 -1.3731  1.0466
 6145SOL    HW223283   0.764   3.661   9.531 -1.5576  1.2298  0.0228
 6146SOL     OW23284   1.774   3.596   5.449 -0.2479 -0.1550  0.0703
 6146SOL    HW123285   1.861   3.584   5.411 -0.6745 -0.6239 -0.7948
 6146SOL    HW223286   1.784   3.572   5.541  0.5538 -0.1041 -0.0006
 6147SOL     OW23287   9.520   8.061   5.301  0.2364 -0.4978 -0.1242
 6147SOL    HW123288   9.592   8.001   5.316  0.4351 -0.0283  0.8445
 6147SOL    HW223289   9.527   8.127   5.370  0.5740  1.1915 -1.6808
 6148SOL     OW23290   2.022   0.915   5.771  0.3875 -0.6278 -0.2695
 6148SOL    HW123291   1.938   0.909   5.815  0.3724  1.7716  0.1862
 6148SOL    HW223292   2.043   0.825   5.745 -2.6734 -1.1805 -1.1422
 6149SOL     OW23293   2.792   6.108   5.990  0.0499 -0.4569 -0.0095
 6149SOL    HW123294   2.723   6.049   5.960  0.1878 -0.3285 -0.5935
 6149SOL    HW223295   2.841   6.057   6.054  0.2710 -1.0405 -0.6285
 6150SOL     OW23296   7.612   9.514   1.258  0.1186  0.2394  0.3534
 6150SOL    HW123297   7.524   9.506   1.223  0.1205  1.6768 -0.0432
 6150SOL    HW223298   7.599   9.535   1.351  0.0810 -1.0764  0.6598
 6151SOL     OW23299   6.520   3.478   7.259 -0.5932  0.4829  0.1744
 6151SOL    HW123300   6.483   3.540   7.322  0.7646  2.3392 -0.7381
 6151SOL    HW223301   6.550   3.533   7.186  1.1960 -1.1939 -0.4454
 6152SOL     OW23302   8.134   8.526   7.466 -0.2959 -0.2486 -0.6218
 6152SOL    HW123303   8.046   8.542   7.499  0.0975  0.7386 -0.0073
 6152SOL    HW223304   8.125   8.533   7.371 -1.0777 -1.2537 -0.6436
 6153SOL     OW23305   7.603   3.486   9.480  0.0187  0.1570  0.1031
 6153SOL    HW123306   7.516   3.492   9.518 -0.1846  0.1841 -0.3637
 6153SOL    HW223307   7.626   3.577   9.458  0.3409  0.2053  0.6043
 6154SOL     OW23308   5.700   3.787   5.374  0.0389 -0.5406  0.1940
 6154SOL    HW123309   5.626   3.807   5.432 -1.7920 -0.1523 -2.0987
 6154SOL    HW223310   5.668   3.716   5.318  1.7699 -1.0108 -0.2697
 6155SOL     OW23311   1.339   4.183   3.813 -0.3844 -0.0489 -0.0742
 6155SOL    HW123312   1.345   4.276   3.836 -0.5070  0.1365 -0.7845
 6155SOL    HW223313   1.382   4.176   3.728  1.7369 -1.0581  1.0031
 6156SOL     OW23314   2.399   7.356   2.110 -0.5049  0.1886  0.3641
 6156SOL    HW123315   2.330   7.411   2.148 -1.5820  0.0859 -1.3272
 6156SOL    HW223316   2.351   7.290   2.060  0.8101  0.4398 -1.3010
 6157SOL     OW23317   4.541   0.991   0.788  0.2158  0.4163 -0.0321
 6157SOL    HW123318   4.486   0.914   0.802 -0.0427  0.6925  0.4994
 6157SOL    HW223319   4.533   1.041   0.869  2.7502 -0.4547  0.8515
 6158SOL     OW23320   0.210   3.314   8.967  0.0849  0.5429 -0.0768
 6158SOL    HW123321   0.218   3.316   8.872  1.8398  0.1903  0.0214
 6158SOL    HW223322   0.300   3.323   8.998 -0.5491  1.5554  1.5773
 6159SOL     OW23323   4.140   3.020   2.667 -0.1569  0.0497  0.0131
 6159SOL    HW123324   4.185   2.990   2.746  1.5198  2.2404 -0.0339
 6159SOL    HW223325   4.171   2.962   2.598  0.1086 -0.4582  0.5482
 6160SOL     OW23326   1.897   4.688   2.179  0.3230 -0.6067  0.1192
 6160SOL    HW123327   1.904   4.730   2.265 -1.4633 -0.7501  0.3801
 6160SOL    HW223328   1.847   4.608   2.194  1.0496 -1.2799 -0.8719
 6161SOL     OW23329   6.146   2.307   7.967  0.0639  0.0725  0.2511
 6161SOL    HW123330   6.184   2.246   8.031 -0.1859 -0.2026  0.1344
 6161SOL    HW223331   6.055   2.279   7.958  0.2945 -0.3734 -0.8069
 6162SOL     OW23332   7.023   5.033   2.489 -0.5162 -0.4368 -0.7527
 6162SOL    HW123333   6.968   5.110   2.477 -1.0910 -1.0095 -1.9416
 6162SOL    HW223334   6.995   4.972   2.421  0.1382 -1.5810 -0.0386
 6163SOL     OW23335   1.618   4.761   8.701 -0.0142 -0.3519  0.6127
 6163SOL    HW123336   1.584   4.676   8.729 -0.5285 -0.2703  0.2448
 6163SOL    HW223337   1.668   4.793   8.776 -1.9216  0.1808  1.7353
 6164SOL     OW23338   8.556   4.470   4.413  0.0898  0.1485 -0.1957
 6164SOL    HW123339   8.474   4.517   4.398  0.8708  1.7067  0.2225
 6164SOL    HW223340   8.592   4.458   4.325  0.2419  1.0125 -0.2557
 6165SOL     OW23341   2.887   0.655   8.433  0.1136 -0.0911  0.4523
 6165SOL    HW123342   2.904   0.749   8.429 -1.9824  0.3132 -3.3105
 6165SOL    HW223343   2.809   0.647   8.489 -0.0476  0.4736  0.3119
 6166SOL     OW23344   3.185   1.695   2.412 -0.0176  0.0685  0.1430
 6166SOL    HW123345   3.154   1.618   2.365  1.4267 -0.4994  0.0730
 6166SOL    HW223346   3.157   1.682   2.502  2.0027 -1.6002  0.5878
 6167SOL     OW23347   5.910   2.721   8.898  0.3117  0.3085  0.1446
 6167SOL    HW123348   5.857   2.800   8.888  0.2899  0.0098 -4.0228
 6167SOL    HW223349   5.999   2.750   8.879  0.6761 -0.2509  0.9758
 6168SOL     OW23350   0.516   1.241   6.958 -0.6282 -0.0059  0.3734
 6168SOL    HW123351   0.511   1.331   6.988 -0.2572 -0.1494  0.8872
 6168SOL    HW223352   0.426   1.208   6.962 -1.0480  0.8328 -1.4062
 6169SOL     OW23353   5.416   1.201   5.541  0.5602  0.1655  0.2652
 6169SOL    HW123354   5.381   1.290   5.545  2.4728  0.9615  0.6220
 6169SOL    HW223355   5.356   1.154   5.484 -1.7486  1.0538  1.8089
 6170SOL     OW23356   6.270   3.370   9.396 -0.8121 -0.3565 -0.7896
 6170SOL    HW123357   6.232   3.452   9.426 -1.2958 -1.3103  1.3578
 6170SOL    HW223358   6.356   3.395   9.361 -0.3885  0.9313  1.0384
 6171SOL     OW23359   3.895   8.433   4.915 -0.0124 -0.4567 -0.3986
 6171SOL    HW123360   3.846   8.396   4.989  0.1954  0.0765  0.0143
 6171SOL    HW223361   3.917   8.358   4.861  1.1199 -1.0533  0.8437
 6172SOL     OW23362   4.983   5.105   2.255  0.0337  0.1815 -0.1201
 6172SOL    HW123363   4.944   5.065   2.177  0.0532 -2.4912  1.1485
 6172SOL    HW223364   4.939   5.064   2.329  2.2066  0.2556  1.3232
 6173SOL     OW23365   9.297   1.213   5.936  0.6831 -0.3617  0.4979
 6173SOL    HW123366   9.288   1.217   6.031  2.5946  0.5391  0.6933
 6173SOL    HW223367   9.364   1.146   5.921  0.3975 -0.4952 -0.2173
 6174SOL     OW23368   7.715   1.378   6.772  0.3473  0.3931 -0.4211
 6174SOL    HW123369   7.776   1.305   6.780 -0.2968 -0.4578 -2.5878
 6174SOL    HW223370   7.754   1.448   6.825  2.5607 -0.5070 -0.7642
 6175SOL     OW23371   6.016   9.646   4.036 -0.0756  0.3077 -0.1415
 6175SOL    HW123372   6.100   9.672   4.000  0.7361 -0.8960  0.7846
 6175SOL    HW223373   5.976   9.591   3.968 -0.0421  0.7350 -0.5097
 6176SOL     OW23374   2.948   9.166   6.357  0.1498 -0.6108  0.3041
 6176SOL    HW123375   3.001   9.236   6.394 -1.0064 -0.1789  1.1836
 6176SOL    HW223376   2.997   9.086   6.377  0.0193 -0.3017  1.9472
 6177SOL     OW23377   2.056   6.495   6.218 -0.5054 -0.7845  0.0821
 6177SOL    HW123378   1.977   6.531   6.178  0.7658  0.0721 -1.8196
 6177SOL    HW223379   2.025   6.420   6.269 -2.4615 -0.8438 -1.0954
 6178SOL     OW23380   4.733   4.109   6.410 -0.2760 -0.0511  0.4138
 6178SOL    HW123381   4.704   4.019   6.399 -0.5916 -0.1220  1.6456
 6178SOL    HW223382   4.826   4.102   6.433 -0.2594 -0.0504  0.3470
 6179SOL     OW23383   2.722   1.141   6.347  0.0549  0.2542 -0.4770
 6179SOL    HW123384   2.677   1.094   6.417  0.8069  1.3355  0.7778
 6179SOL    HW223385   2.668   1.218   6.331 -0.6279 -0.4637 -1.8055
 6180SOL     OW23386   7.292   4.404   8.986 -0.2924 -0.4088 -0.2967
 6180SOL    HW123387   7.284   4.345   8.911  0.9293 -1.7340  0.5531
 6180SOL    HW223388   7.355   4.361   9.044 -0.5237  1.0051  1.0898
 6181SOL     OW23389   3.152   9.499   7.069  0.2065 -0.3803  0.2359
 6181SOL    HW123390   3.221   9.559   7.098  0.6456 -1.1842  0.8952
 6181SOL    HW223391   3.176   9.479   6.978  0.1966  0.2299  0.0913
 6182SOL     OW23392   1.606   3.771   1.378 -0.0591 -0.5414  0.4586
 6182SOL    HW123393   1.542   3.840   1.360  1.9566  1.2005 -0.4811
 6182SOL    HW223394   1.625   3.732   1.293 -0.5574 -1.7151  0.8669
 6183SOL     OW23395   3.762   9.224   5.022  0.1153 -0.5339 -0.1790
 6183SOL    HW123396   3.849   9.211   4.985  0.7884  0.2256  1.0676
 6183SOL    HW223397   3.746   9.318   5.014 -0.6159 -0.6821 -0.4555
 6184SOL     OW23398   8.219   9.556   4.251  0.3179 -0.8145 -0.3331
 6184SOL    HW123399   8.152   9.583   4.314  0.2625 -2.2582  0.2617
 6184SOL    HW223400   8.169   9.523   4.176  0.3117 -2.5641  0.4008
 6185SOL     OW23401   7.890   4.580   6.664  0.1935  0.5583 -0.0085
 6185SOL    HW123402   7.970   4.527   6.672 -0.5963 -0.8504 -0.9929
 6185SOL    HW223403   7.852   4.579   6.752  2.2313  2.9609  1.0241
 6186SOL     OW23404   5.709   5.843   2.268 -0.0945 -0.1882 -0.2484
 6186SOL    HW123405   5.694   5.814   2.178  1.1347 -1.4639 -0.0848
 6186SOL    HW223406   5.622   5.848   2.307 -0.5574 -0.8586 -1.1515
 6187SOL     OW23407   6.304   7.036   6.422 -0.0810 -0.1888  0.5435
 6187SOL    HW123408   6.282   6.987   6.501 -0.1139 -0.7166  0.2129
 6187SOL    HW223409   6.345   7.116   6.454 -0.4538 -0.2165  1.1034
 6188SOL     OW23410   2.670   5.033   1.909 -0.0031 -0.0585 -0.1574
 6188SOL    HW123411   2.721   5.025   1.829  1.1377  1.1641  0.4030
 6188SOL    HW223412   2.616   5.110   1.896 -0.0234 -0.0198  0.1379
 6189SOL     OW23413   7.413   0.694   7.969 -0.2563  0.2447  0.2974
 6189SOL    HW123414   7.428   0.719   7.878  0.1230 -2.1057 -0.3611
 6189SOL    HW223415   7.500   0.671   8.002 -0.5071  0.2558  0.9784
 6190SOL     OW23416   4.679   5.544   3.266 -0.1458 -0.1019 -0.1569
 6190SOL    HW123417   4.596   5.567   3.309 -0.5611 -0.2912 -0.8378
 6190SOL    HW223418   4.744   5.601   3.306 -0.8621  1.0670 -0.6319
 6191SOL     OW23419   0.306   2.698   7.834  1.3068 -0.5049 -0.2300
 6191SOL    HW123420   0.279   2.785   7.806  0.8714 -0.4751  0.2641
 6191SOL    HW223421   0.237   2.640   7.802  1.9515 -0.7719 -1.1770
 6192SOL     OW23422   4.850   6.142   0.952 -0.5743  0.5245  0.1755
 6192SOL    HW123423   4.942   6.170   0.952  0.0881 -1.4815  1.0279
 6192SOL    HW223424   4.851   6.057   0.996 -2.1102 -1.8556 -3.8637
 6193SOL     OW23425   7.702   0.362   2.950 -0.2659 -0.1368 -0.1326
 6193SOL    HW123426   7.782   0.312   2.961  1.1387  2.3877  2.6162
 6193SOL    HW223427   7.728   0.436   2.895 -1.3050 -0.3807 -0.9803
 6194SOL     OW23428   7.450   1.249   8.498 -0.8646 -0.2937  0.1696
 6194SOL    HW123429   7.513   1.177   8.506  0.7909  1.1657  0.7692
 6194SOL    HW223430   7.373   1.208   8.460  0.3550 -2.2009 -0.4124
 6195SOL     OW23431   2.020   5.306   9.296 -0.3280 -0.3424 -0.1440
 6195SOL    HW123432   2.055   5.371   9.357 -1.7527  1.1460 -0.8313
 6195SOL    HW223433   2.075   5.229   9.309  1.0615  0.7964  1.1211
 6196SOL     OW23434   2.806   0.457   2.169  0.4042  0.2171  0.4689
 6196SOL    HW123435   2.821   0.415   2.084 -1.1128  1.0708 -0.2577
 6196SOL    HW223436   2.864   0.533   2.169  0.0446  0.4925 -0.0132
 6197SOL     OW23437   7.945   8.180   7.518 -0.0371  0.1964 -0.4576
 6197SOL    HW123438   8.002   8.252   7.544  0.2134  0.3788 -1.4813
 6197SOL    HW223439   7.917   8.202   7.429 -0.8936 -0.3926 -0.3506
 6198SOL     OW23440   7.372   5.827   7.057  0.1066 -0.0552  0.0570
 6198SOL    HW123441   7.456   5.832   7.101  0.1700  0.6702 -0.1314
 6198SOL    HW223442   7.315   5.779   7.118  0.2553  0.7287  0.8326
 6199SOL     OW23443   0.845   9.291   7.956  0.0729 -0.2706 -0.2833
 6199SOL    HW123444   0.783   9.364   7.957 -0.0274 -0.3148  2.0735
 6199SOL    HW223445   0.797   9.219   7.916  0.7129  1.2669 -4.2729
 6200SOL     OW23446   2.462   8.911   5.160 -0.5141 -0.4156  0.1225
 6200SOL    HW123447   2.541   8.933   5.110 -1.0475  0.5881 -0.3220
 6200SOL    HW223448   2.482   8.938   5.249 -0.2951 -0.3140  0.0451
 6201SOL     OW23449   2.362   0.954   8.057  0.1750 -0.1466  0.1204
 6201SOL    HW123450   2.396   0.872   8.020  0.4908  0.7244 -1.6607
 6201SOL    HW223451   2.276   0.931   8.092  0.0855 -1.1703 -0.7188
 6202SOL     OW23452   2.913   3.165   7.564 -0.2382 -0.7259  0.1365
 6202SOL    HW123453   2.883   3.092   7.510 -2.2064 -1.2986  1.8992
 6202SOL    HW223454   2.875   3.243   7.523  1.1588 -0.7087 -1.2438
 6203SOL     OW23455   3.075   6.065   6.613 -0.2063  0.1035  0.5469
 6203SOL    HW123456   2.990   6.106   6.626 -0.1110  0.1072  1.2082
 6203SOL    HW223457   3.066   6.014   6.532 -1.2347 -0.9144  1.2671
 6204SOL     OW23458   0.156   3.416   0.468  0.1714  0.1194  0.2032
 6204SOL    HW123459   0.107   3.408   0.386  2.1258  1.1530 -1.1494
 6204SOL    HW223460   0.209   3.495   0.457  0.2304  0.5030  2.6415
 6205SOL     OW23461   7.061   8.907   5.988  0.1826 -0.0930 -0.2419
 6205SOL    HW123462   7.148   8.938   5.962  0.5275 -0.6958  0.1714
 6205SOL    HW223463   7.018   8.985   6.023 -0.3755  0.8049 -2.6868
 6206SOL     OW23464   3.246   7.065   5.858  0.4609 -0.3023 -0.0977
 6206SOL    HW123465   3.330   7.026   5.883  0.5464 -1.5918 -2.1421
 6206SOL    HW223466   3.249   7.067   5.762 -2.3217 -1.5114 -0.2913
 6207SOL     OW23467   5.105   3.408   9.241 -0.1255 -0.2850 -0.2730
 6207SOL    HW123468   5.119   3.337   9.304  0.8726 -0.2333 -0.4294
 6207SOL    HW223469   5.058   3.475   9.291 -1.4029 -1.1849 -0.2211
 6208SOL     OW23470   3.756   5.448   8.263  0.5028  0.4041  0.2528
 6208SOL    HW123471   3.704   5.490   8.194 -0.0886  0.8247  0.9459
 6208SOL    HW223472   3.821   5.396   8.215  1.0839  1.8813 -0.6523
 6209SOL     OW23473   1.605   3.251   0.338  0.1490  0.4339  0.1176
 6209SOL    HW123474   1.684   3.202   0.314  0.9401 -0.3133  3.6698
 6209SOL    HW223475   1.631   3.304   0.414 -2.4058  1.2388  0.5417
 6210SOL     OW23476   5.663   4.433   6.634 -0.3413  0.9458 -0.2323
 6210SOL    HW123477   5.659   4.476   6.549 -1.2221 -0.8157 -1.1415
 6210SOL    HW223478   5.666   4.340   6.614  3.4759  0.4896  1.5841
 6211SOL     OW23479   2.014   9.703   0.059  0.2039 -0.7240 -0.0259
 6211SOL    HW123480   1.932   9.749   0.077 -0.2283 -1.2875 -0.4738
 6211SOL    HW223481   2.072   9.726   0.132 -0.3020 -0.2014  0.2182
 6212SOL     OW23482   7.149   6.842   1.639  0.4532 -0.1930  0.6483
 6212SOL    HW123483   7.109   6.905   1.698  1.3595 -0.5176  1.6339
 6212SOL    HW223484   7.145   6.759   1.686 -0.8557 -0.9419 -0.6895
 6213SOL     OW23485   6.865   7.557   6.980  0.4891 -0.3091 -0.1274
 6213SOL    HW123486   6.771   7.544   6.986  0.2350  1.3714  0.1143
 6213SOL    HW223487   6.883   7.630   7.040  2.3327 -2.1380  1.7041
 6214SOL     OW23488   7.058   7.412   4.193 -0.1260 -0.1398 -0.4364
 6214SOL    HW123489   7.079   7.397   4.101 -1.5997 -1.2275 -0.6365
 6214SOL    HW223490   6.970   7.376   4.204  0.9169 -2.3117  1.9837
 6215SOL     OW23491   8.492   4.837   9.538 -0.5615  0.2641 -0.1681
 6215SOL    HW123492   8.580   4.872   9.522 -0.4997  0.6797  1.0019
 6215SOL    HW223493   8.439   4.873   9.466  0.5405 -1.3629 -1.8672
 6216SOL     OW23494   9.162   7.569   3.809  0.2301 -0.0595  0.6200
 6216SOL    HW123495   9.164   7.477   3.782 -0.7830 -0.4581  1.8301
 6216SOL    HW223496   9.218   7.614   3.745  1.4865 -1.6503  0.5566
 6217SOL     OW23497   2.279   2.453   5.848 -0.3494  0.1683  0.4656
 6217SOL    HW123498   2.208   2.410   5.895 -0.1648  0.4378  0.9927
 6217SOL    HW223499   2.326   2.502   5.915  1.7359 -1.8413  0.6223
 6218SOL     OW23500   4.598   5.997   9.033 -0.1376  0.3610  0.1617
 6218SOL    HW123501   4.539   6.073   9.035 -0.7355 -0.0969  0.2445
 6218SOL    HW223502   4.637   6.000   8.945  0.4206  1.1834  0.4219
 6219SOL     OW23503   6.350   4.839   7.018 -0.0160  0.2019  0.4458
 6219SOL    HW123504   6.414   4.768   7.016 -0.6128 -0.3194 -0.5085
 6219SOL    HW223505   6.266   4.795   7.027 -0.2961  0.8616  1.1750
 6220SOL     OW23506   8.537   9.230   5.549  0.3743  0.0413  0.2725
 6220SOL    HW123507   8.473   9.296   5.573 -0.5968 -1.0672  0.8175
 6220SOL    HW223508   8.614   9.280   5.521  0.5742  1.3974  2.9986
 6221SOL     OW23509   3.481   9.708   1.922  0.5935 -0.4429  0.2877
 6221SOL    HW123510   3.502   9.630   1.871 -0.4819 -0.1627 -0.5989
 6221SOL    HW223511   3.411   9.680   1.981  0.0069 -0.0919 -0.2297
 6222SOL     OW23512   5.510   8.823   4.739  0.4642 -0.3531 -0.7125
 6222SOL    HW123513   5.601   8.848   4.756  0.0417 -0.3927  2.0783
 6222SOL    HW223514   5.458   8.895   4.776 -0.6632 -0.9196 -1.1393
 6223SOL     OW23515   7.260   9.302   8.796 -0.0861  0.2163 -0.0390
 6223SOL    HW123516   7.347   9.318   8.757  0.4456 -0.5119  0.8253
 6223SOL    HW223517   7.233   9.388   8.828 -0.1105  0.6394 -1.1410
 6224SOL     OW23518   2.938   0.228   1.247  0.0798 -0.1875 -0.3996
 6224SOL    HW123519   2.869   0.213   1.183 -0.0704 -3.7242  0.3812
 6224SOL    HW223520   3.013   0.258   1.196 -0.7309 -0.6445 -1.8895
 6225SOL     OW23521   1.654   9.021   1.600 -0.5248  0.3182  0.1245
 6225SOL    HW123522   1.691   8.966   1.531  1.2088 -0.5537  1.6345
 6225SOL    HW223523   1.561   9.002   1.599 -0.4829  0.0606 -1.7094
 6226SOL     OW23524   5.631   3.906   6.290 -0.3794 -0.3193 -0.4910
 6226SOL    HW123525   5.643   3.876   6.200  0.8894 -2.9460  0.4581
 6226SOL    HW223526   5.558   3.855   6.323 -0.5178  0.2647  0.1369
 6227SOL     OW23527   7.212   5.685   6.374 -0.1643  0.5258 -0.0306
 6227SOL    HW123528   7.207   5.728   6.289  1.1430 -0.5002 -0.6735
 6227SOL    HW223529   7.125   5.695   6.412 -0.4410  1.9776 -0.9952
 6228SOL     OW23530   7.521   9.079   1.464  0.2882  0.1496  0.2643
 6228SOL    HW123531   7.439   9.036   1.487  1.1156 -1.8400 -0.2549
 6228SOL    HW223532   7.508   9.109   1.374  0.1145 -0.1466  0.1881
 6229SOL     OW23533   7.358   1.993   3.355 -0.4642  0.7693  0.7803
 6229SOL    HW123534   7.351   2.069   3.297 -1.3632  0.7340  0.8299
 6229SOL    HW223535   7.282   1.939   3.334 -0.7014  0.6593  1.8504
 6230SOL     OW23536   7.279   6.214   4.257  0.4566  0.2637 -0.0129
 6230SOL    HW123537   7.247   6.175   4.338  0.1421  0.5019 -0.0215
 6230SOL    HW223538   7.367   6.178   4.246  0.5056  0.2430  0.4412
 6231SOL     OW23539   1.157   6.651   0.986  0.0145  0.1430  0.8298
 6231SOL    HW123540   1.091   6.620   0.924 -0.4633 -0.2877  1.5361
 6231SOL    HW223541   1.107   6.697   1.054  0.7326  3.0136 -0.4404
 6232SOL     OW23542   2.629   6.784   0.637  0.4360  0.1514  0.1629
 6232SOL    HW123543   2.643   6.693   0.611 -1.7270 -0.4189  0.7826
 6232SOL    HW223544   2.546   6.808   0.597  1.2994  2.1284 -0.5631
 6233SOL     OW23545   4.533   7.349   5.944 -0.3002 -0.3149 -0.4682
 6233SOL    HW123546   4.609   7.303   5.909 -0.5179 -0.3796 -0.8702
 6233SOL    HW223547   4.469   7.347   5.872 -0.8530 -0.6689  0.0249
 6234SOL     OW23548   0.283   2.151   7.336 -0.6159 -0.1238  0.4304
 6234SOL    HW123549   0.263   2.244   7.324 -0.3205 -0.2405 -1.2332
 6234SOL    HW223550   0.197   2.108   7.334 -0.6330 -0.0665 -0.8907
 6235SOL     OW23551   3.920   0.521   0.276 -0.3530 -0.2709 -0.5131
 6235SOL    HW123552   4.005   0.558   0.251 -0.1932  0.2607  0.7229
 6235SOL    HW223553   3.856   0.576   0.230 -0.0380 -0.9217 -1.7658
 6236SOL     OW23554   3.143   6.674   1.767 -0.1018  0.0386 -0.4927
 6236SOL    HW123555   3.186   6.659   1.851 -3.0173 -1.3941  0.9116
 6236SOL    HW223556   3.205   6.642   1.701  1.3956 -0.8253  1.2728
 6237SOL     OW23557   8.901   5.576   4.814 -0.5997  0.0527  0.2433
 6237SOL    HW123558   8.929   5.578   4.722 -0.8553 -1.8285  0.0947
 6237SOL    HW223559   8.983   5.581   4.864 -0.2551 -1.2809 -0.1441
 6238SOL     OW23560   4.024   2.188   0.280 -0.0126 -0.0741  0.2118
 6238SOL    HW123561   3.991   2.168   0.367 -0.6080  0.5090  0.1269
 6238SOL    HW223562   4.032   2.284   0.278 -2.9315  0.2444 -1.3703
 6239SOL     OW23563   9.078   2.487   3.099 -0.1713  0.5163 -0.2373
 6239SOL    HW123564   9.009   2.478   3.165 -1.3436  0.2332 -1.4796
 6239SOL    HW223565   9.159   2.485   3.150 -1.0347  0.1356  1.1848
 6240SOL     OW23566   3.911   0.665   4.308  0.2319 -0.2956 -0.0125
 6240SOL    HW123567   3.965   0.635   4.382  0.9813  2.2332  0.5600
 6240SOL    HW223568   3.825   0.680   4.346  1.0055  2.5248  0.8313
 6241SOL     OW23569   3.028   7.716   5.221 -0.6504 -0.1892  0.6192
 6241SOL    HW123570   3.024   7.767   5.301 -0.3076  0.4946  0.2076
 6241SOL    HW223571   3.073   7.773   5.158  0.1110 -1.1448  0.2694
 6242SOL     OW23572   9.237   4.215   5.527  0.0654 -0.5399 -0.1311
 6242SOL    HW123573   9.171   4.153   5.556 -0.1634 -1.2990 -2.0964
 6242SOL    HW223574   9.198   4.259   5.452  0.8084  0.9263  0.2845
 6243SOL     OW23575   2.276   1.401   2.896  0.0740 -0.1942 -0.5560
 6243SOL    HW123576   2.336   1.329   2.877 -0.0549 -0.2753 -0.6554
 6243SOL    HW223577   2.249   1.433   2.810 -0.2898 -0.3772 -0.5104
 6244SOL     OW23578   6.980   5.960   7.493 -0.4535  0.0242 -0.5564
 6244SOL    HW123579   6.887   5.953   7.472 -0.1961 -3.3951 -1.1511
 6244SOL    HW223580   6.983   5.966   7.589 -1.3126  0.0623 -0.5283
 6245SOL     OW23581   9.129   9.311   8.247 -0.1906  0.1739 -0.5136
 6245SOL    HW123582   9.134   9.266   8.332 -0.0782  0.0580 -0.5813
 6245SOL    HW223583   9.108   9.402   8.269  0.5689  0.3092 -0.3148
 6246SOL     OW23584   5.372   1.830   5.737 -0.5062  0.0801  0.0118
 6246SOL    HW123585   5.370   1.860   5.829 -2.0628 -0.9193  0.3367
 6246SOL    HW223586   5.285   1.794   5.722  0.4044 -1.7157 -1.2268
 6247SOL     OW23587   1.466   5.245   7.964 -0.1754 -0.2298 -0.4763
 6247SOL    HW123588   1.482   5.151   7.962 -0.5369 -0.2834 -0.8318
 6247SOL    HW223589   1.402   5.260   7.895  0.6601  0.4198 -1.1358
 6248SOL     OW23590   2.146   2.259   3.921  0.4149 -0.3601 -0.1862
 6248SOL    HW123591   2.241   2.264   3.932  0.5015 -1.4022 -0.2828
 6248SOL    HW223592   2.111   2.301   3.998  0.9340  1.2994 -0.8185
 6249SOL     OW23593   3.167   3.467   4.796 -0.3219 -0.0518  0.3108
 6249SOL    HW123594   3.256   3.451   4.827 -0.3626  0.9806  1.0138
 6249SOL    HW223595   3.111   3.429   4.863 -0.4355 -0.7864 -0.1775
 6250SOL     OW23596   1.362   9.657   9.098  0.4187  0.2484 -0.3336
 6250SOL    HW123597   1.391   9.567   9.085 -1.5219 -0.3532 -0.8355
 6250SOL    HW223598   1.267   9.654   9.087  0.0074  1.9549  2.0054
 6251SOL     OW23599   4.634   3.385   5.906  0.3941 -0.4993 -0.0109
 6251SOL    HW123600   4.648   3.294   5.880  1.0790  0.3755 -3.0829
 6251SOL    HW223601   4.618   3.431   5.824 -1.0902  1.9994  1.5465
 6252SOL     OW23602   2.991   9.678   6.745  0.3066  0.2811  0.4777
 6252SOL    HW123603   3.006   9.736   6.670  1.5726 -0.6005  0.0153
 6252SOL    HW223604   2.951   9.600   6.707  1.0920 -0.2319  0.6628
 6253SOL     OW23605   7.117   4.015   7.541 -0.1750 -0.3587  0.1932
 6253SOL    HW123606   7.044   4.017   7.478 -0.0626 -0.0015  0.0681
 6253SOL    HW223607   7.075   4.017   7.627 -0.3078  0.0632  0.1193
 6254SOL     OW23608   4.098   0.051   2.716  0.5963 -0.6279  0.0551
 6254SOL    HW123609   4.049   0.127   2.687  2.0892 -0.0665 -1.1350
 6254SOL    HW223610   4.073   0.039   2.808 -0.1316  0.9023  0.0774
 6255SOL     OW23611   8.954   5.844   7.828 -0.2657  0.3544 -0.0150
 6255SOL    HW123612   8.942   5.777   7.760 -3.2935 -0.2952  1.0150
 6255SOL    HW223613   9.013   5.802   7.891 -1.1745 -0.9350  0.0309
 6256SOL     OW23614   1.044   9.529   1.415 -0.2794  0.2000 -0.5868
 6256SOL    HW123615   0.962   9.499   1.376 -1.0156  0.1014  0.9847
 6256SOL    HW223616   1.096   9.449   1.425 -1.4293 -0.3635  1.6738
 6257SOL     OW23617   2.640   0.562   9.715 -0.2924 -0.4126  0.1318
 6257SOL    HW123618   2.631   0.487   9.774 -0.5927 -0.5605 -0.0993
 6257SOL    HW223619   2.603   0.532   9.632 -1.4020  0.3423  0.3341
 6258SOL     OW23620   7.594   7.724   1.766  0.8623  0.0586  0.1373
 6258SOL    HW123621   7.602   7.764   1.680 -0.1029 -0.4981 -0.2249
 6258SOL    HW223622   7.684   7.716   1.797  1.3481 -0.9656 -1.3942
 6259SOL     OW23623   2.471   1.973   7.700  0.0094  0.4369 -0.0432
 6259SOL    HW123624   2.484   1.915   7.775 -0.2072  0.9727  0.4112
 6259SOL    HW223625   2.546   2.031   7.700 -0.5864  1.2269  0.4875
 6260SOL     OW23626   7.650   9.042   1.763 -0.0798  0.1898 -0.0513
 6260SOL    HW123627   7.728   8.989   1.781  0.9657  1.4515 -0.7129
 6260SOL    HW223628   7.595   8.986   1.708  0.3181 -0.7518  0.4944
 6261SOL     OW23629   3.295   4.586   0.291 -0.1673 -0.2628 -0.1818
 6261SOL    HW123630   3.376   4.618   0.252 -0.3871  0.4354 -0.0794
 6261SOL    HW223631   3.229   4.597   0.222 -0.1081 -1.1447 -0.3805
 6262SOL     OW23632   1.062   9.393   7.445  0.3812 -0.0005 -0.1478
 6262SOL    HW123633   1.156   9.377   7.438  0.1728 -1.3749 -0.1124
 6262SOL    HW223634   1.022   9.332   7.383 -0.4403  1.6772 -1.3680
 6263SOL     OW23635   4.710   9.351   1.528 -0.1203 -0.2403 -0.1810
 6263SOL    HW123636   4.644   9.396   1.475  1.4347  0.2288 -1.8194
 6263SOL    HW223637   4.673   9.264   1.545 -0.3173 -0.7485 -2.8555
 6264SOL     OW23638   7.254   6.879   0.450  0.3671 -0.1905  0.0201
 6264SOL    HW123639   7.241   6.786   0.434  1.4748 -0.7556  2.1113
 6264SOL    HW223640   7.166   6.917   0.448  0.0226 -0.9494 -2.3597
 6265SOL     OW23641   9.296   9.022   9.156 -0.1406  0.2815 -0.3359
 6265SOL    HW123642   9.247   9.065   9.227  0.9071  0.2032  0.4644
 6265SOL    HW223643   9.383   9.008   9.193  0.3318 -0.0586 -1.5433
 6266SOL     OW23644   8.527   6.623   9.261  0.0481  0.0094  0.7668
 6266SOL    HW123645   8.595   6.657   9.204  0.0523 -0.3752  0.5396
 6266SOL    HW223646   8.539   6.670   9.344  1.9067 -1.4911  1.4225
 6267SOL     OW23647   0.100   6.231   0.250 -0.2998 -0.0438  0.0221
 6267SOL    HW123648   0.058   6.216   0.166  2.9267  0.7354 -1.9146
 6267SOL    HW223649   0.138   6.319   0.243 -1.0146  0.6179  2.8621
 6268SOL     OW23650   1.978   0.516   0.352  0.0350 -0.2305  0.0260
 6268SOL    HW123651   1.974   0.423   0.374  0.3654  0.0335  1.2675
 6268SOL    HW223652   2.014   0.557   0.430  0.3046  0.8912 -0.6756
 6269SOL     OW23653   7.439   7.385   6.322  0.0346  0.1775  0.3878
 6269SOL    HW123654   7.393   7.387   6.406 -0.4200 -1.5955  0.2284
 6269SOL    HW223655   7.512   7.324   6.336  0.6557  0.7653 -0.1907
 6270SOL     OW23656   5.838   4.284   4.664  0.4477 -0.2981  0.0951
 6270SOL    HW123657   5.859   4.301   4.755  2.5868 -2.7153  0.1635
 6270SOL    HW223658   5.872   4.360   4.616 -0.3173  0.7840  1.2136
 6271SOL     OW23659   7.444   6.436   1.060  0.4240 -0.1607 -0.4936
 6271SOL    HW123660   7.360   6.391   1.044  0.7273 -0.5979 -0.8988
 6271SOL    HW223661   7.496   6.372   1.109 -0.0128  0.6713  1.1026
 6272SOL     OW23662   9.418   8.207   6.129 -0.1334 -0.0984 -0.4567
 6272SOL    HW123663   9.409   8.122   6.087  2.3298 -0.7606  0.1624
 6272SOL    HW223664   9.453   8.264   6.060 -3.7430  1.1285 -1.4984
 6273SOL     OW23665   5.910   7.965   6.605  0.1817 -0.2787 -0.0945
 6273SOL    HW123666   6.005   7.971   6.605  0.1442  1.2790 -2.3796
 6273SOL    HW223667   5.882   8.024   6.675  0.8677  0.2793 -0.2867
 6274SOL     OW23668   6.464   5.962   9.295 -0.0619 -0.1825 -0.1943
 6274SOL    HW123669   6.437   6.050   9.270 -1.6546 -0.4628  0.4650
 6274SOL    HW223670   6.488   5.970   9.388  0.4788 -0.3091 -0.3173
 6275SOL     OW23671   7.940   6.057   7.019 -0.1065 -0.4079 -0.4695
 6275SOL    HW123672   8.005   5.987   7.025 -0.6151 -0.7979  0.8043
 6275SOL    HW223673   7.879   6.028   6.952 -0.2380 -1.1313 -0.0431
 6276SOL     OW23674   0.793   8.196   8.798  0.1477  0.5622  0.9345
 6276SOL    HW123675   0.814   8.103   8.787  2.2713  0.8562  1.9222
 6276SOL    HW223676   0.762   8.224   8.712  2.3797 -0.4093 -0.2789
 6277SOL     OW23677   8.800   0.366   1.638  0.6179  0.2573  0.2565
 6277SOL    HW123678   8.861   0.293   1.642  0.6268  0.2542  0.0865
 6277SOL    HW223679   8.849   0.441   1.671  0.7248  0.2622  0.0865
 6278SOL     OW23680   6.012   8.133   1.200  0.0826 -0.0538  0.0841
 6278SOL    HW123681   5.950   8.061   1.209  0.7992 -1.0471 -2.2010
 6278SOL    HW223682   6.089   8.104   1.248 -0.2646  0.0053  0.6851
 6279SOL     OW23683   6.031   8.265   7.113  0.1226  0.5267 -0.6672
 6279SOL    HW123684   5.974   8.188   7.119  0.7116  0.1992  3.5284
 6279SOL    HW223685   6.097   8.240   7.047  0.4629 -2.7484  0.6988
 6280SOL     OW23686   8.566   1.781   6.325  0.6139 -0.0450  0.4549
 6280SOL    HW123687   8.580   1.729   6.246 -1.9405 -0.6736  0.3128
 6280SOL    HW223688   8.653   1.792   6.363  1.3244 -5.0292  0.8871
 6281SOL     OW23689   1.448   2.653   5.670  0.1952  0.4524 -0.3519
 6281SOL    HW123690   1.534   2.616   5.650 -0.1604 -0.2023 -0.6989
 6281SOL    HW223691   1.398   2.581   5.707  0.0129  1.0098  0.5380
 6282SOL     OW23692   4.491   4.430   4.424 -0.8845  0.6283  0.5943
 6282SOL    HW123693   4.419   4.434   4.487 -2.2702 -0.4282 -0.8590
 6282SOL    HW223694   4.460   4.479   4.348 -0.5334 -0.7465 -0.4770
 6283SOL     OW23695   4.631   4.465   3.276 -0.1126 -0.7126 -0.2514
 6283SOL    HW123696   4.689   4.486   3.350  0.6097 -0.5703 -0.8382
 6283SOL    HW223697   4.602   4.550   3.244 -1.7237 -0.8117  0.8419
 6284SOL     OW23698   6.969   5.215   1.676  0.1717  0.4609  0.1326
 6284SOL    HW123699   6.900   5.255   1.622  0.3858 -0.1404 -0.5952
 6284SOL    HW223700   6.933   5.218   1.765 -0.7467  0.2798 -0.2157
 6285SOL     OW23701   6.197   4.002   2.515  0.4123  0.1308 -0.1064
 6285SOL    HW123702   6.181   4.080   2.568  1.1225  1.1817 -1.3948
 6285SOL    HW223703   6.288   3.978   2.533  0.4427  0.0761 -0.3241
 6286SOL     OW23704   6.645   5.040   5.135 -0.2463  0.7316 -0.1087
 6286SOL    HW123705   6.560   5.084   5.131 -0.7317  0.0272  1.6574
 6286SOL    HW223706   6.669   5.042   5.228  0.8999 -0.5084 -0.3448
 6287SOL     OW23707   7.344   1.178   1.229  0.0619  0.2494  0.6138
 6287SOL    HW123708   7.364   1.085   1.222 -0.6750  0.0568  1.0154
 6287SOL    HW223709   7.414   1.212   1.285  0.9502  0.1602 -0.3963
 6288SOL     OW23710   3.654   4.698   6.926 -0.1901  0.1693 -0.4802
 6288SOL    HW123711   3.698   4.773   6.967 -0.6127  0.4605 -0.5551
 6288SOL    HW223712   3.562   4.724   6.922 -0.9325 -1.6359  2.4422
 6289SOL     OW23713   4.225   0.709   5.637 -0.1785  0.0150 -0.3062
 6289SOL    HW123714   4.313   0.710   5.673 -0.3125 -3.6144  0.4974
 6289SOL    HW223715   4.174   0.766   5.695  1.5214  1.9950 -0.6639
 6290SOL     OW23716   0.418   4.683   2.805 -0.3685  0.1797 -0.1898
 6290SOL    HW123717   0.363   4.713   2.877 -1.5366 -1.1110 -0.5031
 6290SOL    HW223718   0.505   4.672   2.844 -0.2598  2.3218  0.2930
 6291SOL     OW23719   3.176   4.858   3.435 -1.1159 -0.0576  0.4743
 6291SOL    HW123720   3.173   4.922   3.506 -0.2222  0.7395 -0.1868
 6291SOL    HW223721   3.148   4.907   3.357 -0.3437 -0.4402 -0.0570
 6292SOL     OW23722   7.905   2.801   9.149 -0.1804 -0.3112  0.0726
 6292SOL    HW123723   7.946   2.882   9.177  0.8759 -1.4364  1.9664
 6292SOL    HW223724   7.868   2.821   9.063  2.7524  1.3190 -0.9364
 6293SOL     OW23725   8.332   3.012   5.990 -0.4282  0.0641  0.2777
 6293SOL    HW123726   8.285   3.048   6.065 -0.4679 -1.8334  1.2177
 6293SOL    HW223727   8.417   2.985   6.025 -0.8739 -1.8970 -0.0416
 6294SOL     OW23728   0.914   2.553   3.489 -0.2102 -0.2992  0.1617
 6294SOL    HW123729   1.000   2.512   3.481 -0.6081 -1.0455 -0.4866
 6294SOL    HW223730   0.877   2.517   3.569  0.5659  0.9914  1.1385
 6295SOL     OW23731   6.772   4.127   3.926 -0.3858 -0.4125  0.0675
 6295SOL    HW123732   6.684   4.165   3.929 -0.0640  0.3346  2.9065
 6295SOL    HW223733   6.829   4.201   3.902 -0.2552 -0.1439  1.1405
 6296SOL     OW23734   8.645   7.218   7.451 -0.1385 -0.1310  0.4171
 6296SOL    HW123735   8.672   7.283   7.516 -0.3148  1.3142 -0.8859
 6296SOL    HW223736   8.726   7.181   7.418 -0.0149 -0.2440  0.8450
 6297SOL     OW23737   5.856   0.418   4.212  0.2691  0.2717  0.2160
 6297SOL    HW123738   5.880   0.466   4.290  2.2207  0.3827 -0.3934
 6297SOL    HW223739   5.895   0.331   4.224  0.3594  0.2045 -0.5062
 6298SOL     OW23740   7.023   7.493   4.757 -0.0481 -0.6754 -0.7150
 6298SOL    HW123741   7.015   7.433   4.830 -0.8091 -3.6130 -3.0239
 6298SOL    HW223742   7.118   7.498   4.740  0.3123  1.4164  1.3863
 6299SOL     OW23743   3.497   3.526   5.149  0.7217 -0.1651 -0.1535
 6299SOL    HW123744   3.507   3.590   5.219 -0.2680  1.8031 -1.7202
 6299SOL    HW223745   3.521   3.442   5.190 -1.7389  0.5265  3.1106
 6300SOL     OW23746   1.006   2.239   0.005 -0.8717 -0.1824  0.2872
 6300SOL    HW123747   0.995   2.273  -0.084 -0.3237  1.6774  0.8743
 6300SOL    HW223748   1.063   2.163  -0.005 -3.6133 -2.2100 -1.3071
 6301SOL     OW23749   2.017   9.131   9.008 -0.5119 -0.1049 -0.0636
 6301SOL    HW123750   2.090   9.146   9.067  0.4251  0.8922 -1.4106
 6301SOL    HW223751   2.034   9.045   8.970 -1.1409 -0.7664  1.1141
 6302SOL     OW23752   5.814   0.435   8.256 -0.9952  0.0717  0.2079
 6302SOL    HW123753   5.864   0.354   8.244 -0.9794 -0.0261  0.8585
 6302SOL    HW223754   5.877   0.498   8.290 -0.9897  0.3880 -0.3801
 6303SOL     OW23755   4.178   9.517   3.615 -0.5308 -0.4806 -0.4812
 6303SOL    HW123756   4.119   9.531   3.541 -0.1089 -0.3706 -0.8034
 6303SOL    HW223757   4.150   9.434   3.653 -1.0258 -0.3262 -0.5015
 6304SOL     OW23758   1.994   8.477   6.781  0.0250 -0.0582 -0.2565
 6304SOL    HW123759   2.084   8.445   6.782  0.7508  1.8303  0.6026
 6304SOL    HW223760   1.989   8.533   6.704  0.1842  1.2873  0.6726
 6305SOL     OW23761   7.366   0.782   5.233  0.7352 -0.6182 -0.3573
 6305SOL    HW123762   7.397   0.788   5.323  1.5399 -0.7140 -0.6254
 6305SOL    HW223763   7.323   0.697   5.228  0.9284 -0.7297 -0.1384
 6306SOL     OW23764   8.446   1.222   3.909 -0.1478  0.0600 -0.1543
 6306SOL    HW123765   8.514   1.155   3.918  0.5070  0.5126 -1.4398
 6306SOL    HW223766   8.455   1.276   3.987 -0.9393 -1.5346  1.1070
 6307SOL     OW23767   9.231   3.950   9.590  0.2305  0.2197  0.8124
 6307SOL    HW123768   9.271   3.881   9.536 -0.1630  1.7870 -1.6320
 6307SOL    HW223769   9.192   4.010   9.527 -1.9008  1.2357  2.9604
 6308SOL     OW23770   6.921   1.045   6.740  0.7586  0.3549 -0.8299
 6308SOL    HW123771   6.892   1.134   6.762 -3.1100 -1.0020  0.3330
 6308SOL    HW223772   6.944   1.005   6.823  0.5564 -0.3158 -1.0871
 6309SOL     OW23773   0.684   7.967   2.001  0.0953 -0.3744  0.5086
 6309SOL    HW123774   0.589   7.979   2.007 -0.2343 -2.6778  0.6807
 6309SOL    HW223775   0.697   7.923   1.917  1.2496  1.5766 -0.4026
 6310SOL     OW23776   2.887   5.143   6.462  0.3625  0.0329 -0.3930
 6310SOL    HW123777   2.906   5.167   6.553  0.4256  0.6331 -0.5622
 6310SOL    HW223778   2.873   5.227   6.417 -0.9729 -0.3102 -0.6577
 6311SOL     OW23779   6.385   0.394   3.259 -0.1824  0.1425 -0.0091
 6311SOL    HW123780   6.393   0.368   3.351 -1.3548  1.4457  0.5003
 6311SOL    HW223781   6.474   0.389   3.225  0.5661  1.1453  1.6485
 6312SOL     OW23782   6.060   4.139   3.498  0.5908 -0.0594  0.4755
 6312SOL    HW123783   6.119   4.066   3.478  1.0062  0.5397 -0.5670
 6312SOL    HW223784   5.978   4.096   3.525  0.9342 -0.9150  0.2029
 6313SOL     OW23785   6.129   7.241   5.078  0.2333  0.3545 -0.0271
 6313SOL    HW123786   6.220   7.260   5.103 -0.3853  0.1940  2.6562
 6313SOL    HW223787   6.134   7.154   5.039  1.3566  0.7843 -0.9112
 6314SOL     OW23788   7.572   2.898   8.429 -0.1503  1.0242 -0.0986
 6314SOL    HW123789   7.519   2.936   8.499  0.8749 -1.1071  2.0047
 6314SOL    HW223790   7.645   2.856   8.475  0.6360 -0.4013 -2.4772
 6315SOL     OW23791   7.841   8.490   7.887  0.0525 -0.1285  0.5400
 6315SOL    HW123792   7.810   8.427   7.952 -0.4885  0.1799  0.5788
 6315SOL    HW223793   7.926   8.518   7.920  0.4730 -1.1103  0.3407
 6316SOL     OW23794   4.685   2.196   9.003 -0.5627  0.1513  0.3625
 6316SOL    HW123795   4.679   2.291   9.015 -1.7062  0.3394 -1.4419
 6316SOL    HW223796   4.616   2.161   9.059  0.7715  0.2058  2.1677
 6317SOL     OW23797   7.188   8.989   2.812 -0.3903 -0.5634 -0.0016
 6317SOL    HW123798   7.167   8.903   2.847 -0.6394 -0.0278  1.2358
 6317SOL    HW223799   7.104   9.037   2.814 -0.3060 -0.3591 -0.8952
 6318SOL     OW23800   1.357   6.419   2.250  0.0550  0.2169  0.0210
 6318SOL    HW123801   1.280   6.363   2.254  0.1125 -0.0209 -1.7287
 6318SOL    HW223802   1.340   6.479   2.178  1.9252 -0.5152 -1.0942
 6319SOL     OW23803   2.019   5.888   9.467 -0.0382  0.7140 -0.0500
 6319SOL    HW123804   1.947   5.857   9.522  1.3115  0.7246  1.8413
 6319SOL    HW223805   1.996   5.978   9.445 -1.1776  0.3164 -0.5335
 6320SOL     OW23806   4.389   3.511   0.298  0.8738  0.4584  0.3948
 6320SOL    HW123807   4.452   3.463   0.351  1.0884 -0.4316 -0.6223
 6320SOL    HW223808   4.441   3.550   0.228  0.4836  0.9068  0.3429
 6321SOL     OW23809   1.169   5.932   9.306  0.5317 -0.0024  0.1708
 6321SOL    HW123810   1.156   5.870   9.234 -0.3207  2.5539 -2.0674
 6321SOL    HW223811   1.104   5.907   9.371 -2.5014  0.6754 -2.3245
 6322SOL     OW23812   5.763   7.790   4.514  0.2868 -0.4749  0.4284
 6322SOL    HW123813   5.743   7.747   4.431  0.8347 -1.1665  0.6428
 6322SOL    HW223814   5.774   7.882   4.491 -2.5248 -0.1105  0.2111
 6323SOL     OW23815   6.504   2.583   0.151 -0.1219 -0.3711  0.9905
 6323SOL    HW123816   6.584   2.619   0.189  0.9742 -2.5212  0.8864
 6323SOL    HW223817   6.518   2.588   0.057 -0.5107  0.0503  0.9513
 6324SOL     OW23818   3.802   7.460   0.152 -0.4814 -0.4215 -0.2914
 6324SOL    HW123819   3.767   7.422   0.071 -1.3932  2.3652 -1.3318
 6324SOL    HW223820   3.813   7.553   0.132 -0.0232  0.2458  2.5939
 6325SOL     OW23821   3.245   8.424   6.874 -0.4147  0.4967 -0.0995
 6325SOL    HW123822   3.300   8.490   6.832  1.1303 -0.4456  0.3641
 6325SOL    HW223823   3.156   8.457   6.864  0.1607  1.7221 -1.5078
 6326SOL     OW23824   5.140   1.584   0.365  0.2262  0.4693 -0.7165
 6326SOL    HW123825   5.084   1.614   0.437  1.6947  2.2419 -0.2504
 6326SOL    HW223826   5.116   1.640   0.291 -0.5933 -0.6964 -1.3651
 6327SOL     OW23827   8.236   0.396   4.709  0.5109 -0.0545 -0.6512
 6327SOL    HW123828   8.145   0.368   4.714  0.9603 -1.3910  1.0364
 6327SOL    HW223829   8.233   0.489   4.732 -0.4450 -0.0434 -0.7689
 6328SOL     OW23830   3.586   5.522   7.413 -0.6087  0.0452  0.1563
 6328SOL    HW123831   3.535   5.494   7.488  0.5550 -0.5220  0.7643
 6328SOL    HW223832   3.564   5.459   7.344  2.0761 -2.7065  1.5403
 6329SOL     OW23833   2.929   2.556   4.858  0.4744  0.1922 -0.3993
 6329SOL    HW123834   2.907   2.465   4.876 -2.4982  1.2729  2.4635
 6329SOL    HW223835   3.021   2.565   4.884  0.8746 -1.9681 -0.9313
 6330SOL     OW23836   0.335   3.892   0.095  0.1604 -0.1451  0.0907
 6330SOL    HW123837   0.255   3.908   0.144  1.2157  2.3785  1.1463
 6330SOL    HW223838   0.326   3.943   0.015  0.7954  0.3811  0.3415
 6331SOL     OW23839   5.752   5.033   3.756 -0.0517 -0.1762  0.2471
 6331SOL    HW123840   5.784   5.098   3.693 -1.5174  1.5111  1.1308
 6331SOL    HW223841   5.830   5.003   3.802  0.7148  0.6221 -0.5030
 6332SOL     OW23842   1.677   8.108   5.863  0.1381  0.2797  0.0309
 6332SOL    HW123843   1.606   8.051   5.890 -1.8101  2.4187 -0.2621
 6332SOL    HW223844   1.757   8.063   5.892 -1.3922 -1.3348  2.0249
 6333SOL     OW23845   6.866   8.605   6.532 -0.2126 -0.7911  0.5482
 6333SOL    HW123846   6.911   8.568   6.608 -0.3653 -1.0105  0.5320
 6333SOL    HW223847   6.880   8.699   6.540  0.0305 -0.8372  0.6833
 6334SOL     OW23848   2.743   6.410   9.435  0.2707 -0.7521 -0.2494
 6334SOL    HW123849   2.669   6.350   9.425 -0.1354 -0.9206  2.7995
 6334SOL    HW223850   2.787   6.381   9.515  0.6415  2.3536  0.8269
 6335SOL     OW23851   6.619   1.046   0.571 -0.0868 -0.1937 -0.0419
 6335SOL    HW123852   6.528   1.072   0.585 -0.5855 -1.1982 -1.1781
 6335SOL    HW223853   6.661   1.124   0.535 -0.3221  0.4775  1.1095
 6336SOL     OW23854   7.562   0.056   8.646  0.1371 -0.1763 -0.1654
 6336SOL    HW123855   7.642   0.081   8.692  0.7505 -2.2016 -0.0366
 6336SOL    HW223856   7.581  -0.031   8.610 -1.8264 -0.4954 -0.5590
 6337SOL     OW23857   6.190   2.602   2.386  0.0894  0.0980 -0.1607
 6337SOL    HW123858   6.148   2.517   2.374  0.3325 -0.1816  0.8869
 6337SOL    HW223859   6.146   2.640   2.462  1.6809 -0.2016  0.9753
 6338SOL     OW23860   1.630   5.446   3.804 -0.0046  0.4078 -0.4831
 6338SOL    HW123861   1.601   5.533   3.776 -1.4812 -0.1982 -0.9479
 6338SOL    HW223862   1.558   5.413   3.858  0.2108 -0.8090 -0.9092
 6339SOL     OW23863   5.398   3.064   3.611 -0.1221  0.5888  0.1706
 6339SOL    HW123864   5.342   3.099   3.680 -2.3177 -0.5892 -0.9415
 6339SOL    HW223865   5.369   2.974   3.599  1.8553 -0.0029 -0.6663
 6340SOL     OW23866   5.212   9.347   2.158 -0.3554 -0.1310  0.3783
 6340SOL    HW123867   5.221   9.275   2.095  0.8555 -0.9796  1.4764
 6340SOL    HW223868   5.120   9.373   2.151 -0.8641 -1.8729  0.0440
 6341SOL     OW23869   6.840   3.935   8.055 -0.0268  0.6012 -0.3011
 6341SOL    HW123870   6.746   3.949   8.042 -0.5424 -2.4388 -0.5175
 6341SOL    HW223871   6.861   3.859   8.000  2.2013  0.1869  1.0114
 6342SOL     OW23872   9.191   6.242   0.689 -0.3813  0.2364 -0.5557
 6342SOL    HW123873   9.171   6.148   0.693  1.6442 -0.1955  1.8826
 6342SOL    HW223874   9.261   6.249   0.623  1.5970 -0.5144  1.3548
 6343SOL     OW23875   5.866   9.486   3.889 -0.0388 -0.3466 -0.2594
 6343SOL    HW123876   5.785   9.523   3.922 -1.0268 -1.5386 -1.2644
 6343SOL    HW223877   5.842   9.441   3.808  1.8026  0.1158 -1.1308
 6344SOL     OW23878   4.302   9.599   1.221  0.4084  0.6243  0.1123
 6344SOL    HW123879   4.370   9.534   1.241  0.9456  1.2616  0.4229
 6344SOL    HW223880   4.237   9.587   1.289 -0.0193 -0.2773 -0.4264
 6345SOL     OW23881   6.151   4.593   0.207  0.1787 -0.4072  0.4619
 6345SOL    HW123882   6.148   4.673   0.258 -1.2104 -0.7446  0.9510
 6345SOL    HW223883   6.240   4.591   0.171  0.0954  1.5935  0.0134
 6346SOL     OW23884   2.398   5.767   2.516 -0.2424 -0.0069 -0.0486
 6346SOL    HW123885   2.317   5.804   2.482 -0.8533 -1.1228  0.1562
 6346SOL    HW223886   2.416   5.819   2.595 -1.5321 -0.6274  0.6923
 6347SOL     OW23887   8.749   6.459   8.535 -0.1164  0.6806 -0.0561
 6347SOL    HW123888   8.837   6.457   8.572 -0.4137 -0.9151  0.6715
 6347SOL    HW223889   8.762   6.445   8.441  0.4735  1.9635 -0.1868
 6348SOL     OW23890   0.741   0.351   2.257 -0.4541 -0.2225 -0.7250
 6348SOL    HW123891   0.753   0.388   2.170  1.5839  1.5767  0.2280
 6348SOL    HW223892   0.818   0.380   2.306  0.3274 -4.0789  0.7335
 6349SOL     OW23893   2.188   4.719   6.148 -0.5177 -1.1559 -0.7190
 6349SOL    HW123894   2.101   4.753   6.164 -0.7055 -1.4495 -1.0903
 6349SOL    HW223895   2.179   4.667   6.068 -0.7554 -3.9204  0.9913
 6350SOL     OW23896   1.785   7.557   3.211  0.2103 -0.1115  0.3130
 6350SOL    HW123897   1.744   7.579   3.128  0.1639 -1.8728 -0.1825
 6350SOL    HW223898   1.877   7.542   3.190  0.9512  2.6805  1.2108
 6351SOL     OW23899   1.403   3.134   1.129  0.4249  0.0070  0.0673
 6351SOL    HW123900   1.350   3.086   1.193 -0.5614 -0.2485 -0.9119
 6351SOL    HW223901   1.440   3.066   1.072  0.5603  0.2847 -0.1805
 6352SOL     OW23902   3.767   6.456   2.739 -0.1354  0.2926  0.5817
 6352SOL    HW123903   3.842   6.478   2.683 -0.1795 -2.9639 -0.9707
 6352SOL    HW223904   3.696   6.512   2.707  0.2926 -0.2943 -1.5456
 6353SOL     OW23905   9.343   4.586   7.734  0.2070 -0.4842  0.7194
 6353SOL    HW123906   9.407   4.638   7.783 -2.2873  0.9391  2.7251
 6353SOL    HW223907   9.334   4.505   7.785 -1.4770  0.4720  2.0430
 6354SOL     OW23908   4.103   6.016   5.563 -0.4143  0.0418 -0.5305
 6354SOL    HW123909   4.051   5.936   5.558 -0.1867 -0.0805 -0.9812
 6354SOL    HW223910   4.041   6.086   5.540 -0.9731  0.1681  1.2016
 6355SOL     OW23911   7.662   4.828   2.196 -0.0397 -0.2776 -0.0440
 6355SOL    HW123912   7.696   4.901   2.248  1.8684 -0.8961 -0.3492
 6355SOL    HW223913   7.688   4.750   2.244  0.5580 -0.8273 -1.2108
 6356SOL     OW23914   9.465   1.830   8.234 -0.4145  0.1405  0.3152
 6356SOL    HW123915   9.371   1.812   8.243 -0.3503 -0.1968  0.3166
 6356SOL    HW223916   9.470   1.926   8.228 -0.7633  0.1588  0.2613
 6357SOL     OW23917   5.244   7.390   2.699  0.1753 -0.6485 -0.0672
 6357SOL    HW123918   5.277   7.304   2.724 -1.0156 -0.9647  0.5137
 6357SOL    HW223919   5.167   7.403   2.754 -1.9687 -0.8999 -2.7892
 6358SOL     OW23920   7.533   2.534   6.803  0.0629 -0.7894  0.1962
 6358SOL    HW123921   7.597   2.534   6.874 -0.1663 -0.2949  0.4044
 6358SOL    HW223922   7.527   2.442   6.777  2.8648 -0.5810 -1.6706
 6359SOL     OW23923   6.484   4.987   2.443  0.2715  0.4707 -0.3415
 6359SOL    HW123924   6.557   4.970   2.384  0.1811 -0.3442 -0.2205
 6359SOL    HW223925   6.522   4.983   2.530 -0.2522 -1.8745 -0.1696
 6360SOL     OW23926   9.303   5.305   5.236  0.1749  0.7484 -0.3142
 6360SOL    HW123927   9.208   5.312   5.240 -0.0670  0.4473 -3.1675
 6360SOL    HW223928   9.326   5.243   5.306 -1.6639  1.0717  0.6289
 6361SOL     OW23929   2.353   1.841   4.465  0.0663  0.3352 -0.6479
 6361SOL    HW123930   2.299   1.819   4.389 -1.2862  1.3142 -0.0110
 6361SOL    HW223931   2.291   1.847   4.538  1.3571 -0.8108  0.6063
 6362SOL     OW23932   7.819   3.219   5.566  0.1814 -0.4717  0.2599
 6362SOL    HW123933   7.798   3.269   5.487  0.1956 -0.0232  0.5359
 6362SOL    HW223934   7.904   3.252   5.593  0.3127 -0.8351  0.3042
 6363SOL     OW23935   9.697   7.634   7.730  0.6855  0.2112 -0.6557
 6363SOL    HW123936   9.629   7.702   7.735  0.4109 -0.1262  0.3321
 6363SOL    HW223937   9.694   7.605   7.639  0.6657  1.3779 -1.0513
 6364SOL     OW23938   6.773   0.345   7.518  0.6533  0.0259 -0.6647
 6364SOL    HW123939   6.842   0.309   7.462  0.3603 -0.0869 -0.9510
 6364SOL    HW223940   6.817   0.361   7.602  2.2601  4.2180 -2.0444
 6365SOL     OW23941   0.375   5.973   5.317  0.4682 -0.3138  0.6916
 6365SOL    HW123942   0.362   6.037   5.387  0.3081  0.4170  0.0057
 6365SOL    HW223943   0.297   5.917   5.321 -0.4949  0.9363 -0.1531
 6366SOL     OW23944   8.678   4.030   5.340 -0.2315 -0.0583 -0.2825
 6366SOL    HW123945   8.734   4.098   5.301  1.2277 -0.8968  0.3021
 6366SOL    HW223946   8.694   3.952   5.287 -0.6561 -0.3889  0.0667
 6367SOL     OW23947   8.749   1.048   4.188 -0.1868  0.4085 -0.2214
 6367SOL    HW123948   8.704   1.011   4.112  1.5522 -2.1597 -0.1039
 6367SOL    HW223949   8.839   1.062   4.159  0.0109  1.4342  0.7787
 6368SOL     OW23950   1.226   1.712   7.712 -0.4305  0.1786 -0.1371
 6368SOL    HW123951   1.262   1.798   7.732 -0.6785  0.2845 -0.1438
 6368SOL    HW223952   1.246   1.699   7.619 -0.0258  0.0482 -0.0352
 6369SOL     OW23953   2.740   0.644   4.097  0.5172 -0.1606 -0.0721
 6369SOL    HW123954   2.809   0.644   4.031 -0.5896 -0.1102 -1.2594
 6369SOL    HW223955   2.689   0.723   4.079  0.5155  0.1450  1.1930
 6370SOL     OW23956   2.302   4.709   0.552 -0.5258  0.3097  0.1219
 6370SOL    HW123957   2.392   4.698   0.521 -0.8432 -1.4173 -0.2792
 6370SOL    HW223958   2.281   4.625   0.594 -2.1959  0.4056 -0.4755
 6371SOL     OW23959   5.158   7.717   7.921 -0.1453  0.7447 -0.1065
 6371SOL    HW123960   5.209   7.726   8.002  0.4490  0.2927 -0.4176
 6371SOL    HW223961   5.081   7.771   7.935 -0.3274  0.2403  0.9932
 6372SOL     OW23962   8.283   1.998   7.509 -0.4687  0.1269 -0.4727
 6372SOL    HW123963   8.308   1.940   7.437  0.1275 -0.3092  0.0744
 6372SOL    HW223964   8.251   1.939   7.577 -0.2589  0.4746 -0.0697
 6373SOL     OW23965   7.287   0.687   5.614 -0.2286 -0.1315  0.5305
 6373SOL    HW123966   7.304   0.594   5.630 -1.0650 -0.3567  0.1467
 6373SOL    HW223967   7.217   0.688   5.550 -0.1511  0.7736  0.4483
 6374SOL     OW23968   7.533   4.245   9.047 -0.4891  0.7042  0.4502
 6374SOL    HW123969   7.551   4.177   9.113  0.4062  2.3754  2.0198
 6374SOL    HW223970   7.567   4.325   9.086  0.4981  1.7241 -2.2856
 6375SOL     OW23971   4.008   3.082   9.696 -0.1631 -0.1211  0.3448
 6375SOL    HW123972   3.997   3.100   9.602 -1.3178  0.5401  0.5838
 6375SOL    HW223973   3.927   3.038   9.721  0.2760 -0.5782  0.9773
 6376SOL     OW23974   3.359   7.900   7.821  0.4759  0.1645  0.0035
 6376SOL    HW123975   3.375   7.974   7.878 -0.9243  0.3109  0.2553
 6376SOL    HW223976   3.308   7.839   7.874  0.5650 -0.4325 -0.5784
 6377SOL     OW23977   8.089   6.897   2.276  0.4366  0.0547  0.6568
 6377SOL    HW123978   8.180   6.925   2.261 -1.2138  5.2550 -1.8645
 6377SOL    HW223979   8.079   6.902   2.371  2.5871 -0.0083  0.9531
 6378SOL     OW23980   3.191   5.304   3.518 -0.0026  0.3110  0.1680
 6378SOL    HW123981   3.156   5.380   3.563  0.1234  0.0679  0.6794
 6378SOL    HW223982   3.229   5.339   3.437 -0.8460  0.6556 -0.0890
 6379SOL     OW23983   7.141   4.737   9.415  0.1907 -0.1300  0.3723
 6379SOL    HW123984   7.192   4.754   9.336 -0.6256 -0.0918 -0.1657
 6379SOL    HW223985   7.205   4.732   9.485  0.7737  1.8009  0.0367
 6380SOL     OW23986   6.917   8.727   3.673 -0.1091 -0.2504  0.8054
 6380SOL    HW123987   6.862   8.748   3.597  0.5361 -0.0826  0.3755
 6380SOL    HW223988   6.995   8.781   3.661  0.1343 -0.4636  1.4271
 6381SOL     OW23989   8.441   3.339   9.009 -0.3989  0.5818 -0.2049
 6381SOL    HW123990   8.464   3.429   8.984 -0.3553  0.1312 -1.9356
 6381SOL    HW223991   8.345   3.339   9.007 -0.4221  0.7719  0.5620
 6382SOL     OW23992   7.111   4.440   3.939  0.4338 -0.2190 -0.0727
 6382SOL    HW123993   7.144   4.504   4.002  0.4753 -1.3603  1.1030
 6382SOL    HW223994   7.176   4.441   3.868  0.3072  1.1912 -0.1996
 6383SOL     OW23995   1.826   7.903   4.370 -0.0308  0.0571  0.0738
 6383SOL    HW123996   1.869   7.947   4.443  0.4767  1.9685 -1.3159
 6383SOL    HW223997   1.886   7.832   4.347 -0.5132 -1.0025  1.8832
 6384SOL     OW23998   5.503   3.222   7.070 -0.0358  0.1483  0.1026
 6384SOL    HW123999   5.480   3.280   6.997  0.3836  1.7116  1.1509
 6384SOL    HW224000   5.427   3.166   7.081 -0.2900  0.1980 -1.2234
 6385SOL     OW24001   3.065   4.369   4.114 -0.0430  0.0645 -0.2301
 6385SOL    HW124002   3.120   4.433   4.070 -1.4272  1.8641  0.5336
 6385SOL    HW224003   3.081   4.384   4.207  0.6633 -1.7008 -0.0297
 6386SOL     OW24004   7.336   8.427   5.462 -0.1257  0.1696 -0.2106
 6386SOL    HW124005   7.405   8.401   5.523 -0.0406  0.2441 -0.2754
 6386SOL    HW224006   7.378   8.490   5.403  0.3102 -1.2107 -1.4599
 6387SOL     OW24007   0.729   6.536   2.987 -0.9130  0.7496 -0.0110
 6387SOL    HW124008   0.702   6.445   3.002 -0.6724  0.2777 -2.2288
 6387SOL    HW224009   0.808   6.547   3.040  0.6107 -1.2013 -1.7458
 6388SOL     OW24010   4.327   5.065   5.603  0.8576 -0.0146  0.1605
 6388SOL    HW124011   4.287   5.144   5.638 -0.1776 -1.0851  1.4915
 6388SOL    HW224012   4.326   5.077   5.508 -0.8714  0.8427  0.2560
 6389SOL     OW24013   6.631   2.069   1.868 -0.4779  0.5023 -0.3627
 6389SOL    HW124014   6.704   2.008   1.877 -1.5401 -0.9209 -0.9756
 6389SOL    HW224015   6.612   2.071   1.774 -0.2131  2.1322 -0.4158
 6390SOL     OW24016   2.345   5.153   5.373 -0.1422  0.5962 -0.3112
 6390SOL    HW124017   2.262   5.136   5.417 -0.2793 -1.4459 -1.2514
 6390SOL    HW224018   2.408   5.097   5.419  0.7120  1.9489  0.2464
 6391SOL     OW24019   4.245   9.666   5.009  0.6493 -0.3466 -0.2027
 6391SOL    HW124020   4.167   9.722   5.014  0.5577 -0.3050 -1.8401
 6391SOL    HW224021   4.245   9.618   5.093 -0.0651  1.0313  0.6163
 6392SOL     OW24022   2.115   3.576   4.333 -0.0610 -0.0341 -0.0228
 6392SOL    HW124023   2.157   3.533   4.258  2.0152  1.7612 -0.0007
 6392SOL    HW224024   2.085   3.660   4.299  0.8210  0.7646  1.0730
 6393SOL     OW24025   3.471   6.786   7.182 -0.1877 -0.1733 -0.0313
 6393SOL    HW124026   3.474   6.705   7.129 -1.7441 -0.1512 -0.1905
 6393SOL    HW224027   3.436   6.852   7.122  1.2047  0.6885  0.0581
 6394SOL     OW24028   1.181   0.267   4.226 -0.3380 -0.2426  0.1096
 6394SOL    HW124029   1.185   0.324   4.304  1.2995  0.9447 -0.7679
 6394SOL    HW224030   1.159   0.181   4.261 -0.0673  0.3369  1.8495
 6395SOL     OW24031   9.696   5.153   6.247 -0.0699 -0.0990 -1.0567
 6395SOL    HW124032   9.663   5.065   6.229  1.4323 -0.5053 -2.0471
 6395SOL    HW224033   9.663   5.174   6.334  0.5989 -2.1878 -0.2251
 6396SOL     OW24034   9.159   2.182   8.343  0.2220  0.0856 -0.5004
 6396SOL    HW124035   9.215   2.141   8.278  0.5550 -0.4305  0.0969
 6396SOL    HW224036   9.152   2.117   8.413 -1.6148 -0.0962 -0.8218
 6397SOL     OW24037   4.455   4.792   2.682 -0.5606 -0.0710  0.1804
 6397SOL    HW124038   4.467   4.884   2.660  1.1793 -0.4277 -0.5471
 6397SOL    HW224039   4.402   4.756   2.611 -0.0780  0.0837 -0.2601
 6398SOL     OW24040   3.844   0.685   3.762 -0.4575  0.3929  0.2494
 6398SOL    HW124041   3.807   0.773   3.754  0.4142  0.8554  1.0968
 6398SOL    HW224042   3.817   0.656   3.850  0.4831  0.4126  0.5525
 6399SOL     OW24043   6.255   7.776   2.828 -0.0501 -0.2947  0.3426
 6399SOL    HW124044   6.170   7.780   2.872 -0.6467 -2.1521 -0.5268
 6399SOL    HW224045   6.298   7.701   2.867  1.8574  1.4356  1.7744
 6400SOL     OW24046   2.962   1.733   0.070  0.1416  0.1591  0.3934
 6400SOL    HW124047   2.972   1.821   0.108  0.6627  0.0434  0.5324
 6400SOL    HW224048   2.983   1.674   0.142 -0.4614 -0.0897  0.3726
 6401SOL     OW24049   0.098   5.788   0.344  0.9478  0.5104 -0.1177
 6401SOL    HW124050   0.093   5.698   0.312  2.2037  0.2035  0.4855
 6401SOL    HW224051   0.117   5.778   0.438  0.2832  1.4108  0.1288
 6402SOL     OW24052   0.460   0.861   2.227 -0.8669  0.3185 -0.1265
 6402SOL    HW124053   0.375   0.820   2.214 -2.0305  2.5645  0.0866
 6402SOL    HW224054   0.457   0.941   2.176 -0.1860  2.1554  2.4977
 6403SOL     OW24055   6.118   2.741   4.905  0.3416  0.1890 -0.4109
 6403SOL    HW124056   6.178   2.703   4.841 -0.5896 -1.6852 -0.2345
 6403SOL    HW224057   6.037   2.758   4.856 -0.7007 -2.1234  0.3645
 6404SOL     OW24058   6.170   3.096   1.715 -0.1299  0.0029 -0.3916
 6404SOL    HW124059   6.137   3.091   1.804 -0.3968  0.8678 -0.4333
 6404SOL    HW224060   6.123   3.170   1.676 -1.3864 -1.4959 -1.8400
 6405SOL     OW24061   0.604   3.342   6.039 -0.2218 -0.0337  0.0638
 6405SOL    HW124062   0.544   3.299   6.100 -0.9296 -1.0742 -1.3243
 6405SOL    HW224063   0.548   3.395   5.984  0.3053  0.1666 -0.2826
 6406SOL     OW24064   3.763   1.127   3.179  0.8756  0.2021  0.3667
 6406SOL    HW124065   3.822   1.058   3.150 -1.0215 -1.6494  0.6057
 6406SOL    HW224066   3.794   1.152   3.266  0.7773 -1.4180  0.8887
 6407SOL     OW24067   2.589   2.212   7.246  0.4566 -0.2771  0.4441
 6407SOL    HW124068   2.600   2.118   7.262  0.8200 -0.6015 -1.4533
 6407SOL    HW224069   2.602   2.222   7.152  0.0087  1.6344  0.5412
 6408SOL     OW24070   3.862   2.556   2.274 -0.1423 -0.0410 -0.0358
 6408SOL    HW124071   3.934   2.617   2.258  1.4168 -2.1318 -1.6524
 6408SOL    HW224072   3.880   2.483   2.215 -1.9966 -1.9826  1.6445
 6409SOL     OW24073   2.761   8.241   8.807 -0.7547  0.0652  0.5309
 6409SOL    HW124074   2.819   8.272   8.877 -1.5186  0.9951  0.7633
 6409SOL    HW224075   2.673   8.257   8.839 -1.1524 -1.1089  0.0698
 6410SOL     OW24076   1.855   8.393   2.230 -0.4395  0.0644  0.2205
 6410SOL    HW124077   1.795   8.320   2.245  0.2005 -0.8359 -1.3818
 6410SOL    HW224078   1.902   8.402   2.313 -1.4558 -0.4399  0.8822
 6411SOL     OW24079   0.834   1.926   1.161  0.0694 -0.0865  0.0708
 6411SOL    HW124080   0.929   1.923   1.172  0.2111 -0.2230 -1.1184
 6411SOL    HW224081   0.819   1.991   1.093 -0.7677  0.6469  0.9277
 6412SOL     OW24082   7.173   4.095   2.032 -0.5087  0.0341  0.2714
 6412SOL    HW124083   7.160   4.184   1.999  2.0640  0.2213 -0.4599
 6412SOL    HW224084   7.133   4.039   1.965  2.6008  0.5148 -2.2741
 6413SOL     OW24085   9.466   1.458   5.811 -0.6491  0.1289  0.0169
 6413SOL    HW124086   9.450   1.474   5.718 -2.9230 -1.3291  0.0693
 6413SOL    HW224087   9.392   1.498   5.856  0.9730  1.7902  1.3753
 6414SOL     OW24088   4.138   5.899   6.142 -0.4948  0.0301  0.0754
 6414SOL    HW124089   4.044   5.880   6.143 -0.4757 -0.1167 -0.6668
 6414SOL    HW224090   4.143   5.992   6.164 -0.8715  0.2493 -0.7476
 6415SOL     OW24091   2.612   4.991   2.438 -0.1070 -0.0287 -0.7536
 6415SOL    HW124092   2.555   4.918   2.413 -0.4107  0.0080 -0.2020
 6415SOL    HW224093   2.603   4.996   2.534  1.3841 -0.4938 -0.5612
 6416SOL     OW24094   5.903   8.088   0.369 -0.3859  0.0750  0.4039
 6416SOL    HW124095   5.937   8.142   0.297  1.3306  0.7138  1.6292
 6416SOL    HW224096   5.931   7.999   0.347 -0.4314  0.1644 -0.0321
 6417SOL     OW24097   9.045   9.312   8.776  0.8377 -0.5984 -0.2730
 6417SOL    HW124098   9.096   9.279   8.850  0.3696 -0.3604  0.1662
 6417SOL    HW224099   9.108   9.320   8.705  1.5709  0.3474  0.4551
 6418SOL     OW24100   4.760   5.497   4.375  0.2610 -0.3244  0.0614
 6418SOL    HW124101   4.775   5.584   4.339 -1.4259 -0.3087 -0.6842
 6418SOL    HW224102   4.837   5.447   4.349 -0.0264  0.2141 -1.9674
 6419SOL     OW24103   6.319   0.950   7.654  0.7371 -0.0389  0.0091
 6419SOL    HW124104   6.323   0.893   7.731  0.5559  0.9594  0.7798
 6419SOL    HW224105   6.272   1.028   7.684  4.0156  2.1287  0.0585
 6420SOL     OW24106   3.874   0.184   2.201  0.1003  0.2650 -0.1434
 6420SOL    HW124107   3.896   0.132   2.279  1.6064  0.1366 -0.6203
 6420SOL    HW224108   3.827   0.123   2.144 -0.4766  0.1911  0.3944
 6421SOL     OW24109   1.835   4.177   6.059  0.0923 -0.0120  0.3136
 6421SOL    HW124110   1.760   4.122   6.079 -0.0609  0.7120  1.8812
 6421SOL    HW224111   1.910   4.130   6.095  0.5809 -1.1694 -2.0273
 6422SOL     OW24112   3.859   1.301   4.543  0.4577 -0.0247  0.1167
 6422SOL    HW124113   3.769   1.307   4.510  0.3255  0.7162  0.5734
 6422SOL    HW224114   3.849   1.272   4.634  0.8158 -2.0934 -0.4500
 6423SOL     OW24115   8.329   1.579   6.355 -0.7413  0.1860 -0.3140
 6423SOL    HW124116   8.378   1.652   6.394  0.3961  0.1618 -1.6577
 6423SOL    HW224117   8.269   1.551   6.425  0.3095  0.9983  0.9555
 6424SOL     OW24118   6.047   2.012   6.079 -0.1980  0.0967  0.1000
 6424SOL    HW124119   5.971   2.065   6.103 -0.4796  0.3759 -1.3303
 6424SOL    HW224120   6.034   1.929   6.124 -1.7014 -0.0917 -0.6243
 6425SOL     OW24121   4.569   5.512   8.781 -0.0733  0.3799  0.3515
 6425SOL    HW124122   4.658   5.500   8.747  0.0363 -1.3349  1.1125
 6425SOL    HW224123   4.560   5.606   8.793  1.4788  0.6223 -0.1612
 6426SOL     OW24124   6.661   9.675   8.508 -0.5346  0.1352 -0.3357
 6426SOL    HW124125   6.695   9.585   8.511 -0.6519  0.1040  1.7061
 6426SOL    HW224126   6.572   9.667   8.542 -0.6895  0.9762 -0.5277
 6427SOL     OW24127   1.942   6.981   9.695 -0.3063 -0.3374  0.2389
 6427SOL    HW124128   1.936   7.024   9.610 -1.8297  0.1203  0.5453
 6427SOL    HW224129   1.859   6.935   9.705  0.7270 -2.2365  0.5492
 6428SOL     OW24130   1.171   3.338   3.659 -0.1678  0.1200  0.5444
 6428SOL    HW124131   1.112   3.407   3.689  0.4736  0.8649  0.1203
 6428SOL    HW224132   1.244   3.340   3.720  0.2753  0.4158  0.0065
 6429SOL     OW24133   7.336   0.441   5.033  0.3666 -0.6384 -0.1384
 6429SOL    HW124134   7.312   0.398   5.115 -1.4190 -1.9798 -1.2731
 6429SOL    HW224135   7.418   0.487   5.052 -0.0803 -0.7560  2.4161
 6430SOL     OW24136   5.032   3.554   7.064  0.1327 -0.1182 -0.4764
 6430SOL    HW124137   4.984   3.523   7.141 -0.6071  0.0477 -0.8514
 6430SOL    HW224138   5.123   3.554   7.090  0.1189 -2.0155 -0.2411
 6431SOL     OW24139   5.995   6.237   4.949  0.0487 -0.3825  0.0672
 6431SOL    HW124140   5.976   6.319   4.903 -1.9442 -1.0508 -0.4236
 6431SOL    HW224141   6.067   6.258   5.007 -0.6049  1.8066  0.1830
 6432SOL     OW24142   4.466   8.896   6.542 -0.2421 -0.9522 -0.0402
 6432SOL    HW124143   4.559   8.916   6.538 -0.4495  0.0289 -0.2662
 6432SOL    HW224144   4.437   8.899   6.451 -0.9428  1.1067  0.1941
 6433SOL     OW24145   3.512   8.488   2.011 -0.0346  0.0021 -0.3607
 6433SOL    HW124146   3.596   8.460   1.975  0.1133  0.2020 -0.1665
 6433SOL    HW224147   3.493   8.425   2.080  0.2270  0.2915 -0.0242
 6434SOL     OW24148   5.835   0.562   2.256  0.2058  0.2344 -0.2614
 6434SOL    HW124149   5.892   0.615   2.313  0.8698  0.3929 -1.0562
 6434SOL    HW224150   5.805   0.491   2.312  0.2544  0.7947  0.4940
 6435SOL     OW24151   6.191   6.237   5.163 -0.4951 -0.3760 -0.4477
 6435SOL    HW124152   6.159   6.266   5.248 -0.5589  0.8839 -0.8719
 6435SOL    HW224153   6.202   6.142   5.172  0.2444 -0.1761  1.2047
 6436SOL     OW24154   7.390   4.381   6.747  0.2795 -0.0269 -0.0186
 6436SOL    HW124155   7.476   4.364   6.709 -0.1862 -2.1711 -0.2486
 6436SOL    HW224156   7.337   4.306   6.721 -2.0059  1.7302 -0.7634
 6437SOL     OW24157   0.931   2.495   5.302  0.2030  0.3444 -0.0955
 6437SOL    HW124158   0.962   2.563   5.242 -1.9213  0.9087 -0.6406
 6437SOL    HW224159   0.940   2.413   5.254  1.0150  0.4547 -0.1466
 6438SOL     OW24160   1.738   6.764   4.452  0.4154  0.3496  0.3246
 6438SOL    HW124161   1.797   6.793   4.382 -0.7766 -1.7324 -1.6973
 6438SOL    HW224162   1.658   6.816   4.439  0.0724 -0.2705 -0.1269
 6439SOL     OW24163   1.972   9.093   2.574  0.1592 -0.4958 -0.4007
 6439SOL    HW124164   1.946   9.127   2.659 -0.7801 -1.7654 -0.1396
 6439SOL    HW224165   1.894   9.103   2.519  0.8038  0.4579 -1.1735
 6440SOL     OW24166   9.226   1.858   6.743  0.2525  0.5472 -0.3334
 6440SOL    HW124167   9.140   1.869   6.702 -0.6684  0.2116  1.4019
 6440SOL    HW224168   9.209   1.803   6.820  1.9618  0.7852  0.2615
 6441SOL     OW24169   1.946   1.285   4.504 -0.1006  0.5022  0.9018
 6441SOL    HW124170   1.936   1.320   4.416 -0.7732 -0.5491  0.5448
 6441SOL    HW224171   2.040   1.275   4.517  0.0161  0.9937  0.4481
 6442SOL     OW24172   5.443   9.427   7.447 -0.4710  0.1084  0.3416
 6442SOL    HW124173   5.453   9.501   7.507 -0.5349 -0.7843  1.4726
 6442SOL    HW224174   5.418   9.467   7.363 -1.6841  1.2905  1.2294
 6443SOL     OW24175   0.084   3.128   0.173 -0.4107 -0.2284  0.0078
 6443SOL    HW124176   0.167   3.103   0.212  0.8397  1.7929 -1.1540
 6443SOL    HW224177   0.099   3.217   0.139 -3.1035  0.2875 -0.0728
 6444SOL     OW24178   6.175   2.112   8.843 -0.0566  0.0042 -0.4940
 6444SOL    HW124179   6.166   2.181   8.909  0.1655 -2.3782  2.2897
 6444SOL    HW224180   6.264   2.080   8.855 -0.8859 -2.2868  0.0912
 6445SOL     OW24181   8.978   1.166   9.108  0.0355 -0.4173 -0.5000
 6445SOL    HW124182   9.027   1.221   9.169  1.1224 -0.5804 -1.2072
 6445SOL    HW224183   8.894   1.152   9.151  0.1980  0.7694  0.2518
 6446SOL     OW24184   5.407   3.906   5.749 -0.3511 -0.3216  0.2316
 6446SOL    HW124185   5.442   3.931   5.835  0.0426  0.4855 -0.1531
 6446SOL    HW224186   5.335   3.968   5.734  0.2955  0.2820 -0.5012
 6447SOL     OW24187   7.850   8.259   6.293  1.3148 -0.2436 -0.2830
 6447SOL    HW124188   7.933   8.291   6.326  0.9477 -1.2881  1.8758
 6447SOL    HW224189   7.822   8.194   6.358 -1.6355  0.7454 -0.3816
 6448SOL     OW24190   4.383   5.974   3.190 -0.0824  0.4183  0.2319
 6448SOL    HW124191   4.301   5.958   3.236 -0.0686 -0.0624  0.0975
 6448SOL    HW224192   4.450   5.932   3.244 -0.0703 -0.1699 -0.2305
 6449SOL     OW24193   0.519   5.591   2.376 -0.6955  0.7250  0.0647
 6449SOL    HW124194   0.559   5.530   2.438 -0.2237 -1.3631 -2.1263
 6449SOL    HW224195   0.499   5.669   2.428  1.9847  0.1164  2.2502
 6450SOL     OW24196   0.914   1.984   6.730 -0.3106  0.3339  0.0668
 6450SOL    HW124197   0.819   1.980   6.733 -0.3173  0.9870  1.8906
 6450SOL    HW224198   0.942   1.892   6.730 -0.9180  0.1325 -0.7881
 6451SOL     OW24199   4.349   8.117   0.545 -0.2364 -0.0447  0.1872
 6451SOL    HW124200   4.318   8.042   0.494  2.8292 -1.2567 -0.1213
 6451SOL    HW224201   4.364   8.185   0.480 -2.4809  0.7107  0.3955
 6452SOL     OW24202   9.119   0.901   6.309 -0.0803  0.7551 -0.4536
 6452SOL    HW124203   9.099   0.976   6.253 -0.1874  0.0745 -1.3488
 6452SOL    HW224204   9.073   0.919   6.391 -0.7112  1.3241 -0.9256
 6453SOL     OW24205   8.342   6.194   2.166  0.1618 -0.6155  0.9503
 6453SOL    HW124206   8.435   6.216   2.167  0.0281 -0.0496  1.5622
 6453SOL    HW224207   8.297   6.277   2.151 -0.2456 -0.9077  0.5015
 6454SOL     OW24208   8.770   3.769   1.345  0.3775  0.5503 -0.0276
 6454SOL    HW124209   8.680   3.739   1.339  0.4003  0.3621  0.4400
 6454SOL    HW224210   8.804   3.762   1.256 -0.1723  0.9786 -0.2760
 6455SOL     OW24211   0.355   8.016   7.633 -0.5281  0.2687 -0.4896
 6455SOL    HW124212   0.369   7.923   7.616 -1.6217 -0.0727  0.3208
 6455SOL    HW224213   0.321   8.051   7.551  0.7024  0.1560 -1.0656
 6456SOL     OW24214   4.284   0.781   5.363 -0.2036 -0.0483 -0.1632
 6456SOL    HW124215   4.213   0.729   5.326  0.1895 -0.6288 -0.1057
 6456SOL    HW224216   4.276   0.768   5.457 -0.0502 -0.0722 -0.1544
 6457SOL     OW24217   0.941   4.313   1.383  0.3432  0.1754  0.0360
 6457SOL    HW124218   0.893   4.363   1.316 -0.4222  2.2465  2.0044
 6457SOL    HW224219   1.032   4.340   1.372  0.1554  0.8486  0.0884
 6458SOL     OW24220   5.642   4.535   7.291 -0.6653 -0.6810  0.9102
 6458SOL    HW124221   5.737   4.538   7.297 -0.3719  0.1506 -2.4166
 6458SOL    HW224222   5.612   4.559   7.378  2.1603  0.3323  1.7034
 6459SOL     OW24223   0.582   6.786   6.748  0.2968  0.5696  0.0328
 6459SOL    HW124224   0.528   6.758   6.675  0.3074  1.4794 -0.3412
 6459SOL    HW224225   0.664   6.815   6.707  0.3734  0.9074  0.4148
 6460SOL     OW24226   7.331   2.922   2.222  0.1140  0.0800  0.0950
 6460SOL    HW124227   7.397   2.989   2.204 -1.3717  1.4121 -0.6066
 6460SOL    HW224228   7.297   2.945   2.308  0.4948 -0.5758  0.4313
 6461SOL     OW24229   8.763   4.317   7.085  0.6452  0.7147 -0.5897
 6461SOL    HW124230   8.744   4.411   7.093 -0.4146  0.3962  0.9752
 6461SOL    HW224231   8.684   4.281   7.045  0.4241  0.2764  0.2285
 6462SOL     OW24232   3.952   2.204   9.745  0.2841  0.0324  0.1550
 6462SOL    HW124233   4.044   2.196   9.769  1.1860  3.7151 -1.4372
 6462SOL    HW224234   3.943   2.151   9.665  1.3104  0.4733 -0.2639
 6463SOL     OW24235   4.461   4.993   2.905 -0.1989 -0.6024 -0.4158
 6463SOL    HW124236   4.512   4.953   2.835  0.5808  1.0993 -0.8853
 6463SOL    HW224237   4.373   4.958   2.894 -0.3725  0.4112 -2.9870
 6464SOL     OW24238   7.773   7.518   8.712  0.7982  0.1802 -0.4475
 6464SOL    HW124239   7.861   7.528   8.747  0.4041  1.1027  0.2990
 6464SOL    HW224240   7.716   7.563   8.774 -0.4692 -2.1259  0.2045
 6465SOL     OW24241   0.871   8.259   7.092  0.0822 -0.6684 -0.9312
 6465SOL    HW124242   0.935   8.313   7.045  0.2520  0.7290  0.8193
 6465SOL    HW224243   0.918   8.227   7.168 -1.1396 -0.0267  0.1287
 6466SOL     OW24244   3.579   7.333   2.073  0.2510 -0.1137  0.5654
 6466SOL    HW124245   3.596   7.367   2.161 -0.4942 -1.8915  1.4531
 6466SOL    HW224246   3.484   7.323   2.070  0.0488  1.8985 -1.2502
 6467SOL     OW24247   8.645   9.694   6.742  0.2325 -0.1408 -0.3229
 6467SOL    HW124248   8.677   9.629   6.804 -0.6227  0.7399  1.0945
 6467SOL    HW224249   8.564   9.656   6.708  1.0671 -0.9438 -1.4870
 6468SOL     OW24250   6.556   4.095   4.526  0.3401  0.1783 -0.0013
 6468SOL    HW124251   6.514   4.018   4.486 -1.0991 -0.4109  2.4501
 6468SOL    HW224252   6.636   4.061   4.566  0.4402  0.2590 -0.1305
 6469SOL     OW24253   6.658   2.405   3.134 -0.7954  0.0905 -0.4471
 6469SOL    HW124254   6.684   2.320   3.100  0.6804  0.3133  0.0497
 6469SOL    HW224255   6.657   2.394   3.229  1.3761  1.0944 -0.2465
 6470SOL     OW24256   1.341   8.127   0.047 -0.0413  0.5235  0.3542
 6470SOL    HW124257   1.275   8.057   0.052  0.3226  0.1927  0.6304
 6470SOL    HW224258   1.296   8.200   0.004 -0.2059 -0.1325 -0.6090
 6471SOL     OW24259   6.098   4.382   6.417  0.1275  0.5619  0.6369
 6471SOL    HW124260   6.027   4.384   6.482  0.5152  0.7375  1.0591
 6471SOL    HW224261   6.142   4.298   6.432 -0.8410 -0.1929 -0.5605
 6472SOL     OW24262   1.785   1.253   1.755  0.3081  0.5635  0.5418
 6472SOL    HW124263   1.834   1.239   1.836 -0.0650  0.1703  0.7003
 6472SOL    HW224264   1.832   1.324   1.711  0.8267  0.4214  0.8505
 6473SOL     OW24265   4.948   3.891   2.569 -0.1911  0.6894  0.3584
 6473SOL    HW124266   4.868   3.934   2.600 -0.8674  1.1395 -1.8081
 6473SOL    HW224267   4.930   3.797   2.580 -1.0092  0.7881 -0.0160
 6474SOL     OW24268   6.695   9.122   3.400  0.1682 -0.6255  0.7094
 6474SOL    HW124269   6.630   9.105   3.468 -0.9790  0.3642 -0.0874
 6474SOL    HW224270   6.666   9.205   3.360  0.1304 -1.7085 -1.7142
 6475SOL     OW24271   7.783   0.549   7.089  0.3373  0.0581 -0.0113
 6475SOL    HW124272   7.824   0.626   7.127  0.4071  0.1261 -0.2219
 6475SOL    HW224273   7.822   0.541   7.002 -0.2770  0.2673 -0.3122
 6476SOL     OW24274   6.426   3.431   8.201  0.5086  0.2166  0.1978
 6476SOL    HW124275   6.340   3.417   8.240  1.0672 -0.2707  1.3266
 6476SOL    HW224276   6.485   3.376   8.254  1.4968  0.5003 -0.5783
 6477SOL     OW24277   1.684   6.662   5.896  0.3436  0.5202  0.0485
 6477SOL    HW124278   1.655   6.719   5.967 -1.9793 -0.8484  0.2721
 6477SOL    HW224279   1.741   6.598   5.937  0.9534  1.1658  0.2261
 6478SOL     OW24280   1.346   6.275   1.875 -0.1806 -0.2048 -0.1256
 6478SOL    HW124281   1.399   6.354   1.884  0.0891 -0.5138  1.3465
 6478SOL    HW224282   1.349   6.254   1.782  0.7701  0.8169 -0.3451
 6479SOL     OW24283   5.586   2.848   1.305 -0.5837 -0.3589  0.5919
 6479SOL    HW124284   5.608   2.808   1.389 -0.4664  0.5231  0.9880
 6479SOL    HW224285   5.632   2.932   1.306  2.0014 -1.5624 -1.6113
 6480SOL     OW24286   6.238   4.929   4.658 -0.2625  0.0955  0.2259
 6480SOL    HW124287   6.327   4.916   4.626 -0.7660 -0.7365 -0.8853
 6480SOL    HW224288   6.185   4.936   4.580 -1.3248 -0.4994  0.8704
 6481SOL     OW24289   6.987   3.304   9.483 -1.0376 -0.4551 -0.2548
 6481SOL    HW124290   7.059   3.252   9.519 -0.3959  0.0178 -0.8208
 6481SOL    HW224291   6.982   3.278   9.391 -0.7690  0.4058 -0.5225
 6482SOL     OW24292   6.226   7.005   5.870 -0.5445  0.2222  0.8237
 6482SOL    HW124293   6.169   7.078   5.893  0.6759  1.9197 -1.1262
 6482SOL    HW224294   6.285   7.041   5.803 -0.6930 -2.8735 -1.1820
 6483SOL     OW24295   6.114   0.979   7.434 -0.1499 -0.5911  0.3036
 6483SOL    HW124296   6.170   1.056   7.422 -0.4527 -0.1080  1.6977
 6483SOL    HW224297   6.025   1.014   7.429 -0.3747 -1.3123 -1.6637
 6484SOL     OW24298   6.655   2.338   5.086  0.3072  0.0366  0.3651
 6484SOL    HW124299   6.604   2.278   5.140 -1.6811  1.1626 -0.1465
 6484SOL    HW224300   6.602   2.418   5.083  1.8446  1.0640 -0.7152
 6485SOL     OW24301   6.409   9.623   8.613  0.1462  0.9519 -0.5190
 6485SOL    HW124302   6.382   9.545   8.663 -1.9661  1.8034 -0.2150
 6485SOL    HW224303   6.416   9.692   8.679  0.6514  1.3231 -0.9595
 6486SOL     OW24304   2.969   3.140   9.736  0.2319 -0.1951 -0.7398
 6486SOL    HW124305   2.945   3.161   9.646  0.8343  0.6238 -0.7083
 6486SOL    HW224306   3.064   3.143   9.738  0.2743 -1.2388 -0.3145
 6487SOL     OW24307   1.544   1.086   4.342  0.1538  0.6947 -0.4416
 6487SOL    HW124308   1.610   1.119   4.404 -0.7476  1.7394  0.0031
 6487SOL    HW224309   1.551   0.991   4.348  1.9946  0.7615 -0.8239
 6488SOL     OW24310   1.754   4.680   6.759  0.0100  0.2191  0.0575
 6488SOL    HW124311   1.725   4.654   6.672  0.1530 -1.7553  0.5503
 6488SOL    HW224312   1.827   4.739   6.743 -0.9915  1.2060 -1.1453
 6489SOL     OW24313   6.906   1.060   9.201  0.7554 -0.0336  0.5053
 6489SOL    HW124314   6.868   0.985   9.156  1.2922 -0.7833  1.2657
 6489SOL    HW224315   6.926   1.122   9.131 -1.6565  0.3432  0.0601
 6490SOL     OW24316   0.434   2.832   6.234  0.0352 -0.3361 -0.5061
 6490SOL    HW124317   0.441   2.743   6.199  3.0058  0.1114 -1.3552
 6490SOL    HW224318   0.518   2.848   6.276 -1.0477  1.5220  1.1361
 6491SOL     OW24319   3.086   9.667   9.577  0.2464 -0.3274  0.1613
 6491SOL    HW124320   3.016   9.730   9.589 -0.5997 -1.2210  0.0384
 6491SOL    HW224321   3.098   9.660   9.483  2.1080  1.5015  0.1708
 6492SOL     OW24322   8.046   0.629   8.500 -0.1542 -0.1473  0.0393
 6492SOL    HW124323   8.083   0.676   8.425  0.3637 -0.8458 -0.1468
 6492SOL    HW224324   7.988   0.564   8.460 -0.6933  0.1736  0.2900
 6493SOL     OW24325   1.411   8.688   5.586 -0.6667 -0.0663  0.2678
 6493SOL    HW124326   1.382   8.679   5.677 -2.5077  0.5488 -0.2187
 6493SOL    HW224327   1.502   8.716   5.593 -0.1181 -2.0151  1.8889
 6494SOL     OW24328   8.244   9.518   8.510  0.0850  0.5296  0.3119
 6494SOL    HW124329   8.292   9.539   8.430  0.4332  0.4446  0.4964
 6494SOL    HW224330   8.311   9.490   8.572 -0.1956  0.4709  0.5947
 6495SOL     OW24331   4.081   5.964   6.519  0.1993  0.0868 -0.1434
 6495SOL    HW124332   4.165   5.975   6.565  1.0871 -3.0496 -0.7603
 6495SOL    HW224333   4.066   5.870   6.519 -2.7077  0.4502 -1.2455
 6496SOL     OW24334   3.355   9.696   0.830  0.3598  0.2444  0.3242
 6496SOL    HW124335   3.364   9.766   0.895 -0.7763  0.7274 -0.0028
 6496SOL    HW224336   3.315   9.739   0.754 -0.0607 -0.6925 -0.0039
 6497SOL     OW24337   4.955   9.750   9.287 -0.4862 -0.1161  0.1944
 6497SOL    HW124338   4.999   9.665   9.290 -1.4144 -0.5892  1.2586
 6497SOL    HW224339   4.912   9.752   9.202  1.1676  0.1730 -0.6869
 6498SOL     OW24340   6.508   0.779   5.496  0.1445 -0.4089 -0.5274
 6498SOL    HW124341   6.462   0.815   5.572  1.0113  0.2490 -0.3020
 6498SOL    HW224342   6.439   0.736   5.445 -0.6807  0.3586 -0.0869
 6499SOL     OW24343   4.917   7.020   8.651 -0.2636 -0.3479  0.5184
 6499SOL    HW124344   4.971   7.073   8.710  0.4613  0.6021 -0.9280
 6499SOL    HW224345   4.981   6.974   8.597 -0.9157 -1.4278  0.6585
 6500SOL     OW24346   6.979   7.918   4.344 -0.5489  0.1781  0.1943
 6500SOL    HW124347   6.979   7.823   4.330 -1.0050  0.2736 -0.4893
 6500SOL    HW224348   6.950   7.929   4.435 -1.0556 -0.3118  0.0975
 6501SOL     OW24349   7.279   4.003   8.897 -0.4025 -0.0121  0.0581
 6501SOL    HW124350   7.251   4.050   8.976  1.1224  0.9542  0.0539
 6501SOL    HW224351   7.311   3.918   8.929  0.2734  0.4041  0.4943
 6502SOL     OW24352   6.226   7.867   8.444 -0.1745  0.0572 -0.1637
 6502SOL    HW124353   6.274   7.809   8.385  0.1815 -1.2678  1.3433
 6502SOL    HW224354   6.146   7.818   8.466 -0.6909  0.8738 -0.1786
 6503SOL     OW24355   1.598   8.151   0.631 -0.4490  0.8361  0.0167
 6503SOL    HW124356   1.560   8.066   0.649 -2.2034  1.6184  0.2514
 6503SOL    HW224357   1.688   8.133   0.602 -1.2498 -1.1805 -1.4008
 6504SOL     OW24358   3.983   6.684   9.066 -0.2363 -0.4803  0.3286
 6504SOL    HW124359   3.910   6.711   9.010  0.0697  3.4462  1.5838
 6504SOL    HW224360   4.058   6.735   9.035  1.3990 -2.4226  0.8104
 6505SOL     OW24361   9.349   4.115   2.209 -0.3481  0.1733 -0.3506
 6505SOL    HW124362   9.283   4.153   2.267 -0.9133 -0.2631 -0.6922
 6505SOL    HW224363   9.365   4.027   2.246 -0.6158 -0.0573 -0.7799
 6506SOL     OW24364   4.144   5.986   2.606 -0.4330 -0.3562 -0.4273
 6506SOL    HW124365   4.130   6.069   2.651 -1.4159 -1.3693  1.3033
 6506SOL    HW224366   4.075   5.982   2.540 -0.8807 -0.1246  0.0176
 6507SOL     OW24367   6.143   8.157   3.731 -0.1837  0.5920 -0.0371
 6507SOL    HW124368   6.144   8.092   3.661 -0.5595  1.1854 -0.6118
 6507SOL    HW224369   6.176   8.111   3.808  0.1737 -0.0915 -0.5903
 6508SOL     OW24370   5.635   0.427   4.939  0.4218  0.3079  0.0838
 6508SOL    HW124371   5.623   0.367   4.866  0.2710 -0.9537  1.1051
 6508SOL    HW224372   5.727   0.419   4.962  1.3025  3.1115 -1.9312
 6509SOL     OW24373   7.045   3.474   4.293  0.6957  0.6103  0.3073
 6509SOL    HW124374   7.061   3.406   4.228  1.9523  0.8773  0.3137
 6509SOL    HW224375   6.958   3.454   4.327  0.7606 -0.5936 -0.1712
 6510SOL     OW24376   3.803   4.817   8.372 -0.4384 -0.4203  0.2362
 6510SOL    HW124377   3.810   4.813   8.277 -0.8773 -1.6351  0.2376
 6510SOL    HW224378   3.852   4.895   8.397 -0.0689 -0.2583 -0.9580
 6511SOL     OW24379   3.074   4.540   3.023 -0.0089  0.1344 -0.2526
 6511SOL    HW124380   3.039   4.509   2.939  0.8067 -1.0551 -0.1888
 6511SOL    HW224381   3.090   4.459   3.072 -3.7214  0.8072  2.4603
 6512SOL     OW24382   0.028   4.878   4.375 -0.5530 -0.4428 -0.2394
 6512SOL    HW124383   0.082   4.822   4.430 -1.1127 -1.4829 -0.7377
 6512SOL    HW224384   0.082   4.896   4.298 -0.6920 -0.9889 -0.4631
 6513SOL     OW24385   9.479   8.668   4.654 -0.5078  0.5567 -0.5947
 6513SOL    HW124386   9.560   8.720   4.651  0.5349 -0.9448  0.1716
 6513SOL    HW224387   9.470   8.634   4.565  0.3046 -0.1191 -0.4291
 6514SOL     OW24388   7.243   0.536   4.622  0.6302  0.2327 -1.0865
 6514SOL    HW124389   7.275   0.499   4.540 -0.7982 -1.9651 -0.7481
 6514SOL    HW224390   7.200   0.462   4.666  1.8997  1.1477  1.9403
 6515SOL     OW24391   8.196   0.470   6.079 -0.0906 -0.0539  0.3644
 6515SOL    HW124392   8.284   0.438   6.098 -0.6296 -0.5634  2.3458
 6515SOL    HW224393   8.155   0.399   6.029  0.5283  0.0595 -0.3101
 6516SOL     OW24394   7.205   3.490   8.145 -0.2842 -0.3507 -0.0342
 6516SOL    HW124395   7.287   3.468   8.189  0.6002  2.3362 -0.1367
 6516SOL    HW224396   7.230   3.556   8.080 -2.5377  0.7374  0.0942
 6517SOL     OW24397   2.375   8.352   4.468  0.4487 -0.3729 -0.2808
 6517SOL    HW124398   2.286   8.317   4.469  0.4200 -0.3011 -0.2881
 6517SOL    HW224399   2.431   8.275   4.469  0.3803 -0.4360 -0.9470
 6518SOL     OW24400   5.047   5.538   6.722 -0.0364  0.0607 -0.2702
 6518SOL    HW124401   4.983   5.606   6.744  2.1141  1.3352  2.7107
 6518SOL    HW224402   5.108   5.581   6.662  0.8964  0.6313  1.0262
 6519SOL     OW24403   6.269   5.501   7.661 -0.3497 -0.3088  0.3573
 6519SOL    HW124404   6.364   5.506   7.648 -0.5435  2.1034 -0.7284
 6519SOL    HW224405   6.258   5.462   7.747  1.6236 -1.0134  0.3264
 6520SOL     OW24406   8.497   7.995   9.665 -0.3008  0.1111  0.0171
 6520SOL    HW124407   8.534   7.989   9.753 -0.9524 -0.6118  0.2601
 6520SOL    HW224408   8.403   8.011   9.680 -0.6444 -1.2551 -0.5028
 6521SOL     OW24409   1.278   3.447   6.200  0.0710 -0.2154 -0.2243
 6521SOL    HW124410   1.358   3.419   6.154  1.1353 -1.2449  2.0536
 6521SOL    HW224411   1.249   3.368   6.246 -0.3895  0.9382  1.5583
 6522SOL     OW24412   7.655   1.292   1.915 -0.1300 -0.2833 -0.0594
 6522SOL    HW124413   7.709   1.283   1.993 -1.0577 -1.4656  0.4800
 6522SOL    HW224414   7.693   1.231   1.852  1.6856  1.8921 -1.2343
 6523SOL     OW24415   8.467   3.902   4.270  0.3868  0.1324  0.2251
 6523SOL    HW124416   8.426   3.905   4.184  0.8524 -0.2673 -0.0115
 6523SOL    HW224417   8.394   3.896   4.331  0.0520  0.5104 -0.1338
 6524SOL     OW24418   9.640   3.224   6.397 -0.3003  0.1103 -0.3742
 6524SOL    HW124419   9.657   3.176   6.316 -1.0008  0.2494 -0.6077
 6524SOL    HW224420   9.560   3.185   6.432  0.3257 -0.3601  0.5790
 6525SOL     OW24421   3.619   3.916   5.022  0.3069 -0.6272  0.0802
 6525SOL    HW124422   3.649   3.995   4.978  0.5251 -0.3893  0.6493
 6525SOL    HW224423   3.540   3.890   4.974 -0.6475  0.7944  0.8237
 6526SOL     OW24424   1.138   7.333   8.825  0.1510 -0.0217  0.1940
 6526SOL    HW124425   1.079   7.324   8.900  0.4108 -2.7439  0.1718
 6526SOL    HW224426   1.221   7.296   8.856  1.1938  1.6536 -0.5019
 6527SOL     OW24427   8.557   5.139   0.205  0.5623 -0.1734 -0.1221
 6527SOL    HW124428   8.469   5.101   0.205  1.4047 -2.3062 -1.1650
 6527SOL    HW224429   8.602   5.095   0.278  0.4626  1.8114  1.2072
 6528SOL     OW24430   0.650   7.509   9.072  0.7606 -0.2911 -0.2676
 6528SOL    HW124431   0.640   7.557   9.155  1.3061 -0.3280 -0.1771
 6528SOL    HW224432   0.569   7.458   9.064  0.6954 -0.2706  0.2306
 6529SOL     OW24433   1.484   3.266   5.794  0.5183 -0.2944  0.4992
 6529SOL    HW124434   1.528   3.299   5.873  0.6545 -0.9513  0.7008
 6529SOL    HW224435   1.394   3.250   5.822  0.1743  0.8879  0.1301
 6530SOL     OW24436   6.132   3.107   4.213 -0.8150 -0.6191  0.2427
 6530SOL    HW124437   6.145   3.162   4.290 -2.0472  1.3664 -0.8922
 6530SOL    HW224438   6.102   3.023   4.248  0.3256 -0.3635  1.9799
 6531SOL     OW24439   4.881   5.427   6.537 -0.0179  0.6595 -0.4702
 6531SOL    HW124440   4.807   5.459   6.588  0.1815 -0.4572  0.5653
 6531SOL    HW224441   4.955   5.431   6.597  0.8556  2.0455 -1.5878
 6532SOL     OW24442   5.730   8.659   0.358  0.3536  0.4705  0.1874
 6532SOL    HW124443   5.738   8.671   0.263  1.2303  0.4937  0.2644
 6532SOL    HW224444   5.721   8.565   0.370  2.0912  0.2833  0.2035
 6533SOL     OW24445   6.887   6.919   2.186 -0.3050  0.4617 -0.1728
 6533SOL    HW124446   6.794   6.911   2.204  0.1572 -1.5437  1.7783
 6533SOL    HW224447   6.921   6.974   2.257  0.2311 -0.1917  0.0904
 6534SOL     OW24448   8.096   3.848   1.946  0.3700 -0.0290  0.4436
 6534SOL    HW124449   8.190   3.853   1.925  0.3982 -1.0766  0.2704
 6534SOL    HW224450   8.070   3.939   1.960  1.3170  0.3145  0.0676
 6535SOL     OW24451   8.322   3.507   5.220 -0.0832  0.2893 -0.5646
 6535SOL    HW124452   8.257   3.481   5.155  1.7140 -1.2049 -1.8537
 6535SOL    HW224453   8.406   3.485   5.181  1.1171 -0.0999  2.0257
 6536SOL     OW24454   1.570   9.591   8.010 -0.6019 -0.5284 -0.2944
 6536SOL    HW124455   1.643   9.542   8.048 -1.4611 -0.8055  1.0704
 6536SOL    HW224456   1.609   9.638   7.936  0.6321 -1.8318 -0.5260
 6537SOL     OW24457   2.088   3.655   6.845 -0.6580  0.2000  0.1337
 6537SOL    HW124458   2.170   3.671   6.798 -1.1250 -0.1619 -0.8425
 6537SOL    HW224459   2.109   3.585   6.907 -0.6564 -1.2914 -1.4556
 6538SOL     OW24460   9.526   4.677   7.915 -0.1081 -0.1262 -0.4852
 6538SOL    HW124461   9.550   4.768   7.897 -1.0327  0.3513  0.5804
 6538SOL    HW224462   9.446   4.683   7.967  1.5628 -1.3803  2.5358
 6539SOL     OW24463   7.390   7.112   5.280 -0.8050  0.1548 -0.1674
 6539SOL    HW124464   7.468   7.139   5.232 -0.3282 -0.0915  0.4534
 6539SOL    HW224465   7.421   7.045   5.341 -1.1986  1.1708  1.1815
 6540SOL     OW24466   9.689   2.933   4.151  0.3970  0.7749  0.8529
 6540SOL    HW124467   9.614   2.919   4.093  0.3353  1.0228  0.8706
 6540SOL    HW224468   9.652   2.933   4.239  0.6992 -1.1486  1.0146
 6541SOL     OW24469   6.595   7.014   2.836 -0.0792 -0.1479  0.0087
 6541SOL    HW124470   6.603   6.925   2.802 -0.7293 -0.0168 -0.5242
 6541SOL    HW224471   6.511   7.014   2.883 -0.7847  0.5361 -1.1873
 6542SOL     OW24472   3.698   1.125   1.475 -0.2275  0.1346  0.0015
 6542SOL    HW124473   3.788   1.112   1.507  1.0803  1.8269 -2.5798
 6542SOL    HW224474   3.708   1.131   1.380 -3.2949 -0.8116 -0.4837
 6543SOL     OW24475   5.399   9.538   9.346 -0.5176 -0.8722  0.3056
 6543SOL    HW124476   5.367   9.492   9.269  0.0546 -0.1212 -0.3987
 6543SOL    HW224477   5.349   9.619   9.348  0.0404 -0.5166  0.2400
 6544SOL     OW24478   5.459   5.765   0.470  0.3639 -0.0094 -0.1334
 6544SOL    HW124479   5.401   5.693   0.491 -1.3441  0.4764 -2.6975
 6544SOL    HW224480   5.527   5.762   0.537 -0.2137 -3.3051  0.4588
 6545SOL     OW24481   7.696   9.199   4.537 -0.2830  0.0121  0.4412
 6545SOL    HW124482   7.642   9.137   4.586 -0.8538 -0.0754 -0.2876
 6545SOL    HW224483   7.634   9.247   4.482  0.2640  0.5879  0.3183
 6546SOL     OW24484   7.031   0.495   8.147  0.0897  0.1101 -0.3611
 6546SOL    HW124485   6.955   0.523   8.096 -0.6108 -1.7296 -0.4199
 6546SOL    HW224486   7.082   0.442   8.086  0.7292  0.2257  0.0659
 6547SOL     OW24487   2.569   9.059   9.628  0.3081 -0.5742  0.3639
 6547SOL    HW124488   2.548   9.011   9.548  0.0172 -1.3346  0.8868
 6547SOL    HW224489   2.609   9.140   9.597  1.9430 -1.6567 -0.5261
 6548SOL     OW24490   6.545   5.920   3.725  0.3398  0.1890 -0.5520
 6548SOL    HW124491   6.580   5.943   3.810 -0.4683  1.6948 -0.5772
 6548SOL    HW224492   6.548   5.825   3.722 -0.9678  0.0068  1.7664
 6549SOL     OW24493   5.727   3.985   8.665  0.1221  1.0427  0.3699
 6549SOL    HW124494   5.669   3.911   8.648 -0.2317  1.3077  0.3866
 6549SOL    HW224495   5.811   3.960   8.628 -0.2565  1.0366 -0.5046
 6550SOL     OW24496   0.646   4.638   6.924  0.3561 -0.2496  0.1381
 6550SOL    HW124497   0.635   4.673   6.836  1.1246 -2.3046 -0.8548
 6550SOL    HW224498   0.735   4.663   6.949 -0.6225  2.2989  1.3467
 6551SOL     OW24499   7.302   5.399   7.197 -0.7153  0.3126  0.6167
 6551SOL    HW124500   7.267   5.310   7.205  0.5948 -0.4431 -1.3989
 6551SOL    HW224501   7.364   5.406   7.270 -0.5606 -0.5833  0.5902
 6552SOL     OW24502   4.272   1.964   2.925  0.2996  0.0619  0.0584
 6552SOL    HW124503   4.248   2.057   2.929  0.0802  0.0284 -0.3859
 6552SOL    HW224504   4.336   1.959   2.853  2.5374  0.3277  1.9327
 6553SOL     OW24505   4.749   8.695   3.377 -0.5385  0.0447  0.5276
 6553SOL    HW124506   4.769   8.704   3.284 -0.4251 -0.9086  0.4505
 6553SOL    HW224507   4.784   8.609   3.401  0.6902  0.8360  1.7757
 6554SOL     OW24508   3.830   3.469   9.140  0.0813 -0.2371 -0.3241
 6554SOL    HW124509   3.876   3.441   9.061  0.0166 -0.2523 -0.3561
 6554SOL    HW224510   3.771   3.396   9.160 -2.1320  0.9885 -1.9671
 6555SOL     OW24511   8.152   0.107   1.680  0.0976 -0.3447 -0.1580
 6555SOL    HW124512   8.104   0.042   1.629  2.8832 -1.1387 -2.0094
 6555SOL    HW224513   8.197   0.161   1.615  1.6655  0.3671  1.4162
 6556SOL     OW24514   8.880   8.887   7.429  0.5243 -0.0049 -0.6671
 6556SOL    HW124515   8.885   8.821   7.498  1.0591  0.6883 -0.0112
 6556SOL    HW224516   8.799   8.934   7.448  1.6268  1.4641  0.7459
 6557SOL     OW24517   1.897   4.967   9.388 -0.0464 -0.1321  0.1967
 6557SOL    HW124518   1.872   5.007   9.471 -2.2295  0.6031 -0.7392
 6557SOL    HW224519   1.910   4.875   9.409 -0.8852 -0.0203  1.3034
 6558SOL     OW24520   2.513   1.221   6.886  0.2049 -0.1395  0.5158
 6558SOL    HW124521   2.441   1.254   6.832 -0.0862  0.1716  1.0904
 6558SOL    HW224522   2.592   1.249   6.839 -0.0228 -1.0703 -0.4796
 6559SOL     OW24523   3.479   5.911   6.950  0.4841 -0.1265 -1.4565
 6559SOL    HW124524   3.395   5.869   6.929 -0.0428 -0.0474  0.3008
 6559SOL    HW224525   3.504   5.873   7.034  1.5277  0.8716 -1.2937
 6560SOL     OW24526   2.267   2.129   4.174 -0.4457  0.0066 -0.1514
 6560SOL    HW124527   2.271   2.172   4.259  1.0451 -0.9290  0.2989
 6560SOL    HW224528   2.310   2.191   4.114  0.8658 -0.4270  0.3125
 6561SOL     OW24529   9.642   0.967   0.551  0.3828 -0.2447  0.2642
 6561SOL    HW124530   9.548   0.969   0.567  0.4947  0.8844  0.8382
 6561SOL    HW224531   9.681   0.951   0.637  0.7359 -0.2509  0.1073
 6562SOL     OW24532   2.705   9.471   6.167  0.6438 -0.1590 -0.4027
 6562SOL    HW124533   2.628   9.524   6.185  0.8289  0.2790 -0.8711
 6562SOL    HW224534   2.764   9.487   6.241  1.0004  0.8673 -0.8962
 6563SOL     OW24535   5.352   1.249   2.459  0.0914  0.3659 -0.2349
 6563SOL    HW124536   5.443   1.263   2.485  0.1554 -1.4315  0.6421
 6563SOL    HW224537   5.302   1.261   2.539 -0.4532  1.1731 -0.6810
 6564SOL     OW24538   5.062   5.037   1.121 -0.3394  0.3048 -0.1633
 6564SOL    HW124539   5.071   5.001   1.209  0.6477 -1.9247 -1.1010
 6564SOL    HW224540   4.972   5.017   1.096 -0.8539  1.5790  0.5410
 6565SOL     OW24541   8.874   7.706   1.609 -0.1616 -0.8119  0.3502
 6565SOL    HW124542   8.910   7.780   1.561  1.1234 -1.2199  0.6513
 6565SOL    HW224543   8.829   7.746   1.684  1.0953 -0.3401  0.8837
 6566SOL     OW24544   4.368   6.291   5.204 -0.4549 -0.2196  0.9076
 6566SOL    HW124545   4.409   6.370   5.171  0.5052 -0.3624  1.7385
 6566SOL    HW224546   4.293   6.277   5.146 -0.9074  1.5415  1.0306
 6567SOL     OW24547   9.367   4.923   3.364  0.1133  0.1367  0.0540
 6567SOL    HW124548   9.365   4.842   3.313 -1.9342 -0.6369  1.1920
 6567SOL    HW224549   9.445   4.915   3.418 -0.2233 -1.3005  0.3938
 6568SOL     OW24550   2.096   3.657   3.008  0.4331 -0.4691  0.2013
 6568SOL    HW124551   2.168   3.665   3.070 -0.6331  0.1971  1.4160
 6568SOL    HW224552   2.111   3.727   2.944  0.8218 -0.2869  0.4907
 6569SOL     OW24553   7.342   0.977   8.771 -0.4444  0.1048 -0.1445
 6569SOL    HW124554   7.426   0.996   8.813 -1.2047  2.0374  0.6433
 6569SOL    HW224555   7.364   0.951   8.682  0.9971  0.5484  0.0573
 6570SOL     OW24556   6.674   7.409   4.757  0.0565 -0.3738  0.0112
 6570SOL    HW124557   6.615   7.390   4.684 -1.4909  1.0827  0.8109
 6570SOL    HW224558   6.680   7.505   4.758  0.8330 -0.4218  1.2103
 6571SOL     OW24559   4.413   0.522   0.421 -0.1225 -0.6572  0.2001
 6571SOL    HW124560   4.338   0.541   0.365 -0.4606 -1.7948  0.2332
 6571SOL    HW224561   4.378   0.531   0.510  0.5874  1.8375  0.3089
 6572SOL     OW24562   5.460   6.644   0.865  0.1679 -0.4734  0.1122
 6572SOL    HW124563   5.538   6.676   0.909  0.3553  0.7234 -1.0455
 6572SOL    HW224564   5.492   6.603   0.784 -0.4362  0.8772 -0.8478
 6573SOL     OW24565   4.612   2.679   8.209 -0.1840 -0.4824  0.4015
 6573SOL    HW124566   4.662   2.669   8.128  1.6332 -0.9785  1.5277
 6573SOL    HW224567   4.611   2.592   8.248 -1.2362 -0.2963  0.8435
 6574SOL     OW24568   1.961   3.350   4.892 -0.3950  0.2002 -0.2894
 6574SOL    HW124569   1.979   3.437   4.856 -1.6571  0.7472  0.3322
 6574SOL    HW224570   1.908   3.366   4.970 -2.5447 -1.1731 -1.3458
 6575SOL     OW24571   2.706   8.469   7.621  0.4996 -0.1800  0.4626
 6575SOL    HW124572   2.704   8.562   7.645  2.2044  0.0481 -0.0940
 6575SOL    HW224573   2.668   8.465   7.534 -1.3710 -0.3280  1.2342
 6576SOL     OW24574   2.137   7.471   1.484 -0.4149  0.7505 -0.4500
 6576SOL    HW124575   2.076   7.540   1.462 -1.4332  0.2490  0.6867
 6576SOL    HW224576   2.083   7.402   1.523  0.9308  0.5578  1.2036
 6577SOL     OW24577   8.670   6.485   1.045 -0.4110  0.5458 -0.6604
 6577SOL    HW124578   8.686   6.564   1.096  1.4561  0.1078 -0.4846
 6577SOL    HW224579   8.707   6.503   0.958  0.3692 -0.2256 -0.5106
 6578SOL     OW24580   7.324   8.255   4.193 -0.1955  0.0191  0.2012
 6578SOL    HW124581   7.261   8.201   4.241  0.9318 -2.2622 -0.7478
 6578SOL    HW224582   7.307   8.236   4.101  1.6279 -0.4479 -0.0868
 6579SOL     OW24583   3.632   2.298   3.893 -0.4539  0.2203 -0.0835
 6579SOL    HW124584   3.539   2.275   3.892 -0.6759  1.1302 -0.9595
 6579SOL    HW224585   3.644   2.343   3.977 -1.5205  2.8427 -1.2300
 6580SOL     OW24586   8.987   4.340   6.937  0.1079  0.4952  0.2066
 6580SOL    HW124587   8.925   4.303   6.999  0.7976 -0.3288  0.4276
 6580SOL    HW224588   8.956   4.430   6.923 -0.1541  0.6569  1.6205
 6581SOL     OW24589   4.538   1.755   1.065 -0.0031  0.4890 -0.1971
 6581SOL    HW124590   4.517   1.713   1.148  1.7735  1.6130  0.9011
 6581SOL    HW224591   4.571   1.685   1.009  0.4907  0.0033  0.6939
 6582SOL     OW24592   2.220   3.998   0.964 -1.1192 -0.3900  0.0147
 6582SOL    HW124593   2.177   4.077   0.930  0.8605  0.3146 -0.9837
 6582SOL    HW224594   2.168   3.926   0.928 -0.9500  0.4136 -1.9935
 6583SOL     OW24595   1.680   5.040   3.729  0.2160  0.3167  0.2108
 6583SOL    HW124596   1.637   4.956   3.713  0.7844  0.5464 -3.4752
 6583SOL    HW224597   1.757   5.019   3.781 -1.5951 -0.8051  2.6095
 6584SOL     OW24598   4.360   5.767   6.607  0.3892  0.4915  0.0046
 6584SOL    HW124599   4.361   5.680   6.645 -0.8889  0.2616 -0.4216
 6584SOL    HW224600   4.408   5.759   6.525  1.6650  0.5905  0.7115
 6585SOL     OW24601   1.247   4.025   6.121  0.3061 -0.5117  0.1495
 6585SOL    HW124602   1.294   4.094   6.075  1.2506 -0.6173  0.9196
 6585SOL    HW224603   1.205   4.070   6.195 -0.3544 -0.5125 -0.2186
 6586SOL     OW24604   9.444   5.311   3.735 -0.7760 -0.0236  0.1863
 6586SOL    HW124605   9.474   5.305   3.644 -1.0470  1.5396 -0.0355
 6586SOL    HW224606   9.351   5.331   3.728 -0.3030  2.8168  0.6961
 6587SOL     OW24607   1.136   3.150   4.776 -0.1293 -0.7486  1.2056
 6587SOL    HW124608   1.180   3.075   4.815  1.7568  0.7095  2.0267
 6587SOL    HW224609   1.207   3.203   4.738 -0.9934  1.9855  3.0537
 6588SOL     OW24610   6.256   0.900   6.938  0.0980 -0.2574  0.3412
 6588SOL    HW124611   6.164   0.889   6.962  0.5071 -1.3994  1.5142
 6588SOL    HW224612   6.281   0.985   6.974 -0.9244  0.9226 -1.5463
 6589SOL     OW24613   7.178   5.192   2.808  0.0654 -0.1622  0.5841
 6589SOL    HW124614   7.089   5.226   2.815  0.0260 -0.3166  0.8741
 6589SOL    HW224615   7.232   5.261   2.846  0.2819  0.7689 -1.2939
 6590SOL     OW24616   4.741   7.165   5.871 -0.5416 -0.1082  0.2729
 6590SOL    HW124617   4.724   7.143   5.963 -2.5490  0.1062 -0.0019
 6590SOL    HW224618   4.694   7.099   5.821 -1.3886  1.0911 -0.5717
 6591SOL     OW24619   5.060   7.404   3.482  0.3786  0.0084  0.2156
 6591SOL    HW124620   5.093   7.481   3.436  1.0477 -0.9836 -1.0350
 6591SOL    HW224621   5.077   7.331   3.422  0.0965 -1.1685  1.5107
 6592SOL     OW24622   3.367   1.970   7.576 -0.2998  0.4867 -0.0431
 6592SOL    HW124623   3.424   1.968   7.499  1.4008  0.9132  1.1209
 6592SOL    HW224624   3.426   1.948   7.649 -1.3975  1.9533  1.3613
 6593SOL     OW24625   7.860   0.163   6.792  0.7837 -0.4601 -0.6436
 6593SOL    HW124626   7.893   0.121   6.713 -0.2459 -0.6675 -0.9755
 6593SOL    HW224627   7.765   0.160   6.783  0.6706  1.3062 -0.3215
 6594SOL     OW24628   8.325   2.946   9.601  0.3831  0.4900  0.4042
 6594SOL    HW124629   8.389   2.923   9.534  0.0673 -0.8567  0.5394
 6594SOL    HW224630   8.252   2.887   9.586  0.3377  0.0978  1.9877
 6595SOL     OW24631   5.493   0.895   3.005 -0.3923 -0.3548  0.2573
 6595SOL    HW124632   5.398   0.892   3.013 -0.4752  0.8423 -0.0647
 6595SOL    HW224633   5.509   0.943   2.924  0.4940 -1.4103 -0.2176
 6596SOL     OW24634   6.000   9.032   6.255  0.3488 -0.2793  0.0354
 6596SOL    HW124635   5.993   8.949   6.208  0.4426 -0.7481  0.8264
 6596SOL    HW224636   5.918   9.039   6.304 -0.0476  0.5427 -0.7096
 6597SOL     OW24637   0.837   9.233   7.244 -0.2949  0.3402  0.1787
 6597SOL    HW124638   0.833   9.288   7.166 -0.1487  1.1722  0.7488
 6597SOL    HW224639   0.846   9.144   7.210 -0.5830  0.6583 -0.7547
 6598SOL     OW24640   4.395   0.200   5.848  0.1654  0.4960 -0.2679
 6598SOL    HW124641   4.449   0.255   5.905  1.3026 -1.0488  0.2053
 6598SOL    HW224642   4.368   0.127   5.903  0.6941 -0.6732 -1.4931
 6599SOL     OW24643   0.889   8.406   3.348  0.6153  1.1125 -0.3884
 6599SOL    HW124644   0.813   8.359   3.381  0.4983 -0.4645 -2.6756
 6599SOL    HW224645   0.962   8.374   3.400  0.3152 -0.6368 -0.9925
 6600SOL     OW24646   3.443   7.802   5.385  0.6014  0.2653 -0.0614
 6600SOL    HW124647   3.426   7.886   5.343 -0.5962  0.1397  0.1076
 6600SOL    HW224648   3.416   7.815   5.476  1.4031 -0.0024  0.2262
 6601SOL     OW24649   4.456   6.984   1.832 -0.6073  0.6002 -0.4283
 6601SOL    HW124650   4.517   7.032   1.887  0.3679  1.6736 -2.3762
 6601SOL    HW224651   4.409   6.927   1.893  0.4919  1.6449  1.4764
 6602SOL     OW24652   5.965   4.389   0.186 -0.2528  0.3048 -0.4008
 6602SOL    HW124653   6.034   4.452   0.204  0.0709  0.2946 -1.5437
 6602SOL    HW224654   5.971   4.373   0.092  0.3060 -2.1584 -0.0175
 6603SOL     OW24655   0.089   1.860   2.384 -0.2283  0.2992 -0.2253
 6603SOL    HW124656   0.134   1.943   2.368 -1.0567  1.3174  2.1973
 6603SOL    HW224657  -0.004   1.880   2.370 -0.3559 -0.4992 -0.5641
 6604SOL     OW24658   1.945   6.379   5.815 -0.1907 -0.5685  0.0212
 6604SOL    HW124659   2.012   6.433   5.857 -1.4167  0.5065  0.6925
 6604SOL    HW224660   1.979   6.362   5.727  0.5965  0.6416  0.0679
 6605SOL     OW24661   1.154   7.933   3.617  0.3365  0.3265 -0.0563
 6605SOL    HW124662   1.239   7.955   3.655  1.4162 -0.1466 -2.0217
 6605SOL    HW224663   1.143   7.994   3.544 -1.5019  1.0143  0.7344
 6606SOL     OW24664   9.258   1.039   6.851 -0.2875  0.1140  0.1952
 6606SOL    HW124665   9.201   1.116   6.839 -0.1132  0.1891 -0.1611
 6606SOL    HW224666   9.338   1.061   6.803 -0.7737 -0.8752 -1.1342
 6607SOL     OW24667   6.674   8.764   8.565  0.2460  0.6487 -0.0680
 6607SOL    HW124668   6.753   8.818   8.569  0.6614 -0.0081  1.0829
 6607SOL    HW224669   6.703   8.676   8.589 -0.2725 -0.3182 -2.6036
 6608SOL     OW24670   8.791   0.546   7.487  0.1927 -0.2739  0.1994
 6608SOL    HW124671   8.746   0.529   7.404 -0.0925  0.1502  0.2667
 6608SOL    HW224672   8.846   0.469   7.500  1.7342  0.4947 -1.3601
 6609SOL     OW24673   6.323   8.153   5.795 -0.3397 -0.7073 -0.6894
 6609SOL    HW124674   6.347   8.222   5.857  1.2327 -1.3319 -0.5557
 6609SOL    HW224675   6.302   8.200   5.714 -2.0183  0.0876  0.1576
 6610SOL     OW24676   9.629   2.786   4.522  0.4258 -0.2933 -0.4267
 6610SOL    HW124677   9.600   2.848   4.456 -0.1805 -0.7843 -0.6326
 6610SOL    HW224678   9.548   2.746   4.555  0.7755 -0.6640  0.0005
 6611SOL     OW24679   4.345   3.744   7.503 -0.3933 -0.7195  0.0761
 6611SOL    HW124680   4.341   3.652   7.528 -1.0202 -0.4863  0.8764
 6611SOL    HW224681   4.403   3.746   7.427 -1.1762 -1.9117 -0.5742
 6612SOL     OW24682   1.485   6.370   9.320  0.0033 -0.0633 -0.0874
 6612SOL    HW124683   1.538   6.450   9.309  1.3437 -1.2096 -2.6651
 6612SOL    HW224684   1.505   6.341   9.409  0.7749  1.5719  0.3179
 6613SOL     OW24685   5.121   0.397   5.181  0.5312  0.8876  0.4773
 6613SOL    HW124686   5.192   0.443   5.137  0.0616  0.9301 -0.2468
 6613SOL    HW224687   5.164   0.348   5.251  1.4687 -0.2204 -0.8267
 6614SOL     OW24688   8.587   4.313   8.973 -0.3233  0.4016 -0.0458
 6614SOL    HW124689   8.536   4.235   8.948 -1.5035  0.8304  0.9043
 6614SOL    HW224690   8.552   4.383   8.918 -0.3211  0.5703  0.1693
 6615SOL     OW24691   6.722   0.491   0.978  0.3531  0.0597  0.2487
 6615SOL    HW124692   6.806   0.537   0.982 -0.0200  0.6753  1.3709
 6615SOL    HW224693   6.727   0.439   0.898  1.9203 -0.1425  0.4486
 6616SOL     OW24694   6.731   5.130   3.629  0.1845  0.4838  0.1997
 6616SOL    HW124695   6.738   5.185   3.552  0.2143 -1.9721 -1.6854
 6616SOL    HW224696   6.637   5.125   3.647 -0.0072 -0.5065 -0.9577
 6617SOL     OW24697   2.210   7.302   9.619  0.0961 -0.0037  0.4298
 6617SOL    HW124698   2.234   7.211   9.635  1.6032  0.5486  1.6067
 6617SOL    HW224699   2.120   7.309   9.650  0.5921 -0.6838  2.1236
 6618SOL     OW24700   6.651   7.123   0.673 -0.0771  0.5245  0.3613
 6618SOL    HW124701   6.567   7.117   0.717 -0.0460  0.4106  0.4061
 6618SOL    HW224702   6.665   7.035   0.636  0.0888  0.5013  0.4790
 6619SOL     OW24703   8.582   8.003   8.902  0.0363  0.1188  0.4555
 6619SOL    HW124704   8.523   8.034   8.834 -1.4416 -1.9450  0.6703
 6619SOL    HW224705   8.547   7.916   8.926  2.8607 -0.9774  0.9957
 6620SOL     OW24706   0.847   1.754   0.394 -0.1508 -0.4831  0.9861
 6620SOL    HW124707   0.843   1.790   0.305  0.5923  2.1886  1.9070
 6620SOL    HW224708   0.760   1.718   0.410 -0.0684 -1.7132 -1.0567
 6621SOL     OW24709   9.451   9.554   7.752 -0.3783 -0.0441 -0.1240
 6621SOL    HW124710   9.407   9.498   7.817 -0.5456  0.9241  0.6125
 6621SOL    HW224711   9.460   9.638   7.796  2.0285 -0.1358 -0.3224
 6622SOL     OW24712   2.789   9.426   0.284 -0.4711 -0.2130  1.1073
 6622SOL    HW124713   2.798   9.392   0.195 -2.4212 -1.0048  1.1675
 6622SOL    HW224714   2.870   9.400   0.328  0.6108  0.3499 -0.4499
 6623SOL     OW24715   6.019   6.874   2.952  0.3497 -0.2872  0.5428
 6623SOL    HW124716   5.983   6.959   2.926 -0.1863 -0.1475  1.7087
 6623SOL    HW224717   6.021   6.877   3.047  0.6302 -1.4674  0.5849
 6624SOL     OW24718   3.394   4.373   9.462  0.2250  0.2778 -0.4507
 6624SOL    HW124719   3.379   4.448   9.405 -2.0953  2.2703  2.4338
 6624SOL    HW224720   3.475   4.395   9.509 -0.3484  0.9343  0.2531
 6625SOL     OW24721   9.123   2.171   7.631 -0.4303 -0.4933  0.3189
 6625SOL    HW124722   9.070   2.236   7.586 -0.0511 -0.6663 -0.3817
 6625SOL    HW224723   9.197   2.220   7.667 -0.5787 -0.4045  0.5063
 6626SOL     OW24724   8.614   0.004   9.572  0.2244  0.0518 -0.7764
 6626SOL    HW124725   8.659  -0.061   9.626 -0.0317 -1.1628 -1.9577
 6626SOL    HW224726   8.546  -0.046   9.527 -1.1647  1.4969 -0.3886
 6627SOL     OW24727   5.979   0.898   6.434  0.1862  0.8340  0.0195
 6627SOL    HW124728   6.013   0.969   6.488  0.4001 -0.8338  2.2292
 6627SOL    HW224729   6.041   0.827   6.445 -2.4284 -1.3610  1.9315
 6628SOL     OW24730   1.338   9.699   7.084  0.0944 -0.3644 -0.2957
 6628SOL    HW124731   1.368   9.652   7.162 -0.0575 -0.5001 -0.3191
 6628SOL    HW224732   1.264   9.751   7.113  0.1490 -0.2774 -0.3103
 6629SOL     OW24733   5.270   6.915   0.059  0.7605 -0.0206  0.2972
 6629SOL    HW124734   5.190   6.862   0.060 -0.1180  1.2659 -0.1587
 6629SOL    HW224735   5.312   6.897   0.143 -1.5425  1.5939  1.8896
 6630SOL     OW24736   2.454   0.327   9.094 -0.2053  0.0318 -0.4657
 6630SOL    HW124737   2.362   0.305   9.075 -0.8926  2.0068  0.3175
 6630SOL    HW224738   2.449   0.389   9.167  1.6369  1.6514 -1.6268
 6631SOL     OW24739   0.979   8.501   5.100  0.3419 -0.2542 -0.6490
 6631SOL    HW124740   1.034   8.458   5.033  1.4594  2.4234 -1.5714
 6631SOL    HW224741   1.041   8.532   5.166 -0.3731  0.3933 -0.2723
 6632SOL     OW24742   6.435   8.073   3.184  0.0776  0.2596 -0.1248
 6632SOL    HW124743   6.365   8.048   3.245  1.0955  0.8429  1.3231
 6632SOL    HW224744   6.455   8.164   3.206 -0.6264  1.0453 -2.4532
 6633SOL     OW24745   7.974   8.932   5.159 -0.1580  0.1763 -0.1967
 6633SOL    HW124746   7.919   9.000   5.120  0.3508  1.9801  2.0366
 6633SOL    HW224747   8.063   8.964   5.149 -0.0221  0.8694  2.5493
 6634SOL     OW24748   8.679   1.874   8.502 -0.1670 -0.0934  0.7589
 6634SOL    HW124749   8.734   1.933   8.553 -0.9147  0.9619  0.3698
 6634SOL    HW224750   8.621   1.833   8.566  0.1677 -0.2052  0.9931
 6635SOL     OW24751   2.211   4.440   3.260  0.2043  0.2847  0.4296
 6635SOL    HW124752   2.273   4.493   3.310 -0.9778  2.2961 -0.1556
 6635SOL    HW224753   2.214   4.476   3.172 -0.9508 -0.3443  0.1173
 6636SOL     OW24754   8.148   9.699   9.403  0.4012  0.2433  0.1647
 6636SOL    HW124755   8.165   9.609   9.431 -0.6022 -0.0836 -0.2421
 6636SOL    HW224756   8.211   9.751   9.452  0.8005 -0.6467  0.6269
 6637SOL     OW24757   3.178   1.021   4.520 -0.0218 -0.1757  0.2208
 6637SOL    HW124758   3.164   0.950   4.458  0.5150 -0.0634 -0.0389
 6637SOL    HW224759   3.092   1.037   4.558 -0.0942 -1.1349  0.4786
 6638SOL     OW24760   7.875   6.879   3.510 -0.0834  0.1140 -0.4213
 6638SOL    HW124761   7.851   6.970   3.493 -0.7329 -0.3066 -1.9002
 6638SOL    HW224762   7.890   6.876   3.605  0.0793  1.7730 -0.3562
 6639SOL     OW24763   6.343   6.099   6.724 -0.3221 -0.3672  0.6453
 6639SOL    HW124764   6.253   6.087   6.695 -0.3304 -1.6966  1.1306
 6639SOL    HW224765   6.388   6.020   6.694  0.8039  0.4815 -0.0025
 6640SOL     OW24766   8.476   0.026   7.759 -0.8277  0.1432  0.1445
 6640SOL    HW124767   8.466  -0.063   7.726  0.6952 -0.5556  1.4651
 6640SOL    HW224768   8.561   0.055   7.726 -0.6084  0.5212  1.0103
 6641SOL     OW24769   5.179   0.167   1.112 -0.4369 -0.3904  0.0363
 6641SOL    HW124770   5.260   0.116   1.111 -1.1706 -1.6444  0.9090
 6641SOL    HW224771   5.197   0.242   1.167  0.9379  0.8456 -1.9578
 6642SOL     OW24772   5.863   8.454   7.661  0.4811  0.0957 -0.4160
 6642SOL    HW124773   5.924   8.522   7.634 -0.4681  0.6486 -1.2340
 6642SOL    HW224774   5.903   8.372   7.633 -0.0630  0.5821 -2.8314
 6643SOL     OW24775   9.618   8.900   1.485  0.8678  0.2164 -0.2595
 6643SOL    HW124776   9.679   8.964   1.451  0.6368  0.0050 -1.1096
 6643SOL    HW224777   9.580   8.859   1.407 -1.6902  1.5768  0.1503
 6644SOL     OW24778   7.721   4.029   6.020 -0.3471 -0.8272 -0.2326
 6644SOL    HW124779   7.739   4.063   6.108 -0.4255 -2.6312  0.5130
 6644SOL    HW224780   7.681   4.103   5.973  0.2640  0.3491  1.0366
 6645SOL     OW24781   9.410   5.683   4.787  0.0664 -0.0514  0.0118
 6645SOL    HW124782   9.457   5.753   4.832 -1.3657  0.2670  1.0898
 6645SOL    HW224783   9.352   5.728   4.726 -1.2570 -0.2421  1.1003
 6646SOL     OW24784   5.386   9.347   6.311 -0.3724  0.1878 -0.1500
 6646SOL    HW124785   5.446   9.375   6.241  0.7409 -0.7835  0.3741
 6646SOL    HW224786   5.365   9.428   6.358  1.0532  0.4776  0.0430
 6647SOL     OW24787   5.590   4.809   5.970  0.1237  0.6496 -0.1554
 6647SOL    HW124788   5.532   4.795   5.896  1.3034  1.8492 -1.3711
 6647SOL    HW224789   5.556   4.888   6.012 -1.3903 -0.7850  1.5228
 6648SOL     OW24790   0.222   1.479   2.416  0.1172  0.2066  0.0860
 6648SOL    HW124791   0.172   1.548   2.373  0.9657  1.5479  1.1850
 6648SOL    HW224792   0.188   1.476   2.505  1.1448  0.3048  0.4993
 6649SOL     OW24793   8.982   4.188   0.877 -0.2301 -0.0208 -0.9387
 6649SOL    HW124794   9.013   4.196   0.787  0.5550  0.9300 -0.5972
 6649SOL    HW224795   9.023   4.108   0.909  1.2989  0.8183 -0.7351
 6650SOL     OW24796   7.847   8.943   2.813 -0.1475  0.2261  0.5982
 6650SOL    HW124797   7.757   8.927   2.844 -1.5045 -0.7632 -3.2149
 6650SOL    HW224798   7.835   8.981   2.726  3.1507 -0.5288 -0.3029
 6651SOL     OW24799   7.730   1.458   4.901  0.1614 -0.4735  0.0912
 6651SOL    HW124800   7.817   1.425   4.877 -0.1044 -0.2000 -1.3892
 6651SOL    HW224801   7.732   1.465   4.996  2.8700  2.4235 -0.0015
 6652SOL     OW24802   3.239   5.508   6.066  0.6915 -0.8738  0.0463
 6652SOL    HW124803   3.292   5.564   6.123 -1.7054  2.1813 -0.4666
 6652SOL    HW224804   3.187   5.456   6.127  1.5611 -1.1715  0.5627
 6653SOL     OW24805   3.476   4.313   4.788  0.2678 -0.3436 -0.2370
 6653SOL    HW124806   3.452   4.250   4.720  0.3027  0.3080 -0.8597
 6653SOL    HW224807   3.427   4.392   4.767  0.9161  0.1357  0.0117
 6654SOL     OW24808   4.890   7.578   1.196  0.3763 -0.2923 -0.0041
 6654SOL    HW124809   4.962   7.541   1.247  1.0907 -0.9926 -1.4758
 6654SOL    HW224810   4.905   7.672   1.198 -0.5334 -0.1188  2.3974
 6655SOL     OW24811   4.026   4.946   3.749 -0.2347 -0.3364 -0.1926
 6655SOL    HW124812   3.968   4.910   3.815  0.0539  0.6633  0.6340
 6655SOL    HW224813   4.075   4.871   3.715 -1.6679 -1.1330 -0.5988
 6656SOL     OW24814   5.922   4.913   8.319  1.0554  0.3837 -0.0880
 6656SOL    HW124815   5.860   4.942   8.252 -1.1822  1.9172  2.4351
 6656SOL    HW224816   5.906   4.820   8.329  0.4845  0.4021 -0.7752
 6657SOL     OW24817   6.070   4.104   9.024 -0.1200  0.3028  0.9776
 6657SOL    HW124818   6.049   4.131   8.934  1.5852  2.2550  1.0887
 6657SOL    HW224819   6.026   4.168   9.079 -1.1841 -0.9073  1.5775
 6658SOL     OW24820   9.669   4.236   6.062  0.4517 -0.1814  0.0385
 6658SOL    HW124821   9.584   4.196   6.083 -0.4185  2.2178  1.3976
 6658SOL    HW224822   9.673   4.233   5.966 -1.2868 -0.1135 -0.0704
 6659SOL     OW24823   1.318   1.318   4.046 -0.4048 -0.0171  0.1117
 6659SOL    HW124824   1.291   1.228   4.031 -1.0104 -0.0178  1.1240
 6659SOL    HW224825   1.384   1.335   3.978 -1.4549 -0.6774 -1.1127
 6660SOL     OW24826   6.845   1.497   6.087 -0.1594 -0.1448 -0.2039
 6660SOL    HW124827   6.872   1.580   6.124  1.3608 -0.3618 -0.7471
 6660SOL    HW224828   6.877   1.431   6.148 -0.7816 -0.3683 -0.1061
 6661SOL     OW24829   3.960   2.577   7.408  0.4204 -0.6262  0.0594
 6661SOL    HW124830   3.924   2.563   7.496  1.2726 -0.1114  0.5130
 6661SOL    HW224831   3.981   2.671   7.406  0.5337 -0.6604 -0.6521
 6662SOL     OW24832   0.523   0.510   4.832  0.2595  0.2209  0.0231
 6662SOL    HW124833   0.473   0.591   4.825  0.6051  0.6578  2.0289
 6662SOL    HW224834   0.458   0.441   4.824 -0.0205  0.6469 -1.8927
 6663SOL     OW24835   4.623   8.613   6.532 -0.2404 -0.6262 -0.1195
 6663SOL    HW124836   4.670   8.602   6.615 -0.3556 -1.8787 -0.2003
 6663SOL    HW224837   4.690   8.600   6.465 -0.4538 -1.2524 -0.2231
 6664SOL     OW24838   2.552   6.768   9.193  0.4574 -0.1092  0.4001
 6664SOL    HW124839   2.581   6.730   9.276  0.1963  0.5804  0.8167
 6664SOL    HW224840   2.468   6.728   9.176  0.9354 -0.9528 -0.0141
 6665SOL     OW24841   3.596   3.511   0.770 -0.4380  0.2900 -0.1532
 6665SOL    HW124842   3.590   3.432   0.716  1.5957  1.1834 -1.8596
 6665SOL    HW224843   3.517   3.509   0.824 -1.4834 -1.8307 -1.5834
 6666SOL     OW24844   4.242   6.918   5.349  0.1915 -0.6972  0.2642
 6666SOL    HW124845   4.151   6.944   5.358 -0.1927 -1.5093 -0.9433
 6666SOL    HW224846   4.290   7.001   5.339 -0.8452 -0.2882 -2.3237
 6667SOL     OW24847   4.842   5.642   6.160 -0.0804 -0.6393  0.1445
 6667SOL    HW124848   4.778   5.585   6.202 -1.5952  0.8115 -0.0797
 6667SOL    HW224849   4.869   5.703   6.230 -0.1677 -0.2460 -0.1607
 6668SOL     OW24850   6.208   2.518   8.624 -0.0397 -0.3771  0.0680
 6668SOL    HW124851   6.231   2.475   8.541  1.0766  0.6214 -0.1691
 6668SOL    HW224852   6.117   2.545   8.612  0.3038  0.3414 -1.1092
 6669SOL     OW24853   7.130   0.658   3.075  0.3805  0.0589 -0.1207
 6669SOL    HW124854   7.186   0.593   3.117  0.1787  0.6057  1.0371
 6669SOL    HW224855   7.116   0.724   3.142 -0.7422  0.4881 -0.7517
 6670SOL     OW24856   5.193   0.118   3.703 -0.0774 -0.0542 -0.0793
 6670SOL    HW124857   5.163   0.183   3.640 -0.8344 -0.6813 -0.3804
 6670SOL    HW224858   5.147   0.140   3.784 -0.5654 -0.3983 -0.2634
 6671SOL     OW24859   1.267   4.653   3.174  0.6774  0.5062 -0.9000
 6671SOL    HW124860   1.216   4.573   3.161  0.3668  0.5880 -0.2242
 6671SOL    HW224861   1.209   4.724   3.147  0.8834  0.5210 -1.3142
 6672SOL     OW24862   3.435   8.825   8.051  0.4084  0.0813  0.2272
 6672SOL    HW124863   3.363   8.883   8.072 -1.1457 -1.5976 -0.1988
 6672SOL    HW224864   3.395   8.753   8.003  2.2152 -1.3737  0.7584
 6673SOL     OW24865   7.808   8.926   4.320 -0.7795 -0.2152 -0.3390
 6673SOL    HW124866   7.855   8.856   4.366  0.6274  0.4500 -0.7036
 6673SOL    HW224867   7.775   8.884   4.240 -2.1533 -1.0621  0.6257
 6674SOL     OW24868   3.794   8.183   3.478 -0.3371 -0.3377 -0.3437
 6674SOL    HW124869   3.734   8.200   3.550  2.9522  2.9372  1.9948
 6674SOL    HW224870   3.754   8.226   3.402 -1.9996 -0.3368  0.4975
 6675SOL     OW24871   6.043   5.515   0.853  0.1673 -0.2623  0.1171
 6675SOL    HW124872   6.113   5.579   0.870 -0.4568  0.2106  1.0223
 6675SOL    HW224873   6.075   5.434   0.893  0.3165 -0.1119  0.3071
 6676SOL     OW24874   0.281   2.599   4.793 -0.3492  0.0068 -0.1665
 6676SOL    HW124875   0.278   2.622   4.700 -2.3343 -0.6893 -0.3233
 6676SOL    HW224876   0.201   2.548   4.808  1.3787 -2.4669  1.2840
 6677SOL     OW24877   7.519   6.022   2.839  0.0294  0.0863  0.2476
 6677SOL    HW124878   7.558   6.092   2.786  0.4906 -0.9144 -0.7832
 6677SOL    HW224879   7.425   6.039   2.836  0.0386  0.0350 -0.9453
 6678SOL     OW24880   0.918   6.631   3.387 -0.2114 -0.2897  0.7644
 6678SOL    HW124881   0.884   6.662   3.471 -0.4545 -2.1415  1.4086
 6678SOL    HW224882   0.849   6.572   3.355  0.0808  0.0456 -0.5304
 6679SOL     OW24883   3.171   3.632   4.026  0.0030 -0.2167 -0.0271
 6679SOL    HW124884   3.260   3.637   3.991  0.1661  0.9541  0.5333
 6679SOL    HW224885   3.147   3.722   4.045 -1.2932 -0.5197 -0.1139
 6680SOL     OW24886   2.156   0.291   6.819  0.4607  0.7449 -0.1270
 6680SOL    HW124887   2.110   0.229   6.762  1.9964 -0.6293  0.0422
 6680SOL    HW224888   2.087   0.346   6.856 -1.0925 -1.3506  0.2905
 6681SOL     OW24889   9.717   8.582   5.872  0.5556  0.2880  0.4113
 6681SOL    HW124890   9.760   8.581   5.958  1.0844 -0.8515  0.1572
 6681SOL    HW224891   9.624   8.571   5.892  0.8173 -1.5706  0.8028
 6682SOL     OW24892   7.051   9.670   3.755 -0.0777 -0.0376 -0.2488
 6682SOL    HW124893   7.129   9.680   3.700 -1.4897  1.5973 -2.1180
 6682SOL    HW224894   7.020   9.581   3.738  0.0430  0.1289 -1.4006
 6683SOL     OW24895   9.190   8.729   3.278  0.1695  0.0035 -0.1469
 6683SOL    HW124896   9.117   8.779   3.243  0.1177 -0.6070 -0.9518
 6683SOL    HW224897   9.259   8.794   3.292 -0.1040  0.3952 -0.5772
 6684SOL     OW24898   3.735   0.393   8.160 -0.5939 -0.4216 -0.0991
 6684SOL    HW124899   3.792   0.433   8.095 -1.9713 -0.2355 -1.2510
 6684SOL    HW224900   3.760   0.301   8.161 -0.6067 -0.4463 -0.9834
 6685SOL     OW24901   2.706   4.789   6.233 -0.1237 -0.2861  0.1640
 6685SOL    HW124902   2.696   4.748   6.148 -0.2177 -0.8548  0.4465
 6685SOL    HW224903   2.741   4.876   6.214 -0.0008 -0.4667 -0.4404
 6686SOL     OW24904   5.710   1.884   8.647  0.8683  0.1114  0.7312
 6686SOL    HW124905   5.801   1.914   8.656  1.3180 -1.3156  1.3462
 6686SOL    HW224906   5.680   1.872   8.737  0.1959  0.1970  0.5253
 6687SOL     OW24907   5.300   3.397   5.736  0.2405  0.2103 -0.7478
 6687SOL    HW124908   5.224   3.369   5.788  1.7270 -0.8006  0.9836
 6687SOL    HW224909   5.306   3.333   5.665 -1.0248  0.8478 -1.4843
 6688SOL     OW24910   4.677   2.038   0.446 -0.7178  0.2794 -0.6909
 6688SOL    HW124911   4.751   2.042   0.507 -0.6213 -0.8946 -0.7005
 6688SOL    HW224912   4.632   1.956   0.469 -0.6047 -0.2636 -2.2718
 6689SOL     OW24913   1.388   3.651   1.614 -0.0673  0.2887  0.0913
 6689SOL    HW124914   1.478   3.662   1.582 -0.4294 -3.2476 -2.8083
 6689SOL    HW224915   1.396   3.586   1.684 -0.3888 -1.3325 -1.2988
 6690SOL     OW24916   1.971   3.055   7.413  0.2341  0.6948  0.2001
 6690SOL    HW124917   1.928   3.129   7.370 -0.4241  0.8353  1.0652
 6690SOL    HW224918   1.911   2.982   7.402  0.5554  0.4654 -0.0391
 6691SOL     OW24919   4.027   5.739   0.740 -0.0941 -0.0301  0.3912
 6691SOL    HW124920   3.973   5.817   0.727  0.1040  0.1481  0.6149
 6691SOL    HW224921   4.011   5.685   0.663  0.6058  0.7283 -0.3058
 6692SOL     OW24922   7.692   1.874   8.564 -0.5237  0.7694 -0.1874
 6692SOL    HW124923   7.771   1.855   8.613 -0.6501  1.7184  0.4196
 6692SOL    HW224924   7.632   1.803   8.585  1.0579 -1.5807 -2.8876
 6693SOL     OW24925   3.057   4.025   0.369  0.6178 -0.4000 -0.5135
 6693SOL    HW124926   2.963   4.020   0.356  0.4076  0.4932  0.5193
 6693SOL    HW224927   3.082   4.110   0.335  1.3094 -1.1806 -2.0701
 6694SOL     OW24928   1.918   2.814   0.292  0.3550 -0.3310  0.4332
 6694SOL    HW124929   1.850   2.829   0.357  0.6067  0.4677  0.5270
 6694SOL    HW224930   1.899   2.876   0.222 -0.4787 -1.8461 -0.7351
 6695SOL     OW24931   6.616   3.490   0.052  0.3153 -0.3801 -0.2150
 6695SOL    HW124932   6.698   3.538   0.065 -0.8882  1.0638  3.1738
 6695SOL    HW224933   6.632   3.404   0.089 -0.0063  0.3521  1.7432
 6696SOL     OW24934   1.039   1.917   6.145  0.1007  0.5774  0.0669
 6696SOL    HW124935   1.021   1.881   6.059 -3.7159 -0.3264  1.0434
 6696SOL    HW224936   1.022   2.011   6.136 -1.0020  0.3779 -0.0526
 6697SOL     OW24937   9.667   8.813   3.201 -0.0024 -0.0595 -0.5599
 6697SOL    HW124938   9.584   8.854   3.227  0.7428  0.5382  1.0265
 6697SOL    HW224939   9.651   8.719   3.209 -0.6817  0.0252 -0.8098
 6698SOL     OW24940   7.838   1.701   2.343  0.4512  0.1098 -0.1300
 6698SOL    HW124941   7.867   1.716   2.253 -0.3387 -1.3125 -0.6375
 6698SOL    HW224942   7.764   1.641   2.335  0.7756 -0.5453  1.5217
 6699SOL     OW24943   2.451   1.959   2.686  0.3439 -0.1993  0.1287
 6699SOL    HW124944   2.488   1.883   2.731  1.9711  0.8878  0.6987
 6699SOL    HW224945   2.439   1.931   2.595  1.1408 -1.0570  0.2827
 6700SOL     OW24946   5.267   1.515   8.416 -0.2480  0.1696  0.5560
 6700SOL    HW124947   5.318   1.519   8.497  0.9657  0.5314 -0.2106
 6700SOL    HW224948   5.179   1.540   8.443  0.1502  0.3724  1.7536
 6701SOL     OW24949   0.804   2.653   0.617 -0.1365 -0.2256 -0.0875
 6701SOL    HW124950   0.769   2.732   0.660 -1.3550 -1.2458  0.9001
 6701SOL    HW224951   0.753   2.581   0.655  1.4822 -1.5862 -0.3684
 6702SOL     OW24952   8.941   3.347   5.142 -0.1943 -0.2197  0.3731
 6702SOL    HW124953   8.935   3.279   5.075 -0.6448  1.4829 -1.4052
 6702SOL    HW224954   9.034   3.355   5.159  0.1905  1.0222 -1.9584
 6703SOL     OW24955   9.636   7.713   3.824 -0.5575 -0.3193  0.1531
 6703SOL    HW124956   9.700   7.759   3.770  0.6286  1.7255  3.0688
 6703SOL    HW224957   9.576   7.781   3.855 -1.7182 -1.5475  0.7431
 6704SOL     OW24958   1.968   4.160   7.331 -0.6793 -0.8848  0.3945
 6704SOL    HW124959   1.893   4.103   7.314  0.2351 -2.0489  0.1268
 6704SOL    HW224960   1.942   4.245   7.295 -2.5178 -0.7866  1.8206
 6705SOL     OW24961   1.127   8.785   2.481 -0.5384  0.2359 -0.1308
 6705SOL    HW124962   1.075   8.853   2.437  1.1514  0.8002 -1.3519
 6705SOL    HW224963   1.183   8.833   2.541 -0.8227 -0.2933  0.5641
 6706SOL     OW24964   6.079   7.920   7.066 -0.2286  0.1357  0.5610
 6706SOL    HW124965   6.160   7.906   7.115 -1.3681 -0.8295  2.2692
 6706SOL    HW224966   6.048   7.832   7.044 -0.2646  0.5277 -1.0755
 6707SOL     OW24967   0.978   5.569   6.069  0.1699  1.0747 -0.2648
 6707SOL    HW124968   0.928   5.650   6.070 -0.7332  0.5366 -0.4644
 6707SOL    HW224969   1.051   5.585   6.129 -0.1393  1.9394 -0.1064
 6708SOL     OW24970   9.717   0.135   5.774 -0.2471  0.2467 -0.5509
 6708SOL    HW124971   9.638   0.130   5.828 -0.6450 -0.2788 -1.1716
 6708SOL    HW224972   9.770   0.060   5.801  0.2646  0.8541  0.1896
 6709SOL     OW24973   1.629   1.670   1.530  0.1889 -0.7247  0.8549
 6709SOL    HW124974   1.692   1.605   1.560  1.8489 -0.5639 -1.9535
 6709SOL    HW224975   1.667   1.754   1.557  0.5914 -0.6884  0.1882
 6710SOL     OW24976   5.033   2.955   4.322  0.3393  0.2454  0.4599
 6710SOL    HW124977   4.971   2.976   4.253  2.1608 -0.0394 -1.3435
 6710SOL    HW224978   4.993   2.880   4.368 -0.8325  0.3521 -0.3414
 6711SOL     OW24979   7.049   3.379   1.782 -0.5382  0.5908 -0.1321
 6711SOL    HW124980   7.126   3.405   1.731  0.4773  1.5365  1.8202
 6711SOL    HW224981   7.079   3.304   1.833 -1.5216 -0.2684 -0.7624
 6712SOL     OW24982   5.911   7.678   1.534 -0.1542  0.9580  0.0326
 6712SOL    HW124983   5.982   7.725   1.490 -0.4145  1.5675  0.2521
 6712SOL    HW224984   5.863   7.636   1.462  0.1089  0.9894 -0.1640
 6713SOL     OW24985   4.437   5.572   1.196 -0.2606 -0.0701 -0.0716
 6713SOL    HW124986   4.503   5.566   1.127 -0.9281  1.2512 -0.8835
 6713SOL    HW224987   4.487   5.591   1.275  0.5436 -1.8770 -0.1021
 6714SOL     OW24988   4.885   2.359   8.648  0.1242 -0.1819  0.9571
 6714SOL    HW124989   4.814   2.301   8.677  0.7028 -2.0807 -1.1149
 6714SOL    HW224990   4.916   2.400   8.728 -1.4465 -1.4613  2.3185
 6715SOL     OW24991   0.865   6.646   1.059  0.7002 -0.0978  0.5840
 6715SOL    HW124992   0.779   6.686   1.070  0.7855  0.2651 -0.0522
 6715SOL    HW224993   0.888   6.616   1.147  0.0822  0.1149  0.8284
 6716SOL     OW24994   7.615   9.576   6.652  0.8739 -0.5574 -0.0465
 6716SOL    HW124995   7.649   9.641   6.713  0.8173 -0.7483  0.1887
 6716SOL    HW224996   7.686   9.513   6.643  1.0958 -0.2413 -0.6083
 6717SOL     OW24997   7.263   7.374   5.878 -0.0539 -0.7633  0.0492
 6717SOL    HW124998   7.288   7.287   5.911 -0.7974 -0.7106  0.7955
 6717SOL    HW224999   7.168   7.374   5.882 -0.1604 -0.6374 -1.8786
 6718SOL     OW25000   3.467   6.315   4.141  0.0139  0.2604 -0.4384
 6718SOL    HW125001   3.466   6.317   4.237 -0.2134 -1.3922 -0.3810
 6718SOL    HW225002   3.501   6.402   4.116  0.8524  0.4322  1.1464
 6719SOL     OW25003   0.138   4.801   4.024 -0.6827 -0.1908  0.3523
 6719SOL    HW125004   0.094   4.738   4.082  0.2936  0.8896  2.3535
 6719SOL    HW225005   0.186   4.859   4.083  0.8956  0.5963 -1.5972
 6720SOL     OW25006   2.556   9.392   8.571 -0.7551  0.1376 -0.0513
 6720SOL    HW125007   2.498   9.445   8.626 -0.5499  1.7216 -1.2742
 6720SOL    HW225008   2.641   9.434   8.579  0.0315 -1.5252  0.8713
 6721SOL     OW25009   5.985   4.736   1.462 -0.1593 -0.0574 -0.1797
 6721SOL    HW125010   6.042   4.703   1.393 -1.0063 -1.5739 -0.1926
 6721SOL    HW225011   6.013   4.689   1.541 -0.9940 -0.3651 -0.0630
 6722SOL     OW25012   0.780   7.506   4.090  0.5637  0.4613  0.0945
 6722SOL    HW125013   0.872   7.526   4.108  0.9835 -0.1227 -1.2747
 6722SOL    HW225014   0.783   7.437   4.024 -0.8733 -0.2230  0.7052
 6723SOL     OW25015   2.605   0.448   1.803  0.2447  0.0782  0.2115
 6723SOL    HW125016   2.614   0.372   1.862 -0.9761  0.4588  0.9266
 6723SOL    HW225017   2.564   0.412   1.725  0.4755 -0.1562  0.1947
 6724SOL     OW25018   2.913   4.043   2.964  0.0967  0.5606 -0.0217
 6724SOL    HW125019   2.918   4.056   3.058 -1.1222  0.4933  0.0681
 6724SOL    HW225020   2.893   4.129   2.928 -2.5901  0.0686  0.0957
 6725SOL     OW25021   0.004   5.014   0.050  1.0078 -0.4289 -0.1120
 6725SOL    HW125022   0.083   4.973   0.086 -1.3408 -3.1587  2.4520
 6725SOL    HW225023  -0.032   4.948  -0.009 -0.7802 -0.4980  0.9803
 6726SOL     OW25024   6.231   8.383   7.283  0.3852 -0.2613 -0.5014
 6726SOL    HW125025   6.145   8.366   7.244  0.0861 -1.1098  0.4672
 6726SOL    HW225026   6.265   8.297   7.304  0.2864  0.1432  1.5690
 6727SOL     OW25027   1.278   1.040   8.001 -0.1763 -0.1135 -0.5731
 6727SOL    HW125028   1.302   0.948   8.001  0.4831  0.0576 -0.6430
 6727SOL    HW225029   1.342   1.082   7.944 -0.1258  0.4775 -0.0865
 6728SOL     OW25030   8.428   3.182   0.479 -0.4790  0.0222 -0.5282
 6728SOL    HW125031   8.416   3.267   0.437  1.6022 -0.2885 -1.9204
 6728SOL    HW225032   8.457   3.124   0.408 -0.7486 -1.5547  0.6034
 6729SOL     OW25033   3.388   3.620   7.673 -0.1853 -0.2894  0.6327
 6729SOL    HW125034   3.432   3.629   7.588  0.6116 -1.8553  0.8475
 6729SOL    HW225035   3.378   3.710   7.704 -0.0473  0.2895 -0.8909
 6730SOL     OW25036   6.644   3.006   9.494  0.7084 -0.1774  0.6249
 6730SOL    HW125037   6.738   2.989   9.505  0.4108 -3.9200 -1.1262
 6730SOL    HW225038   6.637   3.044   9.407  0.5687  0.2303  0.8100
 6731SOL     OW25039   3.198   0.892   5.785 -0.0670 -0.1518 -0.6276
 6731SOL    HW125040   3.180   0.813   5.836  0.1796 -0.0771 -0.4170
 6731SOL    HW225041   3.246   0.949   5.846  1.3501 -0.5657 -1.3021
 6732SOL     OW25042   4.296   0.410   6.744  0.5160  0.5057 -0.2214
 6732SOL    HW125043   4.344   0.420   6.662 -0.2369  2.3310 -0.4902
 6732SOL    HW225044   4.345   0.461   6.808  0.7562 -0.3953  0.3229
 6733SOL     OW25045   2.651   7.278   3.788 -0.2894 -0.7064 -0.0846
 6733SOL    HW125046   2.743   7.273   3.814  0.2506  0.5233 -1.6309
 6733SOL    HW225047   2.615   7.192   3.810  0.5284 -0.3845  2.9493
 6734SOL     OW25048   1.514   8.112   1.728 -0.3025 -0.0535  0.0429
 6734SOL    HW125049   1.602   8.101   1.692  0.1033  0.9326  0.6908
 6734SOL    HW225050   1.497   8.032   1.777  0.4933  0.0153  0.4379
 6735SOL     OW25051   7.733   3.872   3.729  0.1920  0.2952  0.6834
 6735SOL    HW125052   7.825   3.863   3.755 -0.4090  0.3133  2.9713
 6735SOL    HW225053   7.685   3.879   3.811 -1.5698  3.4647 -0.4572
 6736SOL     OW25054   8.855   0.545   5.654 -0.0256 -0.7644  0.2690
 6736SOL    HW125055   8.859   0.641   5.646  1.4493 -0.8284  0.1103
 6736SOL    HW225056   8.878   0.529   5.746 -1.4462 -0.9240  0.6233
 6737SOL     OW25057   1.782   7.922   2.255 -0.1826 -0.7943 -0.0946
 6737SOL    HW125058   1.702   7.956   2.213  0.9317  0.4580 -1.3166
 6737SOL    HW225059   1.752   7.886   2.338 -1.7437  1.7759  0.5757
 6738SOL     OW25060   5.338   3.341   8.715  0.1245  0.0003 -0.1742
 6738SOL    HW125061   5.292   3.406   8.768 -1.6675 -0.8025 -0.6379
 6738SOL    HW225062   5.352   3.384   8.631 -0.2658  0.0943 -0.1944
 6739SOL     OW25063   6.340   2.897   5.374 -0.4418  0.5530  0.7294
 6739SOL    HW125064   6.421   2.900   5.324 -0.7434 -0.9634  0.1031
 6739SOL    HW225065   6.287   2.831   5.330 -1.3681  0.3310  2.1188
 6740SOL     OW25066   3.359   3.257   7.503 -0.0583 -0.3557  0.0266
 6740SOL    HW125067   3.353   3.338   7.453 -3.4656 -0.8058 -0.5661
 6740SOL    HW225068   3.350   3.188   7.437 -2.1030 -1.0124  0.9103
 6741SOL     OW25069   4.559   1.977   6.147  0.4007  0.6602 -0.4074
 6741SOL    HW125070   4.580   2.007   6.059  3.2002  0.4067  0.0804
 6741SOL    HW225071   4.631   1.918   6.170 -0.5437  0.2808  1.8435
 6742SOL     OW25072   3.597   2.737   4.210  0.4957 -0.8396  0.1413
 6742SOL    HW125073   3.535   2.742   4.282  0.4829 -0.5609  0.1148
 6742SOL    HW225074   3.544   2.756   4.132  0.8376  0.6469  0.2444
 6743SOL     OW25075   8.165   6.981   2.984 -0.3638 -0.4406 -0.0727
 6743SOL    HW125076   8.196   6.931   2.909 -1.0249 -1.2281  0.1673
 6743SOL    HW225077   8.158   6.917   3.055 -0.6425  0.1037  0.4020
 6744SOL     OW25078   7.294   9.676   3.627  0.1616  0.2935  0.6570
 6744SOL    HW125079   7.352   9.744   3.591  1.2895 -1.0345 -0.1249
 6744SOL    HW225080   7.332   9.655   3.712  1.4152 -1.1572 -0.1926
 6745SOL     OW25081   2.327   1.080   3.229  0.0333  0.4080 -0.3359
 6745SOL    HW125082   2.270   1.127   3.290  0.6499 -0.1318  0.6689
 6745SOL    HW225083   2.342   1.142   3.158 -4.0124 -0.2824 -2.0919
 6746SOL     OW25084   6.992   1.243   7.192 -0.2003 -0.6388  0.0630
 6746SOL    HW125085   7.045   1.163   7.196 -0.3596 -0.8718 -1.5883
 6746SOL    HW225086   6.931   1.235   7.265 -0.6894 -2.3936 -0.4858
 6747SOL     OW25087   8.370   5.923   5.697 -0.5098 -0.5106 -0.0368
 6747SOL    HW125088   8.398   5.987   5.763  3.0473 -1.7403 -0.1256
 6747SOL    HW225089   8.288   5.887   5.732 -1.0503  1.9219  1.4573
 6748SOL     OW25090   4.455   9.142   7.266 -0.2911 -0.2672  0.4864
 6748SOL    HW125091   4.411   9.112   7.187 -0.0423 -0.6716  0.5034
 6748SOL    HW225092   4.405   9.103   7.338 -1.0830  0.8417  0.5671
 6749SOL     OW25093   1.088   5.724   8.051 -0.4717 -0.5564 -0.2774
 6749SOL    HW125094   1.014   5.713   7.991 -0.9709 -0.9575  0.3917
 6749SOL    HW225095   1.132   5.804   8.022 -0.7298 -0.7287 -1.1426
 6750SOL     OW25096   2.732   7.571   8.692 -0.3884 -0.7009 -0.2297
 6750SOL    HW125097   2.692   7.518   8.623  0.6808 -1.2695 -0.4286
 6750SOL    HW225098   2.766   7.647   8.646  2.6426 -2.2849 -0.8344
 6751SOL     OW25099   2.379   5.253   8.474 -0.7685 -0.0944  0.0018
 6751SOL    HW125100   2.401   5.287   8.561 -1.7174 -0.0018  0.2135
 6751SOL    HW225101   2.462   5.219   8.441 -0.5622 -0.9272  1.2885
 6752SOL     OW25102   8.470   0.034   4.171 -0.3035 -0.2760 -0.7685
 6752SOL    HW125103   8.553   0.027   4.218 -0.8122  1.2021  0.4221
 6752SOL    HW225104   8.452  -0.055   4.140  2.1197 -0.4895 -1.8003
 6753SOL     OW25105   0.206   4.558   6.121  0.1488  0.0339  0.5912
 6753SOL    HW125106   0.181   4.471   6.152  2.2966 -0.6923  0.4609
 6753SOL    HW225107   0.245   4.543   6.035  0.0969  1.1902  0.3470
 6754SOL     OW25108   2.372   3.496   0.086  0.0537  0.1233  0.0389
 6754SOL    HW125109   2.349   3.556   0.157 -1.9158 -0.4393 -0.0738
 6754SOL    HW225110   2.361   3.409   0.123 -0.7608 -0.1790 -0.8663
 6755SOL     OW25111   8.222   4.249   4.059 -0.4990  0.1723 -0.3536
 6755SOL    HW125112   8.189   4.330   4.021 -1.7097  0.2333  0.7399
 6755SOL    HW225113   8.161   4.229   4.130  1.1807 -0.4000  0.9982
 6756SOL     OW25114   7.845   2.679   7.738  0.1457  0.1577 -0.1963
 6756SOL    HW125115   7.864   2.683   7.645  0.7565 -0.0564 -0.0837
 6756SOL    HW225116   7.775   2.614   7.745  0.9351 -0.7291 -0.3818
 6757SOL     OW25117   9.197   6.177   7.967  0.2881  0.3504 -0.3334
 6757SOL    HW125118   9.106   6.205   7.977  0.4265  0.0729  3.1319
 6757SOL    HW225119   9.247   6.258   7.977  0.4844  0.3968 -1.5377
 6758SOL     OW25120   8.922   4.391   7.313 -0.3152 -0.0176 -0.4080
 6758SOL    HW125121   8.973   4.310   7.321 -0.7430 -0.3016 -0.5149
 6758SOL    HW225122   8.857   4.372   7.245  0.3504  0.8270 -1.3090
 6759SOL     OW25123   6.891   5.054   9.606  0.2290  0.0652  0.1644
 6759SOL    HW125124   6.804   5.021   9.582  1.7831 -3.9708 -0.7288
 6759SOL    HW225125   6.928   5.084   9.523  0.6158 -0.7692  0.0265
 6760SOL     OW25126   8.667   5.513   6.994  0.5992  0.2782  0.2695
 6760SOL    HW125127   8.635   5.536   6.906  1.3745  2.3253  0.4735
 6760SOL    HW225128   8.762   5.526   6.989  0.8772 -1.2099  0.9821
 6761SOL     OW25129   0.951   4.223   8.165  0.2136 -0.5035  0.2817
 6761SOL    HW125130   0.901   4.141   8.161 -1.3646  0.4447 -0.4635
 6761SOL    HW225131   0.884   4.290   8.178  1.1983  0.8998 -1.4800
 6762SOL     OW25132   2.617   8.717   3.365 -0.5428 -0.0139 -0.2655
 6762SOL    HW125133   2.540   8.704   3.310  0.2147  0.5976 -1.5332
 6762SOL    HW225134   2.686   8.668   3.320  0.1915  0.8562 -0.1005
 6763SOL     OW25135   2.003   0.023   4.376  0.5316  0.2896  0.0039
 6763SOL    HW125136   2.032   0.099   4.325  1.0990  0.5453  0.6975
 6763SOL    HW225137   2.004   0.053   4.467  0.0698 -0.3340  0.2229
 6764SOL     OW25138   0.830   5.379   9.509 -0.7564  0.6007  0.0872
 6764SOL    HW125139   0.906   5.419   9.553 -0.7406  2.0523 -1.1694
 6764SOL    HW225140   0.868   5.331   9.436 -0.9549  0.1712  0.2664
 6765SOL     OW25141   8.454   8.705   3.085  0.2913 -0.0351  0.2757
 6765SOL    HW125142   8.499   8.632   3.126  0.6111 -0.0239 -0.0413
 6765SOL    HW225143   8.498   8.783   3.119  2.2279 -0.0681 -1.8849
 6766SOL     OW25144   8.959   2.777   3.969  0.0585 -0.5426 -0.0360
 6766SOL    HW125145   8.866   2.767   3.950  0.0308  0.3164 -0.4264
 6766SOL    HW225146   8.985   2.857   3.922  1.3435 -1.5794 -1.2008
 6767SOL     OW25147   0.730   9.063   7.844 -0.2749 -0.6675  0.0875
 6767SOL    HW125148   0.683   9.040   7.764  1.0880 -1.8145 -0.4310
 6767SOL    HW225149   0.787   8.988   7.861  1.6054  0.7729  0.5033
 6768SOL     OW25150   4.483   1.671   9.026 -0.3559  0.6619  0.7829
 6768SOL    HW125151   4.561   1.672   8.970 -0.0730  1.6118  1.1779
 6768SOL    HW225152   4.462   1.578   9.036 -0.9075  0.4567 -1.5641
 6769SOL     OW25153   7.553   8.483   3.882  0.7853  0.0600 -0.0214
 6769SOL    HW125154   7.461   8.504   3.865  1.1720 -0.1433 -2.8740
 6769SOL    HW225155   7.599   8.567   3.871  0.9977  0.0985  1.0796
 6770SOL     OW25156   5.654   4.036   2.997  0.3019  0.0501 -0.1038
 6770SOL    HW125157   5.643   3.984   2.917 -0.1226 -0.0993  0.0471
 6770SOL    HW225158   5.681   3.971   3.063 -1.2054 -0.1893  0.3347
 6771SOL     OW25159   8.757   0.425   4.427 -0.4619  0.1593 -0.4706
 6771SOL    HW125160   8.683   0.482   4.407 -2.6383 -2.1389  0.3981
 6771SOL    HW225161   8.746   0.402   4.519  2.7232  1.4870  0.3699
 6772SOL     OW25162   3.292   2.507   5.289 -0.0506  0.6219  0.0806
 6772SOL    HW125163   3.288   2.411   5.283 -2.9363  0.7260 -1.1170
 6772SOL    HW225164   3.373   2.530   5.244  0.3806 -1.2166 -0.1782
 6773SOL     OW25165   0.134   8.272   3.061  0.4237  0.5802  0.5750
 6773SOL    HW125166   0.052   8.266   3.109  0.6893 -2.4526  0.8355
 6773SOL    HW225167   0.134   8.196   3.002  2.7157  0.8815  0.0598
 6774SOL     OW25168   2.643   0.173   1.967 -0.5495 -0.0616  0.2801
 6774SOL    HW125169   2.573   0.111   1.949 -2.5635  2.2962 -0.6974
 6774SOL    HW225170   2.699   0.169   1.890 -1.5284  0.3685 -0.4802
 6775SOL     OW25171   0.023   3.249   2.188 -0.5477  0.3815  0.4211
 6775SOL    HW125172   0.001   3.294   2.106 -1.6108  0.0662  0.5253
 6775SOL    HW225173  -0.052   3.192   2.206  0.1400 -0.3575  1.0575
 6776SOL     OW25174   4.897   7.737   0.824  0.3152 -0.3033 -0.2462
 6776SOL    HW125175   4.837   7.779   0.763 -0.0224  1.3944  1.2176
 6776SOL    HW225176   4.868   7.764   0.911  1.9797 -1.0691  0.5985
 6777SOL     OW25177   7.137   5.352   1.502  0.0346 -0.2524 -0.4530
 6777SOL    HW125178   7.194   5.286   1.463 -0.9580 -0.3053 -1.9135
 6777SOL    HW225179   7.088   5.306   1.570  0.7116 -0.5522 -0.1682
 6778SOL     OW25180   2.078   6.060   5.944 -0.3531 -0.0365  0.1900
 6778SOL    HW125181   2.085   6.153   5.967  0.9173  0.0376 -0.4686
 6778SOL    HW225182   2.078   6.015   6.029 -2.6156  0.6141  0.6143
 6779SOL     OW25183   4.804   2.972   4.065 -0.0974 -0.7112  0.5448
 6779SOL    HW125184   4.847   3.006   3.986  1.5883 -1.3752  1.1331
 6779SOL    HW225185   4.795   2.878   4.049 -0.4578 -0.7316  0.8411
 6780SOL     OW25186   0.220   1.494   0.486 -0.0099 -0.1558 -0.6113
 6780SOL    HW125187   0.128   1.491   0.514  0.0981  2.0851  0.1793
 6780SOL    HW225188   0.221   1.556   0.413  0.9150  0.0071 -0.4714
 6781SOL     OW25189   6.769   2.939   3.262 -0.0051  0.2276 -0.3390
 6781SOL    HW125190   6.754   3.029   3.232 -1.0968 -0.1884 -1.0934
 6781SOL    HW225191   6.705   2.925   3.331 -0.4930 -0.2893 -0.8942
 6782SOL     OW25192   0.928   5.693   2.495 -0.2925 -0.0020 -0.2884
 6782SOL    HW125193   0.884   5.714   2.412  1.8016 -0.0091 -1.4665
 6782SOL    HW225194   0.864   5.717   2.562 -1.9046  0.3959 -1.8706
 6783SOL     OW25195   9.742   9.207   4.983 -0.2965 -0.4658  0.3261
 6783SOL    HW125196   9.732   9.259   4.903 -0.9011 -0.8184  0.1714
 6783SOL    HW225197   9.775   9.123   4.953 -0.0739 -0.4443  0.5014
 6784SOL     OW25198   0.161   0.627   6.022 -0.1360 -0.5372  0.5855
 6784SOL    HW125199   0.206   0.711   6.031  1.6219 -1.4026  0.2841
 6784SOL    HW225200   0.086   0.645   5.966  0.4038  0.7570  0.2567
 6785SOL     OW25201   3.001   8.474   8.698 -0.1967  0.0748  0.2242
 6785SOL    HW125202   2.951   8.531   8.756 -0.6418 -1.0409  0.9673
 6785SOL    HW225203   3.077   8.447   8.750  0.5115  0.7161 -0.4465
 6786SOL     OW25204   5.995   7.041   6.472  0.6051  0.1236 -0.3214
 6786SOL    HW125205   6.021   7.014   6.561 -0.3296 -0.4753 -0.2150
 6786SOL    HW225206   5.921   6.984   6.451 -0.5941  1.7134 -0.6222
 6787SOL     OW25207   6.806   9.206   5.295  0.3621 -0.6181  0.0493
 6787SOL    HW125208   6.790   9.300   5.281 -0.8782 -0.7158  0.6851
 6787SOL    HW225209   6.898   9.201   5.321  0.8534  0.2573 -1.3929
 6788SOL     OW25210   7.430   6.063   9.726 -0.1238  0.3250 -0.0993
 6788SOL    HW125211   7.453   5.972   9.744 -0.1536  0.4873  0.8364
 6788SOL    HW225212   7.367   6.086   9.795  1.2827  1.6024  0.8462
 6789SOL     OW25213   8.785   2.967   6.847  0.4979 -0.1483  0.0098
 6789SOL    HW125214   8.712   2.919   6.808 -1.1057  1.0625  1.3578
 6789SOL    HW225215   8.796   3.043   6.789 -0.0717  0.2294  0.3777
 6790SOL     OW25216   5.257   1.444   1.443 -0.2217  0.5528  0.3118
 6790SOL    HW125217   5.245   1.491   1.360 -0.6543 -0.0358  0.0280
 6790SOL    HW225218   5.351   1.448   1.460 -0.1572  0.8643 -0.0964
 6791SOL     OW25219   2.022   7.552   6.484  0.8227  0.5352 -0.1768
 6791SOL    HW125220   2.071   7.608   6.424  1.3160  0.6801  0.3538
 6791SOL    HW225221   2.086   7.487   6.514  0.1315 -0.6661 -1.1971
 6792SOL     OW25222   1.986   6.202   0.783 -0.0047 -0.2222  0.0161
 6792SOL    HW125223   1.914   6.258   0.810  0.2362 -0.9092  2.3403
 6792SOL    HW225224   2.065   6.249   0.810  0.2965 -0.6189 -0.1556
 6793SOL     OW25225   0.587   0.613   4.124 -0.0377  0.7716  0.2829
 6793SOL    HW125226   0.523   0.682   4.111 -1.8522 -0.4965  1.8567
 6793SOL    HW225227   0.666   0.643   4.078 -1.4577  2.7973 -0.9517
 6794SOL     OW25228   6.868   5.362   7.547 -0.2137  0.2942 -0.5253
 6794SOL    HW125229   6.884   5.423   7.618  0.2877 -0.9016  0.4191
 6794SOL    HW225230   6.807   5.408   7.489 -1.7325  0.8073  1.3587
 6795SOL     OW25231   7.297   6.448   9.481  0.2664  0.1321 -0.6199
 6795SOL    HW125232   7.376   6.398   9.460  1.2451  1.5444 -0.4699
 6795SOL    HW225233   7.281   6.431   9.574  1.0007  0.5973 -0.3944
 6796SOL     OW25234   7.531   1.842   5.365  0.0411  0.5059  0.1378
 6796SOL    HW125235   7.552   1.750   5.382  0.5042  0.6606  0.4132
 6796SOL    HW225236   7.443   1.854   5.402 -0.8456 -0.3039 -1.5584
 6797SOL     OW25237   4.513   2.792   7.954  0.3937 -0.1150 -0.7968
 6797SOL    HW125238   4.592   2.741   7.939  2.0403  2.1795 -0.5286
 6797SOL    HW225239   4.540   2.883   7.941 -2.4193  0.7355 -1.5166
 6798SOL     OW25240   7.372   2.350   5.830  0.4295  0.3094 -0.1849
 6798SOL    HW125241   7.424   2.281   5.871 -0.0778 -1.6304 -2.5787
 6798SOL    HW225242   7.281   2.322   5.844  0.2011  0.6461 -0.9693
 6799SOL     OW25243   8.003   5.076   6.294 -0.0794  0.0197 -0.0903
 6799SOL    HW125244   7.945   5.004   6.318  1.9407 -1.3633  0.9017
 6799SOL    HW225245   7.946   5.153   6.293 -2.1847 -1.4446 -0.5341
 6800SOL     OW25246   2.437   4.202   6.540 -0.8380 -0.0090 -0.3970
 6800SOL    HW125247   2.513   4.237   6.586 -1.1104 -0.6301  0.5533
 6800SOL    HW225248   2.472   4.166   6.459 -0.4066  1.4901 -0.9091
 6801SOL     OW25249   4.949   1.533   5.312  0.2731  0.1860  0.0294
 6801SOL    HW125250   4.915   1.622   5.324 -0.5851  0.1009 -1.5084
 6801SOL    HW225251   4.874   1.476   5.326  0.5440 -0.2255 -0.1604
 6802SOL     OW25252   7.595   0.833   4.330 -0.2783  0.2962 -0.1074
 6802SOL    HW125253   7.605   0.816   4.424  1.1445  1.4734  0.0070
 6802SOL    HW225254   7.508   0.870   4.321 -0.0290  1.2061  0.9504
 6803SOL     OW25255   2.820   3.748   6.146 -0.3941 -0.2820  0.3784
 6803SOL    HW125256   2.808   3.655   6.128  1.2109 -0.4350 -0.0286
 6803SOL    HW225257   2.734   3.778   6.175 -0.8544 -1.9677  0.8652
 6804SOL     OW25258   3.822   4.577   0.961  0.0178 -0.3064  0.5583
 6804SOL    HW125259   3.898   4.545   0.913  0.8178  0.6706  1.1368
 6804SOL    HW225260   3.750   4.573   0.898  0.8410  0.0589 -0.4288
 6805SOL     OW25261   7.456   7.296   1.937 -0.2871  0.2979 -0.1669
 6805SOL    HW125262   7.361   7.306   1.943 -0.2481  0.4580  0.1924
 6805SOL    HW225263   7.489   7.325   2.022  0.0367 -0.3378 -0.0643
 6806SOL     OW25264   8.925   3.809   4.484  0.1754  0.5634 -0.1346
 6806SOL    HW125265   9.016   3.784   4.500  0.3201 -0.2123 -1.9065
 6806SOL    HW225266   8.922   3.902   4.505  1.2936  0.5298  0.2602
 6807SOL     OW25267   6.189   5.878   4.837 -0.1696 -0.1674  0.0300
 6807SOL    HW125268   6.118   5.929   4.799  1.0052  1.8761  0.4282
 6807SOL    HW225269   6.260   5.884   4.773 -0.1834 -1.8961 -0.2098
 6808SOL     OW25270   6.546   5.346   9.697  0.3451 -0.6763 -0.3767
 6808SOL    HW125271   6.495   5.370   9.620 -0.8368 -1.2945  0.1841
 6808SOL    HW225272   6.614   5.413   9.703 -0.7238  0.4726 -0.8485
 6809SOL     OW25273   7.256   4.177   1.077 -0.4104  0.4502  0.4113
 6809SOL    HW125274   7.240   4.097   1.127  0.3171  0.8988  1.3936
 6809SOL    HW225275   7.284   4.241   1.142  1.0393  0.9186 -0.6211
 6810SOL     OW25276   6.105   8.081   5.933  1.0153 -0.0079 -0.5926
 6810SOL    HW125277   6.166   8.129   5.877  1.8122 -1.4433 -0.9831
 6810SOL    HW225278   6.158   8.055   6.009  1.0367 -1.6396 -1.1369
 6811SOL     OW25279   1.289   0.676   8.548 -0.0429  0.3285 -0.4584
 6811SOL    HW125280   1.383   0.687   8.564 -0.3499  0.3079  1.6161
 6811SOL    HW225281   1.277   0.582   8.537  0.0515  0.2343  0.2310
 6812SOL     OW25282   4.751   7.157   4.610  0.1258  0.8008 -0.2072
 6812SOL    HW125283   4.664   7.149   4.649 -0.0232  0.8682 -0.5269
 6812SOL    HW225284   4.799   7.214   4.670 -0.3167  1.4717 -0.4827
 6813SOL     OW25285   5.683   1.277   0.009 -0.6261 -0.2152 -0.4650
 6813SOL    HW125286   5.712   1.332  -0.064 -2.7117  0.9665 -0.4588
 6813SOL    HW225287   5.658   1.194  -0.032 -0.2695 -0.1330 -0.8602
 6814SOL     OW25288   3.689   2.107   7.798  0.2688 -0.1337  0.3194
 6814SOL    HW125289   3.620   2.043   7.815 -0.1856  0.1609 -0.3844
 6814SOL    HW225290   3.653   2.190   7.829  1.0836 -0.2875  1.7755
 6815SOL     OW25291   1.463   8.201   7.881  0.8427  0.0562  0.0402
 6815SOL    HW125292   1.528   8.177   7.815  1.0981 -0.5848  0.5120
 6815SOL    HW225293   1.510   8.258   7.942  0.4944  0.9961 -0.5503
 6816SOL     OW25294   5.747   1.599   3.474  0.2165  0.3594 -0.4997
 6816SOL    HW125295   5.731   1.516   3.519 -1.5923  0.4844 -0.8318
 6816SOL    HW225296   5.731   1.666   3.541 -1.7280  0.5170 -1.0447
 6817SOL     OW25297   8.385   2.864   5.518 -0.1268  0.6137  0.2683
 6817SOL    HW125298   8.327   2.825   5.583 -0.1897  0.5577  0.1793
 6817SOL    HW225299   8.337   2.856   5.436  0.7374 -1.0646 -0.1164
 6818SOL     OW25300   7.654   6.049   7.006  0.4871  0.6687  0.5338
 6818SOL    HW125301   7.614   6.136   6.997 -3.7556 -1.0709  0.5774
 6818SOL    HW225302   7.683   6.026   6.918  0.5557  1.6125  0.2969
 6819SOL     OW25303   2.944   2.707   3.889  0.5508  0.4493 -1.3943
 6819SOL    HW125304   2.910   2.618   3.903 -0.8645  0.8867 -1.8975
 6819SOL    HW225305   2.964   2.739   3.976 -0.1821  0.1079 -1.0924
 6820SOL     OW25306   5.802   6.362   8.759  0.1709 -0.5531  0.1475
 6820SOL    HW125307   5.772   6.317   8.838 -0.7377 -0.5151 -0.1709
 6820SOL    HW225308   5.866   6.425   8.792 -0.5298 -0.2159  0.9281
 6821SOL     OW25309   1.862   6.604   2.361 -0.4193  0.1117  0.3844
 6821SOL    HW125310   1.889   6.529   2.309  0.0089 -0.3187  1.2052
 6821SOL    HW225311   1.766   6.603   2.357 -0.3869  0.3197 -0.7008
 6822SOL     OW25312   8.749   3.780   8.490 -0.5084  0.1523  0.1151
 6822SOL    HW125313   8.827   3.783   8.546 -1.4105  1.5618  1.3810
 6822SOL    HW225314   8.781   3.745   8.407  0.8388 -2.4326  1.5672
 6823SOL     OW25315   0.867   0.831   2.467 -0.0951  0.3932  0.0504
 6823SOL    HW125316   0.913   0.764   2.417  0.2759 -0.3549  1.3522
 6823SOL    HW225317   0.927   0.905   2.468  1.1206 -0.5501  1.6726
 6824SOL     OW25318   4.816   6.648   6.924  0.2855  0.3188  0.3387
 6824SOL    HW125319   4.882   6.681   6.862 -1.1235 -0.8907 -1.9502
 6824SOL    HW225320   4.794   6.561   6.891 -1.6861  0.2629  1.6680
 6825SOL     OW25321   4.687   9.595   5.728  0.1140  0.1258 -0.2721
 6825SOL    HW125322   4.641   9.565   5.650  1.3406  1.5480 -1.5965
 6825SOL    HW225323   4.640   9.554   5.800 -1.8716 -0.1846 -1.6619
 6826SOL     OW25324   2.906   2.667   1.222 -0.4465  0.4372  0.1273
 6826SOL    HW125325   2.933   2.635   1.308 -0.3476  0.7366  0.2100
 6826SOL    HW225326   2.887   2.588   1.172 -1.2704  0.2684  0.6742
 6827SOL     OW25327   7.763   6.746   1.783  0.4344 -0.1671  0.1147
 6827SOL    HW125328   7.783   6.831   1.745  0.6421 -0.2282  0.0850
 6827SOL    HW225329   7.847   6.713   1.815 -0.0528  0.7891  2.5343
 6828SOL     OW25330   8.152   5.350   9.408  0.0582 -0.6891  0.2590
 6828SOL    HW125331   8.233   5.302   9.421  0.1776 -0.5252  0.1390
 6828SOL    HW225332   8.170   5.437   9.443  0.1952 -0.4180 -0.4589
 6829SOL     OW25333   2.569   2.779   9.467  0.5252  0.6593 -0.1603
 6829SOL    HW125334   2.501   2.749   9.407  1.7532 -0.0346 -1.2592
 6829SOL    HW225335   2.542   2.746   9.552 -1.8492  2.6352 -0.0609
 6830SOL     OW25336   5.536   0.164   2.484 -0.2082 -0.0650 -0.1682
 6830SOL    HW125337   5.516   0.137   2.394  1.5559 -1.6156 -0.1546
 6830SOL    HW225338   5.457   0.146   2.533 -0.7266 -0.5342 -1.1440
 6831SOL     OW25339   6.767   4.424   6.455 -0.1073 -0.0260 -0.5528
 6831SOL    HW125340   6.677   4.400   6.475  0.1220 -0.2845  0.1936
 6831SOL    HW225341   6.766   4.519   6.444 -0.4832 -0.0408 -0.6466
 6832SOL     OW25342   8.478   6.854   4.784 -0.1279  0.1912  0.4123
 6832SOL    HW125343   8.415   6.785   4.804 -0.1928  0.5151  1.3596
 6832SOL    HW225344   8.424   6.930   4.761 -0.0701  0.1874  0.2646
 6833SOL     OW25345   0.204   0.072   6.189  0.2768  0.4361 -0.1799
 6833SOL    HW125346   0.211   0.091   6.283 -2.1733  2.4736 -0.2852
 6833SOL    HW225347   0.243   0.148   6.146  0.4324  0.0172 -0.7966
 6834SOL     OW25348   5.339   8.184   4.030 -0.4959 -0.1449 -0.2782
 6834SOL    HW125349   5.260   8.143   4.066  0.5611 -1.3904  0.6989
 6834SOL    HW225350   5.356   8.258   4.088 -1.2021  0.4403 -0.7915
 6835SOL     OW25351   1.115   0.028   8.085  0.3069 -0.1548 -0.4685
 6835SOL    HW125352   1.175  -0.028   8.037 -0.5118 -0.8122 -0.7510
 6835SOL    HW225353   1.035  -0.025   8.095  0.0552  0.3991  0.5906
 6836SOL     OW25354   2.616   5.437   6.646  0.8360  0.2405 -0.1931
 6836SOL    HW125355   2.621   5.404   6.556 -0.7555 -0.3521 -0.0965
 6836SOL    HW225356   2.635   5.530   6.638  1.2083  0.1045 -1.0683
 6837SOL     OW25357   8.074   8.275   3.276  0.7767 -0.3446 -0.1529
 6837SOL    HW125358   8.064   8.319   3.191 -2.3677  0.7174  0.6205
 6837SOL    HW225359   8.047   8.185   3.259 -0.1069 -0.0702 -0.2634
 6838SOL     OW25360   3.992   8.796   3.337 -0.1775  0.0506 -0.0470
 6838SOL    HW125361   4.042   8.828   3.413 -0.5469  0.5600 -0.0127
 6838SOL    HW225362   4.058   8.783   3.269  0.1672 -0.4648  0.3720
 6839SOL     OW25363   2.478   6.596   3.703 -0.6872 -0.7924 -0.0359
 6839SOL    HW125364   2.510   6.571   3.616 -0.5369  0.7436 -0.4451
 6839SOL    HW225365   2.383   6.603   3.692 -0.4607  2.1753 -0.8895
 6840SOL     OW25366   4.575   9.387   4.308  0.0066  0.0805  0.3061
 6840SOL    HW125367   4.599   9.477   4.289 -0.2801 -0.2314 -1.7645
 6840SOL    HW225368   4.652   9.336   4.282  0.8802 -0.2310  3.0914
 6841SOL     OW25369   9.011   1.409   4.943 -0.2894  0.3484 -0.7457
 6841SOL    HW125370   8.998   1.315   4.951  0.9778  0.2219  0.1957
 6841SOL    HW225371   8.977   1.431   4.856  1.1404 -1.3157 -1.7860
 6842SOL     OW25372   6.012   8.792   1.539 -0.1693  0.6599  0.3365
 6842SOL    HW125373   6.096   8.836   1.552  0.5546 -0.2157 -1.1231
 6842SOL    HW225374   6.022   8.709   1.585  0.8617 -0.6532 -2.0958
 6843SOL     OW25375   7.836   8.041   1.725  1.0364  0.7477  0.2431
 6843SOL    HW125376   7.780   8.061   1.651  2.1781  2.0890 -0.2941
 6843SOL    HW225377   7.858   7.948   1.714 -1.5386  0.0003  0.8376
 6844SOL     OW25378   9.223   6.830   4.493  0.5480  0.3458  0.1662
 6844SOL    HW125379   9.250   6.743   4.523  2.0678  0.3974 -0.9411
 6844SOL    HW225380   9.251   6.889   4.563 -2.6569 -0.2114  2.0865
 6845SOL     OW25381   6.872   2.554   5.665 -0.6243 -0.2734 -0.6211
 6845SOL    HW125382   6.839   2.549   5.755  0.6680 -1.2794 -0.1547
 6845SOL    HW225383   6.949   2.496   5.665 -0.3374  0.0546 -2.2640
 6846SOL     OW25384   7.603   5.224   0.637  0.2691  0.0311 -0.2789
 6846SOL    HW125385   7.621   5.142   0.592 -0.2066  0.7428 -1.8349
 6846SOL    HW225386   7.626   5.207   0.729 -1.1925 -2.2610 -0.2786
 6847SOL     OW25387   2.625   2.287   4.242  0.9471 -1.0123 -0.0249
 6847SOL    HW125388   2.592   2.274   4.153  0.5334 -1.4624  0.1868
 6847SOL    HW225389   2.605   2.205   4.286  2.6556 -1.4296  0.0321
 6848SOL     OW25390   7.339   0.752   6.635 -0.2312 -0.2743  0.0306
 6848SOL    HW125391   7.252   0.793   6.641 -0.4996 -1.0189  3.1749
 6848SOL    HW225392   7.322   0.659   6.653  1.2694 -0.2855  1.5987
 6849SOL     OW25393   9.526   6.720   0.049 -0.1590  0.2135  0.2153
 6849SOL    HW125394   9.445   6.771   0.048 -0.8856 -0.8488  1.5274
 6849SOL    HW225395   9.563   6.735   0.136 -0.3430 -1.3596  0.6051
 6850SOL     OW25396   4.413   3.487   2.220  0.2989  0.1879 -0.0399
 6850SOL    HW125397   4.324   3.458   2.199  0.5822 -0.9923  0.2958
 6850SOL    HW225398   4.467   3.409   2.207  1.0723  0.4947  1.1589
 6851SOL     OW25399   0.808   5.901   0.992 -0.6532  0.1539 -0.2492
 6851SOL    HW125400   0.713   5.911   0.987 -0.4992  1.8704 -0.5290
 6851SOL    HW225401   0.825   5.813   0.958 -2.0595  0.2020 -1.1577
 6852SOL     OW25402   0.467   2.783   3.426  0.3246  0.4057  0.1736
 6852SOL    HW125403   0.458   2.865   3.377  0.4411  0.0921 -0.3734
 6852SOL    HW225404   0.445   2.714   3.363 -1.2639  0.0743  1.0390
 6853SOL     OW25405   7.268   3.301   9.113  0.4029 -0.1129  0.3735
 6853SOL    HW125406   7.243   3.376   9.060  1.8126  0.2770  0.2277
 6853SOL    HW225407   7.322   3.247   9.055 -0.9681 -1.5141  0.3225
 6854SOL     OW25408   1.679   7.533   5.693 -0.4060  0.0933 -0.0435
 6854SOL    HW125409   1.707   7.477   5.765  0.9275  1.8085  0.8581
 6854SOL    HW225410   1.584   7.528   5.694 -0.3704 -0.7662  1.1460
 6855SOL     OW25411   1.177   8.618   6.382 -0.1297 -0.0287 -0.2056
 6855SOL    HW125412   1.084   8.605   6.400  0.0746  0.9856  1.7305
 6855SOL    HW225413   1.179   8.682   6.311 -0.8984  0.0540 -0.1574
 6856SOL     OW25414   3.279   0.016   4.213  0.0644  0.0871 -0.2511
 6856SOL    HW125415   3.369   0.049   4.214  0.1980  0.0069 -2.9567
 6856SOL    HW225416   3.286  -0.072   4.177 -0.9649 -0.5796  1.0854
 6857SOL     OW25417   2.294   3.932   3.074 -0.4553  0.0565 -0.1145
 6857SOL    HW125418   2.260   3.960   3.159 -0.3210 -0.2074  0.0272
 6857SOL    HW225419   2.240   3.979   3.010  0.1340  1.0697  0.1144
 6858SOL     OW25420   3.021   9.100   0.036 -0.1718  0.4232 -0.1514
 6858SOL    HW125421   3.078   9.080  -0.038 -0.1701  0.0901 -0.0651
 6858SOL    HW225422   3.065   9.170   0.083  0.3791 -0.1056  0.1432
 6859SOL     OW25423   6.918   7.507   1.522 -0.3321 -0.2190  0.3294
 6859SOL    HW125424   6.836   7.502   1.473  0.3565 -0.6609 -0.8438
 6859SOL    HW225425   6.983   7.531   1.456  0.5147 -0.0464  1.2031
 6860SOL     OW25426   8.059   0.899   6.365  0.7646  0.0268  0.2589
 6860SOL    HW125427   8.085   0.976   6.415  1.6360 -0.5127  0.6682
 6860SOL    HW225428   8.092   0.915   6.277  0.2790  0.4487  0.1496
 6861SOL     OW25429   9.675   5.862   9.419  0.2037  0.2041  0.0082
 6861SOL    HW125430   9.614   5.880   9.490 -1.9451  2.9686 -2.2715
 6861SOL    HW225431   9.653   5.773   9.390 -0.1925 -0.2227  1.5592
 6862SOL     OW25432   3.872   8.389   8.767  0.1137  0.4757  0.0885
 6862SOL    HW125433   3.894   8.361   8.856  2.8459 -0.3373 -0.7488
 6862SOL    HW225434   3.812   8.462   8.780  1.2290  1.0726  2.6658
 6863SOL     OW25435   1.586   8.130   5.273 -0.0776  0.0170 -0.0615
 6863SOL    HW125436   1.589   8.108   5.180 -1.1456  1.3050 -0.4367
 6863SOL    HW225437   1.574   8.046   5.317 -2.5819 -0.4031 -1.3297
 6864SOL     OW25438   7.011   1.826   5.817 -0.4445 -0.3951 -0.3789
 6864SOL    HW125439   7.055   1.766   5.757 -0.8968  0.5381 -1.6919
 6864SOL    HW225440   6.920   1.826   5.787 -0.1467  2.2675 -1.6013
 6865SOL     OW25441   1.430   3.957   8.012 -0.3368 -0.0875  0.4503
 6865SOL    HW125442   1.360   3.893   8.018 -0.1128 -0.6823 -2.1334
 6865SOL    HW225443   1.508   3.911   8.043 -0.1498 -1.1989 -1.5146
 6866SOL     OW25444   3.184   3.531   9.460 -0.2074  0.5243 -0.2837
 6866SOL    HW125445   3.095   3.541   9.493 -0.4466  1.0790 -1.0537
 6866SOL    HW225446   3.228   3.612   9.485 -0.0393  0.4239 -0.2547
 6867SOL     OW25447   8.406   3.473   6.514  0.0969 -0.0223  0.1561
 6867SOL    HW125448   8.501   3.465   6.523 -0.0200 -0.8413  0.8198
 6867SOL    HW225449   8.393   3.557   6.470  1.0549  1.1159  1.8996
 6868SOL     OW25450   8.526   9.751   0.407 -0.0868 -0.1445  0.9284
 6868SOL    HW125451   8.574   9.704   0.474  0.8595 -0.0825  0.3171
 6868SOL    HW225452   8.594   9.785   0.348 -0.8871 -0.3459 -0.1472
 6869SOL     OW25453   5.449   0.318   4.072 -0.3629 -0.3984  0.3443
 6869SOL    HW125454   5.359   0.345   4.087 -0.2154 -0.0513  0.6100
 6869SOL    HW225455   5.465   0.338   3.979  0.0710  1.4053  0.7778
 6870SOL     OW25456   1.139   0.210   3.111  0.3200 -0.3317  0.1868
 6870SOL    HW125457   1.123   0.116   3.123 -0.1724 -0.1841  0.7074
 6870SOL    HW225458   1.055   0.246   3.084 -0.4056  0.4938  3.2320
 6871SOL     OW25459   7.441   1.053   3.957 -0.1933  0.2179  0.4074
 6871SOL    HW125460   7.443   1.099   3.873  2.0734 -0.6537 -0.0881
 6871SOL    HW225461   7.381   0.981   3.943 -0.8767  0.8573 -0.0183
 6872SOL     OW25462   0.111   1.701   0.877 -0.3607  0.3876 -0.0756
 6872SOL    HW125463   0.036   1.737   0.830 -1.2604  0.7726  1.5863
 6872SOL    HW225464   0.138   1.626   0.825 -2.9132 -0.7514  0.1081
 6873SOL     OW25465   0.599   4.595   4.506 -0.0048  0.2005 -0.4107
 6873SOL    HW125466   0.560   4.683   4.511  1.4146  0.8073  0.9877
 6873SOL    HW225467   0.569   4.561   4.422 -2.2723  1.1884 -0.0863
 6874SOL     OW25468   7.246   1.252   5.477 -0.7413 -0.4291  0.3601
 6874SOL    HW125469   7.276   1.336   5.513 -2.5423 -0.0942  1.1735
 6874SOL    HW225470   7.189   1.276   5.404 -2.3967 -0.8378  1.4595
 6875SOL     OW25471   4.509   0.528   7.218  0.2110 -0.0861 -0.3659
 6875SOL    HW125472   4.475   0.502   7.303 -0.0573  1.6338  0.0991
 6875SOL    HW225473   4.476   0.462   7.157 -1.7296  0.0425  0.4750
 6876SOL     OW25474   2.738   5.823   7.288  0.0450 -0.3559 -0.2710
 6876SOL    HW125475   2.795   5.886   7.332 -0.6893 -0.3297  0.6730
 6876SOL    HW225476   2.660   5.873   7.266 -0.7722 -1.0176  0.9663
 6877SOL     OW25477   2.202   5.974   0.931 -0.2811 -0.6356  0.3156
 6877SOL    HW125478   2.159   6.035   0.870  1.2533 -1.5682 -1.8267
 6877SOL    HW225479   2.130   5.929   0.974 -1.4481  1.7594  1.0643
 6878SOL     OW25480   0.064   3.416   5.213  0.3743  0.3934  0.1297
 6878SOL    HW125481   0.060   3.399   5.307  0.5993  1.0259  0.2578
 6878SOL    HW225482  -0.021   3.384   5.180  0.0164  0.7868  0.6499
 6879SOL     OW25483   0.701   0.168   5.356  0.1584 -0.0356  0.3448
 6879SOL    HW125484   0.636   0.111   5.315 -1.4028  1.5513  0.5292
 6879SOL    HW225485   0.751   0.109   5.414  0.4525 -1.7279 -1.5054
 6880SOL     OW25486   2.902   5.665   2.891 -0.0183 -0.1372  0.6001
 6880SOL    HW125487   2.923   5.727   2.820 -0.2994 -1.9445 -1.1590
 6880SOL    HW225488   2.987   5.646   2.931  0.3975 -0.2978 -0.3198
 6881SOL     OW25489   4.889   4.473   1.032  0.0872  0.3158 -0.1961
 6881SOL    HW125490   4.817   4.531   1.057 -0.6952  0.0201 -1.6422
 6881SOL    HW225491   4.968   4.523   1.050 -0.3488  0.2087  2.5937
 6882SOL     OW25492   3.386   3.008   9.659  0.1131 -0.1239 -0.1026
 6882SOL    HW125493   3.340   3.082   9.620  0.3400 -0.0560 -0.2440
 6882SOL    HW225494   3.477   3.037   9.665  0.3855 -0.7219 -1.0072
 6883SOL     OW25495   9.114   5.134   1.064 -0.7658 -0.1449 -0.4084
 6883SOL    HW125496   9.068   5.090   1.135  2.3468 -1.6013  0.9046
 6883SOL    HW225497   9.089   5.086   0.985  0.1243 -2.3688  0.5857
 6884SOL     OW25498   1.205   8.641   4.742 -0.6399 -0.3272  0.3219
 6884SOL    HW125499   1.125   8.620   4.693 -0.5563 -1.3701  0.6181
 6884SOL    HW225500   1.275   8.630   4.678 -0.6208 -0.7093  0.4055
 6885SOL     OW25501   2.699   0.049   8.559  0.6926  0.2961  0.1313
 6885SOL    HW125502   2.728  -0.043   8.562 -0.6463 -0.1073  2.2595
 6885SOL    HW225503   2.753   0.093   8.624  0.0670  0.6146  0.4383
 6886SOL     OW25504   3.716   2.101   3.725 -0.2245 -0.4973  0.3241
 6886SOL    HW125505   3.685   2.171   3.783 -0.0640 -1.0556  1.0886
 6886SOL    HW225506   3.766   2.042   3.781  0.1264 -0.9341 -0.4237
 6887SOL     OW25507   7.413   0.249   4.818 -0.6077  0.3200  0.0960
 6887SOL    HW125508   7.361   0.326   4.841 -1.3831 -0.0175 -0.4875
 6887SOL    HW225509   7.402   0.240   4.723 -1.1075 -0.9176  0.2612
 6888SOL     OW25510   2.384   4.908   6.071  0.3229 -0.2145 -0.4834
 6888SOL    HW125511   2.312   4.847   6.087 -0.8999  0.4074 -3.0162
 6888SOL    HW225512   2.353   4.991   6.107  0.0652 -0.1248 -0.8967
 6889SOL     OW25513   6.714   4.749   1.261  0.0731  0.4202  0.3880
 6889SOL    HW125514   6.691   4.699   1.339 -0.8719 -1.6240 -1.1165
 6889SOL    HW225515   6.768   4.689   1.209 -0.0574  1.4090 -0.9345
 6890SOL     OW25516   0.425   5.543   2.141  0.1279 -0.1461 -0.4438
 6890SOL    HW125517   0.501   5.560   2.086  1.2783 -1.1390  0.7796
 6890SOL    HW225518   0.448   5.579   2.227 -1.0305  0.0560 -0.1925
 6891SOL     OW25519   9.431   8.506   1.025  0.5106 -0.1639  0.5383
 6891SOL    HW125520   9.348   8.513   0.979  0.7052  0.3784  0.2573
 6891SOL    HW225521   9.408   8.506   1.118  0.2571  1.0851  0.4932
 6892SOL     OW25522   6.156   1.867   5.156  0.1130  0.2493 -0.2388
 6892SOL    HW125523   6.209   1.788   5.152  1.1094  0.8402  0.7964
 6892SOL    HW225524   6.166   1.908   5.070  2.2380  0.9078  0.2711
 6893SOL     OW25525   4.105   2.448   7.751 -0.0773 -0.1923  0.2221
 6893SOL    HW125526   4.022   2.495   7.759  0.0195 -0.2917  2.3905
 6893SOL    HW225527   4.172   2.514   7.766  0.4076  0.2279 -3.0457
 6894SOL     OW25528   3.180   8.383   1.575  0.1598  0.1236  0.1920
 6894SOL    HW125529   3.147   8.300   1.542 -0.4602  0.5523 -0.2982
 6894SOL    HW225530   3.210   8.363   1.664 -2.0304 -0.1825  0.9281
 6895SOL     OW25531   3.250   8.708   6.799  0.0525  0.1628  0.1740
 6895SOL    HW125532   3.176   8.660   6.762  0.0965  1.7972 -2.2682
 6895SOL    HW225533   3.212   8.791   6.829  0.8273  1.0566 -1.1900
 6896SOL     OW25534   1.160   8.076   2.311  0.2256  0.3292 -0.1723
 6896SOL    HW125535   1.118   8.125   2.381  0.2876 -0.1020  0.1714
 6896SOL    HW225536   1.147   7.984   2.335  0.8450  0.1853 -0.3694
 6897SOL     OW25537   1.745   5.950   4.056  0.0640  0.4983  0.2267
 6897SOL    HW125538   1.741   6.003   4.136  1.0338  0.9626 -0.0170
 6897SOL    HW225539   1.685   5.993   3.996 -1.9374 -0.7859  1.2068
 6898SOL     OW25540   1.353   8.958   9.099  0.3923  0.7192  0.3000
 6898SOL    HW125541   1.375   8.886   9.158 -1.7226 -1.1549 -1.0348
 6898SOL    HW225542   1.257   8.960   9.098  0.3591  1.2192 -2.3617
 6899SOL     OW25543   0.545   3.620   0.295 -0.4916 -0.1392  0.8018
 6899SOL    HW125544   0.552   3.538   0.343  0.3734  0.4194  1.6830
 6899SOL    HW225545   0.621   3.621   0.237  0.1001  0.4886  1.5590
 6900SOL     OW25546   1.956   0.047   8.419 -0.1870  0.0785 -0.4678
 6900SOL    HW125547   1.862   0.063   8.427 -0.5800 -1.7990 -0.8042
 6900SOL    HW225548   1.971   0.038   8.325  0.6449  1.8728 -0.5453
 6901SOL     OW25549   6.390   9.426   5.438 -0.1083  0.0037  0.3770
 6901SOL    HW125550   6.311   9.417   5.490  1.3598 -3.7068  2.3051
 6901SOL    HW225551   6.436   9.501   5.476 -0.4985 -0.7709  2.4771
 6902SOL     OW25552   4.050   9.109   9.705  0.1572 -0.1913  0.0528
 6902SOL    HW125553   4.107   9.121   9.629 -0.6361  1.3601 -0.3551
 6902SOL    HW225554   4.090   9.039   9.756  1.7207  0.0166 -0.8594
 6903SOL     OW25555   1.576   7.608   7.753  0.0133  0.4978 -0.2093
 6903SOL    HW125556   1.555   7.659   7.675  0.4232  1.1627  0.1048
 6903SOL    HW225557   1.518   7.642   7.821 -0.1394  0.1207 -0.1479
 6904SOL     OW25558   5.775   8.504   5.153  0.0874 -0.3874 -0.0084
 6904SOL    HW125559   5.709   8.452   5.199  0.5698 -0.9104  0.0948
 6904SOL    HW225560   5.729   8.538   5.076 -0.7890  0.6612  0.9463
 6905SOL     OW25561   3.671   2.879   2.857  0.6407 -0.2136 -0.1439
 6905SOL    HW125562   3.593   2.887   2.913 -0.4550 -0.7885 -1.5279
 6905SOL    HW225563   3.663   2.950   2.793  0.3470 -1.2821 -1.3307
 6906SOL     OW25564   5.053   2.548   5.290  0.1150 -0.5032  0.9310
 6906SOL    HW125565   5.084   2.458   5.297  0.6669 -0.7060 -2.5993
 6906SOL    HW225566   4.973   2.542   5.239 -0.7169  0.9245  1.9823
 6907SOL     OW25567   1.416   5.420   7.450  0.2265 -0.1489  0.2493
 6907SOL    HW125568   1.511   5.432   7.443  0.0733  1.2361  0.3441
 6907SOL    HW225569   1.403   5.378   7.535  0.7200 -0.0732  0.3634
 6908SOL     OW25570   2.733   6.037   5.653  0.4954 -0.0428 -0.3954
 6908SOL    HW125571   2.768   5.969   5.596  1.9963 -0.0108  0.4412
 6908SOL    HW225572   2.649   6.061   5.613 -1.3879 -4.1006  0.5995
 6909SOL     OW25573   4.525   3.101   5.939 -0.5368 -0.3996  0.5485
 6909SOL    HW125574   4.512   3.042   6.013  0.2462  0.0026  1.0202
 6909SOL    HW225575   4.448   3.157   5.938  0.3134  0.8920  2.2879
 6910SOL     OW25576   1.617   2.039   6.010  0.0405 -0.4254  0.2653
 6910SOL    HW125577   1.559   2.112   6.030  0.6496  0.0294  0.4297
 6910SOL    HW225578   1.559   1.966   5.992 -0.5786 -0.2978  1.6107
 6911SOL     OW25579   7.964   1.110   0.057  0.4964  0.1603  0.6242
 6911SOL    HW125580   7.987   1.184  -0.000  0.9694  0.7229  1.5218
 6911SOL    HW225581   7.878   1.133   0.092 -0.1299 -0.5275 -0.3915
 6912SOL     OW25582   8.816   6.415   0.570  0.5940  0.1593 -0.3736
 6912SOL    HW125583   8.911   6.425   0.558  0.9461 -1.4851  0.6232
 6912SOL    HW225584   8.800   6.322   0.551 -0.4186 -0.1441  1.7349
 6913SOL     OW25585   2.297   4.905   8.827 -0.4119 -0.6450  0.0791
 6913SOL    HW125586   2.336   4.983   8.790  1.5276 -2.0838 -1.0857
 6913SOL    HW225587   2.303   4.917   8.922  0.5963  0.2501 -0.0847
 6914SOL     OW25588   5.203   8.160   3.198  0.2731  0.0167 -0.0157
 6914SOL    HW125589   5.281   8.136   3.247  0.2538 -0.0730 -0.0284
 6914SOL    HW225590   5.227   8.146   3.106  0.4397  0.5626 -0.0554
 6915SOL     OW25591   4.309   4.134   3.398 -0.3632  0.1050 -0.5040
 6915SOL    HW125592   4.360   4.122   3.318 -1.5683 -0.5576 -1.2091
 6915SOL    HW225593   4.373   4.124   3.469  0.9503  1.8277 -1.3657
 6916SOL     OW25594   1.336   8.641   9.115 -0.3146  0.0515 -0.0194
 6916SOL    HW125595   1.348   8.595   9.032 -1.7888  2.2788 -1.6077
 6916SOL    HW225596   1.420   8.683   9.131  0.0468 -0.5567 -0.2792
 6917SOL     OW25597   1.768   0.107   2.251 -0.7567  0.6605 -0.1403
 6917SOL    HW125598   1.856   0.075   2.270 -0.5083 -0.2470 -2.4741
 6917SOL    HW225599   1.723   0.106   2.336  1.0328 -0.2361  0.8518
 6918SOL     OW25600   7.780   1.753   5.008  0.1395 -0.0964 -0.2280
 6918SOL    HW125601   7.861   1.779   5.051  0.7715 -0.5204 -1.1546
 6918SOL    HW225602   7.768   1.661   5.033  0.5579 -0.3715 -1.0250
 6919SOL     OW25603   9.048   4.235   3.838 -0.1215  0.0518  0.1111
 6919SOL    HW125604   9.132   4.200   3.870 -1.1298 -1.9448  0.7678
 6919SOL    HW225605   9.013   4.285   3.912  0.7421  1.4066 -0.3751
 6920SOL     OW25606   0.638   8.356   8.318 -0.1936  0.0555 -0.4055
 6920SOL    HW125607   0.659   8.442   8.283  1.7266 -0.1084  0.2687
 6920SOL    HW225608   0.607   8.306   8.242 -0.6951  1.1215 -0.9183
 6921SOL     OW25609   0.699   0.695   6.625 -0.1291  0.4706 -0.0351
 6921SOL    HW125610   0.704   0.734   6.712  0.8568 -3.1260  1.7134
 6921SOL    HW225611   0.790   0.689   6.596 -0.4845  2.4369 -1.8547
 6922SOL     OW25612   3.175   5.608   8.601  0.3751 -0.0874 -0.5942
 6922SOL    HW125613   3.192   5.703   8.602  3.2074 -0.4871 -1.0034
 6922SOL    HW225614   3.233   5.573   8.669 -1.0824 -1.5128 -0.0143
 6923SOL     OW25615   0.827   5.997   6.832  0.0060 -0.2032  0.4603
 6923SOL    HW125616   0.892   5.926   6.831 -0.0116 -0.2362 -1.1510
 6923SOL    HW225617   0.748   5.957   6.867 -0.2357 -1.2373 -1.1649
 6924SOL     OW25618   7.866   2.841   4.144 -0.4176 -0.4350 -0.2878
 6924SOL    HW125619   7.803   2.892   4.195 -0.4286 -1.0815  0.3708
 6924SOL    HW225620   7.945   2.894   4.141 -0.6386 -0.0987 -0.1841
 6925SOL     OW25621   4.694   6.328   6.240 -0.5582 -0.1595  0.2616
 6925SOL    HW125622   4.758   6.260   6.219 -0.1018  0.6525 -1.1238
 6925SOL    HW225623   4.617   6.280   6.271  0.2167 -1.2218  0.6011
 6926SOL     OW25624   3.397   3.017   8.878  0.7309 -0.1633  0.5909
 6926SOL    HW125625   3.372   3.069   8.801 -0.7789 -2.4177 -0.5740
 6926SOL    HW225626   3.324   3.029   8.939 -0.4718 -2.0587 -0.3619
 6927SOL     OW25627   8.280   4.004   6.922  0.2639  0.7882 -0.4679
 6927SOL    HW125628   8.272   3.910   6.940  0.6253  0.6646 -0.9229
 6927SOL    HW225629   8.190   4.036   6.919  0.1678  0.7916  1.3602
 6928SOL     OW25630   1.927   2.841   4.735 -0.0019  0.4680 -0.3365
 6928SOL    HW125631   1.850   2.862   4.788  1.0715  1.6645  0.8197
 6928SOL    HW225632   1.891   2.806   4.653 -1.7429  0.4371  0.4022
 6929SOL     OW25633   3.654   4.793   4.411 -0.0506  0.1982 -0.0772
 6929SOL    HW125634   3.598   4.849   4.465 -0.1331 -0.3011  0.3565
 6929SOL    HW225635   3.737   4.790   4.458 -0.9158 -2.3685  1.4435
 6930SOL     OW25636   1.740   2.472   6.857  0.3512 -0.7519  0.5153
 6930SOL    HW125637   1.752   2.458   6.763 -0.6451  0.1265  0.2436
 6930SOL    HW225638   1.760   2.565   6.870 -3.0418  0.0948  0.5129
 6931SOL     OW25639   3.096   2.383   8.738 -0.0189  0.4639  0.4427
 6931SOL    HW125640   3.158   2.432   8.685  0.7826 -0.8084  0.1467
 6931SOL    HW225641   3.150   2.340   8.805 -0.7449  0.3254  0.9563
 6932SOL     OW25642   7.753   2.733   5.496 -0.1581 -0.0502  0.6360
 6932SOL    HW125643   7.788   2.651   5.532 -1.5771 -0.9621  0.0363
 6932SOL    HW225644   7.690   2.762   5.562 -0.6163 -0.1609  0.2537
 6933SOL     OW25645   5.172   3.068   9.285 -0.0721  0.5321 -0.1812
 6933SOL    HW125646   5.144   3.093   9.196 -0.8478 -2.0587 -0.7321
 6933SOL    HW225647   5.214   2.983   9.274 -2.7655 -1.2948  2.2316
 6934SOL     OW25648   5.574   0.389   4.463 -0.0025 -0.2830  0.2185
 6934SOL    HW125649   5.591   0.345   4.379  1.7152 -0.8502  0.8244
 6934SOL    HW225650   5.508   0.335   4.505 -0.2355 -0.4896 -0.4010
 6935SOL     OW25651   9.626   0.229   4.678  0.5147  0.2959  0.8350
 6935SOL    HW125652   9.544   0.184   4.699  0.1382  1.3202  1.6316
 6935SOL    HW225653   9.599   0.315   4.645  1.2590  0.3819  0.4162
 6936SOL     OW25654   4.944   9.165   9.048 -0.1664 -0.1112  0.1744
 6936SOL    HW125655   4.911   9.132   8.964 -0.2051  1.1747 -0.3382
 6936SOL    HW225656   5.039   9.161   9.040 -0.1718 -0.9288  0.4640
 6937SOL     OW25657   6.364   6.799   1.211  0.2699 -0.1117  0.4754
 6937SOL    HW125658   6.406   6.757   1.286  2.1251 -1.6199 -1.3047
 6937SOL    HW225659   6.287   6.745   1.193  0.9288 -0.9518  0.1099
 6938SOL     OW25660   8.442   7.536   7.662 -0.7344  0.5035  0.7469
 6938SOL    HW125661   8.441   7.441   7.671  0.2388  0.1680 -1.8251
 6938SOL    HW225662   8.525   7.563   7.701 -0.6232  0.1923  0.7246
 6939SOL     OW25663   0.061   0.044   7.058 -0.3283 -0.8912 -0.6553
 6939SOL    HW125664   0.078   0.013   7.148 -0.9863  1.3169  0.3058
 6939SOL    HW225665  -0.029   0.020   7.041 -0.7173  0.0560 -0.0572
 6940SOL     OW25666   2.321   3.220   5.890 -0.0785 -0.1564 -0.2567
 6940SOL    HW125667   2.243   3.186   5.848 -0.7145  0.4756  0.3907
 6940SOL    HW225668   2.303   3.313   5.903  0.4989 -0.1412  0.5131
 6941SOL     OW25669   0.344   6.845   7.667  0.2354  0.0062  0.4686
 6941SOL    HW125670   0.391   6.875   7.589 -2.6023  1.8233 -0.7022
 6941SOL    HW225671   0.368   6.909   7.735  1.1969 -0.4371  0.5604
 6942SOL     OW25672   4.982   0.490   1.309  0.7612 -0.2331  0.3672
 6942SOL    HW125673   4.906   0.544   1.287  0.4360 -0.9437 -0.2959
 6942SOL    HW225674   4.946   0.402   1.318  1.6773 -0.8157 -1.2396
 6943SOL     OW25675   0.240   3.174   7.909 -0.7751  0.5322  0.7222
 6943SOL    HW125676   0.222   3.087   7.874  1.1603  0.8222 -1.2309
 6943SOL    HW225677   0.167   3.228   7.877 -0.0896  0.3548 -1.3156
 6944SOL     OW25678   4.794   2.275   9.259 -0.0406 -0.1229  0.4711
 6944SOL    HW125679   4.729   2.313   9.201  1.4341  0.8463 -0.6155
 6944SOL    HW225680   4.806   2.340   9.328 -0.9280 -0.7414  1.2154
 6945SOL     OW25681   8.860   4.162   3.435 -0.0522 -0.0777  0.1181
 6945SOL    HW125682   8.776   4.120   3.416 -0.0003 -0.7800  1.3623
 6945SOL    HW225683   8.852   4.194   3.525  1.3793 -1.1600  0.6841
 6946SOL     OW25684   3.988   1.982   5.552  0.2116  0.2491 -0.4084
 6946SOL    HW125685   3.927   1.924   5.506  0.5301  0.5074 -1.1648
 6946SOL    HW225686   4.049   1.923   5.596  0.3116  0.0011 -0.8708
 6947SOL     OW25687   9.542   0.344   0.367  0.6315  0.2256  0.8685
 6947SOL    HW125688   9.537   0.254   0.399 -1.4560  0.1652  0.4980
 6947SOL    HW225689   9.602   0.340   0.292 -0.8398 -1.2770 -0.3103
 6948SOL     OW25690   6.259   0.687   2.590  0.1626 -0.1517 -1.1119
 6948SOL    HW125691   6.286   0.755   2.529 -0.7407  0.7557 -0.5218
 6948SOL    HW225692   6.167   0.705   2.607  0.9210  1.1413  2.3715
 6949SOL     OW25693   7.868   7.570   2.373 -0.1138 -0.6696 -0.5740
 6949SOL    HW125694   7.880   7.540   2.283 -0.6630 -0.5751 -0.6830
 6949SOL    HW225695   7.831   7.658   2.364  2.4089  0.5019 -0.2738
 6950SOL     OW25696   8.790   7.970   4.898  0.3410  0.6632  0.3179
 6950SOL    HW125697   8.728   8.033   4.936  0.8038  0.6207  1.1706
 6950SOL    HW225698   8.875   7.998   4.931  0.3793 -1.4613  2.2446
 6951SOL     OW25699   8.841   5.790   3.960  0.1649  0.0378 -0.0732
 6951SOL    HW125700   8.777   5.847   4.003 -1.6481 -0.5917 -1.7865
 6951SOL    HW225701   8.894   5.850   3.907 -0.1869  0.3673 -0.0541
 6952SOL     OW25702   2.185   2.314   3.053 -0.3431  0.0360 -0.0767
 6952SOL    HW125703   2.259   2.337   2.997  0.5988  0.6756  1.3586
 6952SOL    HW225704   2.203   2.225   3.082 -0.5921 -0.1271 -0.4192
 6953SOL     OW25705   0.199   3.522   9.437  0.0363  0.6214 -0.5325
 6953SOL    HW125706   0.283   3.505   9.480 -0.6195  0.3411  0.7121
 6953SOL    HW225707   0.195   3.457   9.367  0.0647 -0.6254  0.5776
 6954SOL     OW25708   4.030   7.274   3.439  0.3706  0.5247  0.0060
 6954SOL    HW125709   3.952   7.237   3.399  0.1260  0.6047  0.4028
 6954SOL    HW225710   4.011   7.274   3.533  0.4149  1.5545  0.0280
 6955SOL     OW25711   0.927   9.256   9.578 -0.1049  0.5751 -1.0062
 6955SOL    HW125712   0.873   9.202   9.521  0.0390 -1.3524  0.5745
 6955SOL    HW225713   0.899   9.232   9.667  0.8604  2.2017 -0.2240
 6956SOL     OW25714   2.247   9.426   5.788  0.4589  0.2529 -0.0404
 6956SOL    HW125715   2.246   9.494   5.720 -0.7509 -1.0242 -1.3667
 6956SOL    HW225716   2.155   9.402   5.800  0.6372  0.4636  2.1271
 6957SOL     OW25717   0.995   0.463   9.348  0.5659 -0.3683  0.3236
 6957SOL    HW125718   0.974   0.379   9.389  0.8940 -0.0306  1.2206
 6957SOL    HW225719   1.015   0.441   9.257  2.3041 -1.5193  0.9364
 6958SOL     OW25720   8.396   1.903   1.812  0.5918 -0.2227  0.5820
 6958SOL    HW125721   8.377   1.820   1.855 -4.0273  0.3629  0.2090
 6958SOL    HW225722   8.391   1.968   1.882  0.8484  0.0353  0.3618
 6959SOL     OW25723   6.679   4.507   5.564  0.2709  0.0193 -0.3221
 6959SOL    HW125724   6.731   4.458   5.500 -0.3249 -0.9974 -0.0511
 6959SOL    HW225725   6.684   4.598   5.534  0.7944 -0.3021 -1.2580
 6960SOL     OW25726   4.133   1.020   2.624  0.5510  0.3844 -0.3530
 6960SOL    HW125727   4.115   1.067   2.543  1.8138 -2.4831 -2.4548
 6960SOL    HW225728   4.047   0.989   2.653  0.3287 -1.1655 -2.4052
 6961SOL     OW25729   6.296   5.875   8.266  0.2310 -0.1440 -0.2412
 6961SOL    HW125730   6.341   5.913   8.342 -1.6271 -1.1484  1.4345
 6961SOL    HW225731   6.317   5.782   8.271 -0.9691 -0.4172 -0.1825
 6962SOL     OW25732   0.524   0.693   5.973  0.4891  0.6382  0.1379
 6962SOL    HW125733   0.540   0.783   6.002 -2.8170  1.6345 -0.6564
 6962SOL    HW225734   0.514   0.699   5.878  1.2185 -0.8017 -0.0677
 6963SOL     OW25735   7.467   0.776   2.563  0.5066 -0.2710  0.0269
 6963SOL    HW125736   7.535   0.832   2.602  0.4227  0.5181 -0.9168
 6963SOL    HW225737   7.457   0.810   2.474  0.2930 -1.6713 -0.5014
 6964SOL     OW25738   6.400   5.648   4.506  0.1310  0.0831  0.0148
 6964SOL    HW125739   6.356   5.563   4.499  0.7311 -0.3913  1.6770
 6964SOL    HW225740   6.333   5.707   4.539  0.6516 -0.6531  2.6113
 6965SOL     OW25741   4.209   8.371   5.633  0.3529 -0.0055 -0.3556
 6965SOL    HW125742   4.136   8.424   5.664  0.2162 -1.4434  2.0484
 6965SOL    HW225743   4.173   8.282   5.626  1.7204 -0.6422  0.3861
 6966SOL     OW25744   9.245   7.778   7.523  0.3782  0.0373 -0.0528
 6966SOL    HW125745   9.195   7.753   7.601  1.3303  0.7154  0.7878
 6966SOL    HW225746   9.255   7.696   7.474 -0.8395 -0.2607  0.1546
 6967SOL     OW25747   0.826   3.636   5.643  0.4585 -0.3657  0.0639
 6967SOL    HW125748   0.865   3.553   5.615 -0.3307 -0.3408 -1.1748
 6967SOL    HW225749   0.794   3.676   5.562 -0.5101  0.4488  0.8258
 6968SOL     OW25750   8.814   1.257   8.933 -0.2172  0.5766 -0.5934
 6968SOL    HW125751   8.861   1.305   8.865  1.8412 -1.4892 -0.7512
 6968SOL    HW225752   8.881   1.235   8.997 -1.5322 -0.1744  0.5687
 6969SOL     OW25753   6.782   3.682   3.165 -0.3405  0.0918 -0.0519
 6969SOL    HW125754   6.705   3.630   3.143  0.0341  0.1622 -1.6110
 6969SOL    HW225755   6.775   3.695   3.260 -1.9908 -0.3018 -0.0824
 6970SOL     OW25756   0.105   5.536   3.336  0.4755  0.3787  0.5119
 6970SOL    HW125757   0.181   5.493   3.377  3.0312  1.9016 -2.1900
 6970SOL    HW225758   0.055   5.463   3.298  2.5572 -0.5952 -0.5970
 6971SOL     OW25759   9.061   1.489   5.587  0.0043  0.3448  0.0344
 6971SOL    HW125760   9.113   1.541   5.526  0.1708 -0.7024 -0.7483
 6971SOL    HW225761   9.118   1.476   5.663 -0.0191  1.2360  0.2125
 6972SOL     OW25762   4.434   2.292   1.762 -0.2702  0.3732 -0.1489
 6972SOL    HW125763   4.461   2.288   1.853 -3.3431 -0.6576  0.8664
 6972SOL    HW225764   4.466   2.210   1.724  1.4508  1.0330 -0.1935
 6973SOL     OW25765   0.798   4.510   0.639  0.1605 -0.2393  0.1084
 6973SOL    HW125766   0.832   4.567   0.709 -0.8047  1.4350 -0.7217
 6973SOL    HW225767   0.832   4.549   0.559  0.6781 -1.7287 -0.4176
 6974SOL     OW25768   3.625   6.263   0.727  0.1804  0.1104 -0.2308
 6974SOL    HW125769   3.652   6.270   0.636 -0.1039 -0.1873 -0.3429
 6974SOL    HW225770   3.597   6.352   0.751 -0.4896  0.0253 -0.6768
 6975SOL     OW25771   3.465   4.105   4.136 -0.0834  0.0367 -0.1865
 6975SOL    HW125772   3.488   4.194   4.110  1.7830 -0.7226 -1.3733
 6975SOL    HW225773   3.509   4.091   4.220 -1.1657  0.5148  0.4810
 6976SOL     OW25774   2.632   8.168   4.698  0.1613 -0.1152 -0.5016
 6976SOL    HW125775   2.728   8.165   4.697  0.1639  0.1173 -1.6062
 6976SOL    HW225776   2.606   8.149   4.608 -0.7399  2.2654 -0.8134
 6977SOL     OW25777   0.237   2.931   6.427  0.0313 -0.2688 -0.5995
 6977SOL    HW125778   0.303   2.908   6.362  1.1424 -0.1299  0.4514
 6977SOL    HW225779   0.215   3.022   6.408 -1.3652 -0.8967 -2.2011
 6978SOL     OW25780   4.181   5.698   7.756 -0.0594 -0.1380 -0.3255
 6978SOL    HW125781   4.189   5.671   7.847  1.5598 -0.4449 -0.5286
 6978SOL    HW225782   4.258   5.753   7.740  0.0275 -0.6096 -1.6721
 6979SOL     OW25783   0.889   3.024   8.339 -0.1480  0.2344 -0.3459
 6979SOL    HW125784   0.884   2.942   8.289  0.5956  0.0640 -0.1472
 6979SOL    HW225785   0.808   3.070   8.316 -0.0364 -0.0413 -1.3640
 6980SOL     OW25786   1.831   2.073   5.573 -0.0404 -0.3348 -0.0656
 6980SOL    HW125787   1.818   2.071   5.668  2.4139 -0.6296  0.3285
 6980SOL    HW225788   1.777   2.002   5.540 -2.0417  0.6440  0.8970
 6981SOL     OW25789   7.908   2.914   9.536 -0.0079 -0.7491  0.4025
 6981SOL    HW125790   7.904   2.938   9.629  0.3905  5.3426 -0.7268
 6981SOL    HW225791   7.831   2.956   9.498  0.4707 -2.0771 -2.1845
 6982SOL     OW25792   5.531   5.164   1.486 -0.0393  0.4861 -0.2666
 6982SOL    HW125793   5.538   5.146   1.580 -0.5811  0.2876 -0.2571
 6982SOL    HW225794   5.489   5.250   1.481  3.0236  2.1044 -0.3090
 6983SOL     OW25795   0.255   7.116   7.119  0.5634  0.2012 -0.0138
 6983SOL    HW125796   0.231   7.186   7.059  1.0919 -0.5961 -1.2039
 6983SOL    HW225797   0.332   7.076   7.079  1.4076  0.1250  1.6071
 6984SOL     OW25798   4.720   9.312   6.108 -0.2654  0.4179 -0.2279
 6984SOL    HW125799   4.706   9.285   6.199  2.3479  1.3033  0.5289
 6984SOL    HW225800   4.755   9.401   6.115 -2.3992  1.5091 -2.2923
 6985SOL     OW25801   1.492   0.511   4.203  0.4856  0.0985  0.2058
 6985SOL    HW125802   1.571   0.462   4.227 -0.3312 -0.2595  2.4276
 6985SOL    HW225803   1.472   0.563   4.281 -1.2037  0.5270 -0.4766
 6986SOL     OW25804   8.683   3.175   3.703 -0.1111 -0.0223 -0.3511
 6986SOL    HW125805   8.750   3.156   3.637 -1.1721 -2.1129 -0.9022
 6986SOL    HW225806   8.663   3.268   3.690 -1.5442 -0.6908 -4.3151
 6987SOL     OW25807   7.448   6.274   7.437  0.0557  0.3975  0.0465
 6987SOL    HW125808   7.419   6.362   7.460  0.0749  0.1348  1.1192
 6987SOL    HW225809   7.491   6.284   7.352  1.4151  1.6944  0.8399
 6988SOL     OW25810   6.460   1.182   5.750 -0.4720 -0.0549 -1.1592
 6988SOL    HW125811   6.413   1.115   5.799 -0.2273  1.0083  0.6365
 6988SOL    HW225812   6.552   1.154   5.754 -0.3495  0.4268 -0.2737
 6989SOL     OW25813   0.458   0.886   6.469 -0.1689  0.1939 -0.9424
 6989SOL    HW125814   0.425   0.934   6.393 -3.0539  0.6215  0.4570
 6989SOL    HW225815   0.461   0.952   6.539  0.4377 -0.6460 -0.1597
 6990SOL     OW25816   8.395   1.547   4.134  0.4132 -0.0173 -0.7844
 6990SOL    HW125817   8.367   1.456   4.122 -0.3166 -0.2851  2.1298
 6990SOL    HW225818   8.317   1.599   4.112  0.0961 -0.2570 -0.2297
 6991SOL     OW25819   9.102   3.974   5.323  0.1387  0.9573  0.9257
 6991SOL    HW125820   9.126   3.900   5.267 -2.6819  1.7018 -1.5642
 6991SOL    HW225821   9.094   3.937   5.411 -1.9382 -2.0148 -0.3406
 6992SOL     OW25822   3.405   5.466   1.814 -0.2822 -0.3664 -0.0318
 6992SOL    HW125823   3.432   5.490   1.902  0.2021 -0.2278 -0.2153
 6992SOL    HW225824   3.377   5.549   1.774 -3.0117 -0.7742  0.8272
 6993SOL     OW25825   6.087   1.430   0.004  0.0158 -0.1696  0.0717
 6993SOL    HW125826   6.157   1.412   0.067  1.0458  1.1384 -0.6544
 6993SOL    HW225827   6.024   1.484   0.053 -0.2850 -0.9697  0.5915
 6994SOL     OW25828   8.095   8.263   5.245 -0.1920 -0.6425  0.1519
 6994SOL    HW125829   8.115   8.342   5.194 -3.3429  1.4621  1.8367
 6994SOL    HW225830   8.172   8.249   5.300  1.4889 -0.4034 -2.0280
 6995SOL     OW25831   0.136   1.458   1.613 -0.2760 -0.2875  0.4348
 6995SOL    HW125832   0.201   1.515   1.574 -1.5078  0.8428 -0.0625
 6995SOL    HW225833   0.117   1.393   1.546 -1.5621  0.9766 -0.4920
 6996SOL     OW25834   0.641   3.102   0.377  0.1787  0.0847 -0.3407
 6996SOL    HW125835   0.628   3.190   0.411  0.6295 -0.2074  0.6177
 6996SOL    HW225836   0.654   3.114   0.283  3.3494  1.3927  0.1474
 6997SOL     OW25837   1.294   9.490   7.356  0.1874  0.0110 -0.2380
 6997SOL    HW125838   1.373   9.460   7.310  0.1154  2.3106 -2.0622
 6997SOL    HW225839   1.325   9.562   7.412 -0.3576 -0.2131  0.3589
 6998SOL     OW25840   6.916   2.679   5.295  0.0060 -0.5352  0.5236
 6998SOL    HW125841   6.896   2.606   5.353 -0.2405 -1.2806 -0.4822
 6998SOL    HW225842   6.932   2.753   5.354  0.6836 -1.4911  1.5737
 6999SOL     OW25843   9.583   5.758   3.972  0.6011 -0.3445 -0.0825
 6999SOL    HW125844   9.568   5.734   3.881 -0.2375 -0.6092  0.1087
 6999SOL    HW225845   9.524   5.832   3.987 -0.7257 -1.5026  0.7445
 7000SOL     OW25846   5.337   4.869   7.813  0.1177 -0.4997 -0.3334
 7000SOL    HW125847   5.287   4.872   7.731  0.1986  1.5989 -0.3789
 7000SOL    HW225848   5.277   4.829   7.876 -1.1406  0.6369 -0.7354
 7001SOL     OW25849   0.912   2.875   8.028  0.1184  0.0347 -0.0737
 7001SOL    HW125850   0.920   2.862   7.934 -2.2341  2.1223 -0.6870
 7001SOL    HW225851   0.914   2.787   8.065  0.0186 -0.9154 -2.1757
 7002SOL     OW25852   6.112   7.592   8.733 -0.3742  0.0175 -0.0901
 7002SOL    HW125853   6.052   7.585   8.659 -0.2024  1.4461 -0.3999
 7002SOL    HW225854   6.085   7.522   8.792 -1.6814 -0.0168 -0.6860
 7003SOL     OW25855   0.354   3.938   2.665  0.8018  0.2211  0.0850
 7003SOL    HW125856   0.419   3.868   2.665  0.8607  0.2755 -0.1126
 7003SOL    HW225857   0.320   3.939   2.755  2.1182  1.1679  0.5923
 7004SOL     OW25858   3.465   1.446   8.168  0.4844  0.1031  0.3554
 7004SOL    HW125859   3.499   1.398   8.243  0.5412 -1.1644 -0.4498
 7004SOL    HW225860   3.382   1.483   8.199  2.3783  3.1809  2.3222
 7005SOL     OW25861   4.450   9.470   3.669  0.2439 -0.0278  0.1441
 7005SOL    HW125862   4.358   9.443   3.665 -0.4845  2.2722 -0.4575
 7005SOL    HW225863   4.499   9.395   3.635 -1.8400  0.4155 -4.6969
 7006SOL     OW25864   6.006   7.756   5.837 -0.0305 -0.2523 -0.1843
 7006SOL    HW125865   6.010   7.849   5.860  0.0539 -0.2430 -0.2349
 7006SOL    HW225866   6.085   7.741   5.785  0.0411 -0.3905 -0.0364
 7007SOL     OW25867   6.928   4.068   3.050 -0.1613 -0.2724  0.4587
 7007SOL    HW125868   6.974   4.129   2.993  1.6454  0.5937  2.7056
 7007SOL    HW225869   6.988   3.994   3.061 -0.0073  0.0387  1.9858
 7008SOL     OW25870   0.520   5.174   6.792  0.0151  0.0700 -0.2156
 7008SOL    HW125871   0.502   5.151   6.884 -0.3890 -1.6735 -0.6840
 7008SOL    HW225872   0.443   5.224   6.765  0.3914  1.0780  0.5455
 7009SOL     OW25873   7.701   2.967   1.382 -0.2024  0.3773 -0.6801
 7009SOL    HW125874   7.725   2.939   1.471  0.9894 -0.4030 -1.2273
 7009SOL    HW225875   7.761   2.919   1.325 -0.9697  0.8612 -1.9169
 7010SOL     OW25876   9.000   0.372   5.505  0.1279  0.3299  0.3800
 7010SOL    HW125877   9.003   0.291   5.556 -1.8245  0.0214  0.0876
 7010SOL    HW225878   8.998   0.442   5.571  2.9662  0.2779  0.6320
 7011SOL     OW25879   0.886   6.064   7.598  0.2782  0.0120  0.7480
 7011SOL    HW125880   0.906   6.003   7.528  0.2695 -0.2637  0.9834
 7011SOL    HW225881   0.830   6.130   7.557 -0.3685 -0.5671  0.6705
 7012SOL     OW25882   4.572   2.780   8.672 -0.6010 -0.0761 -0.1726
 7012SOL    HW125883   4.590   2.712   8.738  0.5740 -0.1212 -0.5088
 7012SOL    HW225884   4.538   2.732   8.597 -3.1496  0.0920  0.7648
 7013SOL     OW25885   4.995   5.525   1.898 -0.1234  0.3592  0.4421
 7013SOL    HW125886   4.918   5.477   1.928  0.0333 -0.3761 -0.2905
 7013SOL    HW225887   4.961   5.596   1.844 -0.2610 -1.4824 -2.0511
 7014SOL     OW25888   4.072   2.602   1.738  0.2830 -0.0335  0.4242
 7014SOL    HW125889   4.092   2.690   1.706 -1.1177 -0.0304 -0.5273
 7014SOL    HW225890   4.021   2.616   1.818  1.0318 -0.0111  0.9092
 7015SOL     OW25891   4.880   4.420   0.479 -0.1993 -0.4733 -0.6093
 7015SOL    HW125892   4.820   4.346   0.470 -0.3600 -0.1904 -2.0854
 7015SOL    HW225893   4.895   4.427   0.574 -1.2888 -1.4904 -0.3354
 7016SOL     OW25894   6.284   8.621   6.137 -0.5889  0.0656  0.2876
 7016SOL    HW125895   6.337   8.695   6.105  0.2812 -0.6843 -0.0446
 7016SOL    HW225896   6.212   8.614   6.075  0.2469 -0.4080 -0.6510
 7017SOL     OW25897   1.875   8.877   0.026  0.5789  0.2378  0.1530
 7017SOL    HW125898   1.810   8.908  -0.037 -0.7436 -2.1634  0.1951
 7017SOL    HW225899   1.959   8.899  -0.014 -0.2145 -0.7789 -2.3165
 7018SOL     OW25900   4.744   7.023   4.970  0.5326 -0.3775  0.6429
 7018SOL    HW125901   4.750   6.927   4.964 -0.4374 -0.4999  1.3070
 7018SOL    HW225902   4.831   7.051   4.995  1.2162 -0.9498 -0.9132
 7019SOL     OW25903   2.241   1.434   5.248 -0.4366  0.3827 -0.5298
 7019SOL    HW125904   2.304   1.486   5.197 -0.8746  0.3948 -1.0662
 7019SOL    HW225905   2.231   1.353   5.197 -2.1598  1.0878 -1.3466
 7020SOL     OW25906   8.955   3.236   6.774 -0.3296  0.1079  0.1421
 7020SOL    HW125907   9.016   3.168   6.803 -0.4928  0.0472  0.3479
 7020SOL    HW225908   9.006   3.291   6.715 -0.4951 -0.8412 -0.9228
 7021SOL     OW25909   4.869   4.640   6.632  0.1072  0.0455 -0.2069
 7021SOL    HW125910   4.885   4.688   6.551 -1.1565  2.1900  0.7459
 7021SOL    HW225911   4.830   4.704   6.691 -0.3525 -1.8235  1.6344
 7022SOL     OW25912   1.490   4.334   9.695  0.0287  0.2670  0.3325
 7022SOL    HW125913   1.538   4.293   9.767  2.1675  0.4738 -0.8811
 7022SOL    HW225914   1.476   4.263   9.633  0.9359  0.6825 -0.3715
 7023SOL     OW25915   3.869   5.058   5.330  0.3978 -0.4079  0.3592
 7023SOL    HW125916   3.959   5.031   5.346  0.7261  0.8626  0.7695
 7023SOL    HW225917   3.825   5.043   5.414 -0.4114 -3.2071 -0.4309
 7024SOL     OW25918   4.670   1.597   3.963 -0.2051 -0.3153  0.3857
 7024SOL    HW125919   4.589   1.588   4.012  0.1158  0.4302  1.0774
 7024SOL    HW225920   4.711   1.676   3.998  0.7156 -0.5525 -0.1080
 7025SOL     OW25921   5.259   2.306   6.107 -0.0684  0.4522 -0.2173
 7025SOL    HW125922   5.297   2.254   6.178 -0.4244  0.4345 -0.0357
 7025SOL    HW225923   5.164   2.294   6.117 -0.1476  1.0445 -0.2465
 7026SOL     OW25924   4.533   9.569   6.654 -0.7165 -0.6435 -0.1997
 7026SOL    HW125925   4.566   9.614   6.577  0.6469 -1.7000 -0.2727
 7026SOL    HW225926   4.494   9.489   6.620  1.3083 -1.9043  0.2560
 7027SOL     OW25927   7.505   6.427   0.631 -0.0892 -0.5246  0.1781
 7027SOL    HW125928   7.576   6.478   0.593 -0.5755 -0.4428 -0.6260
 7027SOL    HW225929   7.541   6.395   0.714  0.9453 -0.6380 -0.3033
 7028SOL     OW25930   0.525   2.928   7.876  0.2403  0.1823  0.2717
 7028SOL    HW125931   0.544   2.863   7.944  0.3326 -0.2267 -0.1451
 7028SOL    HW225932   0.575   2.899   7.800 -0.6919  0.0564 -0.3028
 7029SOL     OW25933   6.628   4.460   4.892  0.3342  0.3910 -0.4464
 7029SOL    HW125934   6.714   4.440   4.855 -0.0227  0.7801 -1.5276
 7029SOL    HW225935   6.588   4.374   4.907  1.8945  0.0679  2.6256
 7030SOL     OW25936   6.118   1.770   7.986  0.0390 -0.9767  0.0491
 7030SOL    HW125937   6.100   1.759   7.893 -0.5052 -3.5500  0.3852
 7030SOL    HW225938   6.213   1.783   7.991  0.1432 -1.3393 -0.8383
 7031SOL     OW25939   3.440   6.822   1.452 -0.0513 -0.2547 -0.6515
 7031SOL    HW125940   3.380   6.884   1.411 -1.1813  0.1265  1.4126
 7031SOL    HW225941   3.514   6.877   1.480  0.8417 -0.5565 -2.2973
 7032SOL     OW25942   4.965   3.804   4.685  0.5505  0.3123 -0.7996
 7032SOL    HW125943   5.001   3.785   4.599  1.9405  0.2305 -0.2269
 7032SOL    HW225944   5.010   3.884   4.713  1.1898 -0.4455  0.4253
 7033SOL     OW25945   4.154   2.366   3.319 -0.0088 -0.1960 -0.0960
 7033SOL    HW125946   4.062   2.366   3.292 -0.0611  0.2210  0.0767
 7033SOL    HW225947   4.156   2.421   3.397  0.3944 -0.1769 -0.1180
 7034SOL     OW25948   5.393   2.119   4.756  0.4281  0.0856 -0.0735
 7034SOL    HW125949   5.381   2.137   4.663  0.4745 -0.6470 -0.2259
 7034SOL    HW225950   5.381   2.204   4.799 -0.2240  0.3046 -0.6848
 7035SOL     OW25951   8.907   6.107   4.185  0.2871 -0.0277  0.0543
 7035SOL    HW125952   8.815   6.080   4.188 -0.0517  1.1157  1.6890
 7035SOL    HW225953   8.919   6.138   4.095 -1.0530  0.1627 -0.0927
 7036SOL     OW25954   3.308   6.586   5.522 -0.3452  0.2418  0.2703
 7036SOL    HW125955   3.342   6.675   5.508 -3.2952  1.6223  0.9311
 7036SOL    HW225956   3.213   6.595   5.510 -1.0247 -2.3233  2.6855
 7037SOL     OW25957   8.715   0.635   2.517 -0.8064  0.1666  0.3252
 7037SOL    HW125958   8.663   0.621   2.437 -0.6448  2.4832 -0.2574
 7037SOL    HW225959   8.680   0.715   2.555  1.2380  0.8808  0.8326
 7038SOL     OW25960   5.215   8.349   5.552  0.2696 -0.6342 -0.1832
 7038SOL    HW125961   5.275   8.282   5.585 -0.0052 -1.3428 -1.0648
 7038SOL    HW225962   5.265   8.397   5.487  0.3857 -0.1446  0.2643
 7039SOL     OW25963   4.042   4.671   8.446 -0.0828 -0.4905  0.6145
 7039SOL    HW125964   3.948   4.659   8.429 -0.3943 -0.2270  2.0343
 7039SOL    HW225965   4.066   4.747   8.394 -0.7597 -0.3044  0.5594
 7040SOL     OW25966   2.420   2.314   2.911 -0.1160 -1.1595  0.0769
 7040SOL    HW125967   2.487   2.254   2.877  1.9681  1.1454 -0.1114
 7040SOL    HW225968   2.410   2.380   2.843 -2.4490 -1.2628  0.2362
 7041SOL     OW25969   7.596   0.575   2.177 -0.3934 -0.4863 -0.3299
 7041SOL    HW125970   7.676   0.522   2.179 -0.5441 -0.7044 -0.0065
 7041SOL    HW225971   7.602   0.624   2.095  1.2670  1.3304  0.7833
 7042SOL     OW25972   0.101   5.392   4.189 -0.2871 -0.1783  0.0305
 7042SOL    HW125973   0.073   5.478   4.157 -2.5341 -1.2113 -0.9982
 7042SOL    HW225974   0.041   5.372   4.260  0.5723 -0.6839  0.6387
 7043SOL     OW25975   6.829   5.223   5.760 -0.1975  0.3583  0.7007
 7043SOL    HW125976   6.850   5.275   5.683 -0.7794 -0.2513  0.1184
 7043SOL    HW225977   6.775   5.151   5.727  0.0181 -0.2338  1.5860
 7044SOL     OW25978   6.523   4.891   1.796 -0.0109 -0.1897  0.2162
 7044SOL    HW125979   6.539   4.905   1.890 -1.1699 -0.5683  0.4818
 7044SOL    HW225980   6.611   4.890   1.758  0.4298  2.8086  0.8545
 7045SOL     OW25981   0.685   1.196   9.682 -0.1728  0.3320 -0.0882
 7045SOL    HW125982   0.690   1.151   9.598  1.8549  2.2864 -1.1136
 7045SOL    HW225983   0.704   1.128   9.747 -2.6160 -1.3926 -1.0512
 7046SOL     OW25984   2.569   5.317   5.200 -0.4224 -0.0772  0.0261
 7046SOL    HW125985   2.569   5.224   5.178 -1.1111 -0.2095  0.5493
 7046SOL    HW225986   2.525   5.321   5.285  1.3222  0.5178  0.9571
 7047SOL     OW25987   0.998   0.293   0.400 -0.1502  0.0744 -0.2167
 7047SOL    HW125988   1.066   0.284   0.467  1.0153 -1.1715 -1.4922
 7047SOL    HW225989   0.964   0.381   0.412  0.3951  0.0711  1.6529
 7048SOL     OW25990   6.215   7.398   8.431 -0.1305 -0.6466 -0.1748
 7048SOL    HW125991   6.201   7.331   8.363 -0.0138 -0.1729 -0.6737
 7048SOL    HW225992   6.131   7.405   8.475 -0.6899  0.1923 -1.3307
 7049SOL     OW25993   4.367   8.282   9.295  0.3411 -0.1505 -0.0895
 7049SOL    HW125994   4.328   8.262   9.379  0.5943  0.3023  0.1422
 7049SOL    HW225995   4.426   8.356   9.313 -2.3436  2.4772 -1.3267
 7050SOL     OW25996   0.574   5.315   5.760  0.2138 -0.1734 -0.1482
 7050SOL    HW125997   0.608   5.398   5.793  0.1409 -0.7161  1.3803
 7050SOL    HW225998   0.568   5.327   5.665  0.6678  1.3844 -0.0035
 7051SOL     OW25999   7.723   4.602   6.850  0.3090  0.2268 -0.1215
 7051SOL    HW126000   7.736   4.536   6.918  0.1335  1.5372  1.2244
 7051SOL    HW226001   7.696   4.680   6.897  2.1143  1.7713 -1.5173
 7052SOL     OW26002   8.092   8.416   1.994 -0.4387 -0.2556 -0.1227
 7052SOL    HW126003   8.055   8.469   2.065 -0.0511  2.3072 -1.6992
 7052SOL    HW226004   8.186   8.415   2.011  0.0149  2.4907 -1.7253
 7053SOL     OW26005   3.747   6.019   4.430 -0.5869 -0.3173 -0.1908
 7053SOL    HW126006   3.689   6.095   4.428  1.9225  1.7249 -2.6202
 7053SOL    HW226007   3.821   6.046   4.484  1.4175 -0.0403 -2.9137
 7054SOL     OW26008   8.891   1.533   1.249 -0.5107  0.2023 -0.0423
 7054SOL    HW126009   8.971   1.530   1.300 -1.0217 -0.5649  0.7426
 7054SOL    HW226010   8.912   1.588   1.173  0.2589  1.3836  1.0013
 7055SOL     OW26011   2.443   2.620   0.381  0.9057 -0.5152 -0.1620
 7055SOL    HW126012   2.421   2.713   0.369  0.6894 -0.7228 -1.6532
 7055SOL    HW226013   2.368   2.573   0.344  1.6359 -1.2639 -0.7428
 7056SOL     OW26014   1.004   2.209   6.182 -0.5290 -0.1357 -0.3849
 7056SOL    HW126015   0.976   2.222   6.273 -1.7178  0.7358 -0.8452
 7056SOL    HW226016   1.042   2.292   6.155  0.2650 -0.5434 -0.5423
 7057SOL     OW26017   4.099   5.288   9.188 -0.2491 -0.4562 -0.1432
 7057SOL    HW126018   4.043   5.363   9.171 -2.2642 -1.5609  1.1417
 7057SOL    HW226019   4.078   5.262   9.278  0.8080 -2.1815 -0.3400
 7058SOL     OW26020   7.221   9.363   2.799  0.1481  0.4922  0.2759
 7058SOL    HW126021   7.167   9.358   2.878  1.2378  2.8481  1.2397
 7058SOL    HW226022   7.309   9.342   2.829  0.2927 -0.3552 -0.6965
 7059SOL     OW26023   1.706   4.490   5.484  0.2741  0.3567 -0.6755
 7059SOL    HW126024   1.662   4.479   5.569 -1.3353  0.0294 -1.5093
 7059SOL    HW226025   1.684   4.579   5.457  1.3364  0.6977 -0.4721
 7060SOL     OW26026   7.103   0.366   4.777  0.4784 -0.3469  0.3735
 7060SOL    HW126027   7.031   0.429   4.775  0.2194 -0.6497 -0.1095
 7060SOL    HW226028   7.085   0.310   4.853  0.2716 -0.3385  0.3310
 7061SOL     OW26029   8.688   9.066   7.529  0.4868 -0.4178 -0.2348
 7061SOL    HW126030   8.677   9.099   7.440 -2.8135  1.0201  0.5566
 7061SOL    HW226031   8.677   9.142   7.585  0.8935 -1.5571  1.4923
 7062SOL     OW26032   3.567   4.565   7.650 -0.5189  0.1242  0.3180
 7062SOL    HW126033   3.605   4.483   7.618  1.7969 -0.0319  3.0694
 7062SOL    HW226034   3.567   4.623   7.574  0.3644 -1.5696 -1.0435
 7063SOL     OW26035   2.613   7.195   9.419 -0.2446  0.1211 -0.3047
 7063SOL    HW126036   2.636   7.106   9.391 -0.8769 -0.5859  1.3091
 7063SOL    HW226037   2.595   7.242   9.337 -2.0928 -1.8604 -1.1222
 7064SOL     OW26038   3.143   3.969   7.088  0.1333  0.1218  0.0284
 7064SOL    HW126039   3.200   3.924   7.151 -1.1612  0.9718  1.8922
 7064SOL    HW226040   3.200   4.032   7.045  0.7284  0.6794  1.5561
 7065SOL     OW26041   4.014   4.109   3.131  0.8327 -0.3744 -0.1439
 7065SOL    HW126042   3.981   4.128   3.043 -0.4133 -1.4595  0.0694
 7065SOL    HW226043   4.023   4.014   3.134 -1.3338 -0.6140  1.6049
 7066SOL     OW26044   3.826   6.240   4.771 -0.5050  0.0364  0.0658
 7066SOL    HW126045   3.878   6.241   4.851 -1.7647 -0.1057  0.9098
 7066SOL    HW226046   3.889   6.214   4.703  1.7833  4.6133  0.0436
 7067SOL     OW26047   1.261   3.113   5.124 -0.1020  0.0461  0.3333
 7067SOL    HW126048   1.314   3.042   5.160 -2.0793 -1.7184 -0.1091
 7067SOL    HW226049   1.302   3.134   5.041  0.1740 -0.9890  0.1973
 7068SOL     OW26050   0.281   5.639   5.967 -0.0004  0.1822  0.5428
 7068SOL    HW126051   0.229   5.651   6.047 -1.6300  1.1444 -0.6109
 7068SOL    HW226052   0.217   5.614   5.901  1.3782 -0.9747 -0.4151
 7069SOL     OW26053   7.989   2.266   5.307 -0.7582  0.0039  0.4954
 7069SOL    HW126054   8.042   2.290   5.230 -0.0498 -4.1709 -0.5783
 7069SOL    HW226055   8.053   2.257   5.378 -0.4238 -1.8743  0.0065
 7070SOL     OW26056   1.906   6.423   2.675  0.0241  0.1542  0.1147
 7070SOL    HW126057   1.910   6.518   2.685  2.3147  0.0571  0.5518
 7070SOL    HW226058   1.981   6.401   2.621 -0.8009 -1.3814 -0.4752
 7071SOL     OW26059   9.295   3.272   3.820 -0.1377  0.1986 -0.3413
 7071SOL    HW126060   9.337   3.253   3.736  1.0308 -1.4734  0.5732
 7071SOL    HW226061   9.340   3.215   3.882 -1.1627  1.2093  1.3817
 7072SOL     OW26062   1.199   3.729   7.362 -0.9081 -0.2892 -0.2924
 7072SOL    HW126063   1.150   3.811   7.368 -1.1663 -0.3912 -0.8795
 7072SOL    HW226064   1.280   3.754   7.316 -2.0335 -0.7686 -2.6957
 7073SOL     OW26065   1.533   8.070   3.605  0.0129 -0.2809 -0.1588
 7073SOL    HW126066   1.627   8.063   3.621  0.1177 -0.1181 -0.6860
 7073SOL    HW226067   1.496   8.093   3.690  0.5987  0.9317 -0.2133
 7074SOL     OW26068   7.854   6.926   7.273 -0.3391  0.2561 -0.0720
 7074SOL    HW126069   7.857   7.021   7.286 -0.0273  0.0767  1.3050
 7074SOL    HW226070   7.808   6.893   7.350  1.4362 -0.8779  0.5749
 7075SOL     OW26071   0.510   1.239   8.637  0.4720  0.2909  0.3036
 7075SOL    HW126072   0.593   1.266   8.600  0.6086 -1.9837 -1.2469
 7075SOL    HW226073   0.450   1.236   8.563  0.3982 -3.0522  0.3406
 7076SOL     OW26074   3.978   5.033   8.708  0.0378  0.6550 -0.2517
 7076SOL    HW126075   4.055   5.089   8.699  1.4483 -1.3670 -1.9062
 7076SOL    HW226076   3.952   5.013   8.618 -2.0820  0.7958  0.2817
 7077SOL     OW26077   7.228   5.244   3.467  0.0473 -0.2637  0.6064
 7077SOL    HW126078   7.274   5.160   3.469 -2.2101 -1.5871  0.9199
 7077SOL    HW226079   7.176   5.245   3.548 -1.3069  0.6008 -0.2326
 7078SOL     OW26080   0.396   3.402   7.561 -1.1111  0.2158 -0.1515
 7078SOL    HW126081   0.438   3.323   7.596 -0.7168  0.4987  0.0218
 7078SOL    HW226082   0.390   3.386   7.467  2.7445  1.6109 -0.8333
 7079SOL     OW26083   4.916   2.543   2.977 -0.3455  0.3667 -0.1467
 7079SOL    HW126084   4.825   2.565   2.997 -0.9721 -0.6262 -1.7142
 7079SOL    HW226085   4.967   2.587   3.045 -2.0834 -0.3615  1.7373
 7080SOL     OW26086   0.894   7.485   8.057 -0.0975  0.3762 -0.2939
 7080SOL    HW126087   0.935   7.546   7.995 -0.4092  0.7215 -0.1659
 7080SOL    HW226088   0.807   7.468   8.020  0.9704 -2.2941 -1.8877
 7081SOL     OW26089   7.378   2.013   0.506 -1.0841  0.3001  0.3134
 7081SOL    HW126090   7.468   1.978   0.505 -1.4516 -0.6791 -0.0208
 7081SOL    HW226091   7.368   2.054   0.420 -0.5835  1.4449  0.7807
 7082SOL     OW26092   3.229   8.860   8.349  0.1388 -0.2003  0.0255
 7082SOL    HW126093   3.255   8.772   8.374 -0.3330  0.0388  1.4128
 7082SOL    HW226094   3.306   8.914   8.367  0.1063 -0.1719  0.0782
 7083SOL     OW26095   5.902   9.110   0.487  0.0141 -0.5516 -0.0383
 7083SOL    HW126096   5.994   9.110   0.462 -0.0388 -0.3825 -0.2470
 7083SOL    HW226097   5.897   9.169   0.563 -0.2232  1.0886 -1.2566
 7084SOL     OW26098   2.656   8.900   3.869 -0.0004 -0.0106 -0.5370
 7084SOL    HW126099   2.588   8.954   3.827  0.6637  0.4104 -1.0819
 7084SOL    HW226100   2.729   8.961   3.883  0.6944 -0.7282 -1.0014
 7085SOL     OW26101   5.170   2.334   2.982 -0.6118 -0.2675 -0.5815
 7085SOL    HW126102   5.137   2.257   3.027  1.2434 -0.6934  0.1347
 7085SOL    HW226103   5.117   2.406   3.015  0.4000 -0.6277  2.0381
 7086SOL     OW26104   4.199   8.660   6.293 -0.1865 -0.0867 -0.3145
 7086SOL    HW126105   4.268   8.674   6.358 -0.0748  0.1721 -0.4873
 7086SOL    HW226106   4.121   8.698   6.333 -0.4705 -1.2730  0.3152
 7087SOL     OW26107   2.409   5.415   4.853  0.1245 -0.0611 -0.2631
 7087SOL    HW126108   2.411   5.328   4.814 -2.0482 -0.6025  0.7018
 7087SOL    HW226109   2.416   5.475   4.779  1.1747 -1.0235 -0.9789
 7088SOL     OW26110   8.544   2.541   9.634 -0.0003  0.4911  0.5373
 7088SOL    HW126111   8.530   2.494   9.715 -2.3871  1.1560  0.5860
 7088SOL    HW226112   8.489   2.496   9.570  1.9131 -0.0869 -0.7985
 7089SOL     OW26113   8.475   7.330   5.361  0.0597 -0.0267  0.7736
 7089SOL    HW126114   8.455   7.244   5.398  0.9515 -0.1260  1.0397
 7089SOL    HW226115   8.557   7.356   5.403 -0.6849  1.3934  1.4252
 7090SOL     OW26116   0.517   1.793   7.775 -0.0656  0.0624 -0.0529
 7090SOL    HW126117   0.507   1.852   7.849 -1.8971 -1.5051  1.0420
 7090SOL    HW226118   0.519   1.706   7.814 -3.3846 -1.0050 -1.8639
 7091SOL     OW26119   1.259   6.428   4.402 -0.0380 -0.0537  0.0634
 7091SOL    HW126120   1.271   6.388   4.488  1.0017  0.6669  0.2715
 7091SOL    HW226121   1.293   6.517   4.412  1.3062 -0.3627 -1.4304
 7092SOL     OW26122   6.973   6.788   5.386 -0.2690 -0.1410  0.4898
 7092SOL    HW126123   6.960   6.827   5.472  0.5711 -2.4533  1.7422
 7092SOL    HW226124   6.890   6.746   5.365 -0.5295  0.5635  0.0480
 7093SOL     OW26125   0.709   2.567   6.475 -0.1726  0.1505 -0.0277
 7093SOL    HW126126   0.664   2.508   6.535 -0.7619 -0.5736 -1.1555
 7093SOL    HW226127   0.647   2.639   6.461  1.2484  2.1212  2.8154
 7094SOL     OW26128   7.633   2.668   4.940  0.4195  0.2572  0.4353
 7094SOL    HW126129   7.681   2.721   5.004  2.9425 -0.5390 -0.6712
 7094SOL    HW226130   7.647   2.713   4.857 -1.1507  0.2094  0.1208
 7095SOL     OW26131   2.701   6.874   0.927 -0.2609 -0.4168  0.3043
 7095SOL    HW126132   2.682   6.847   0.837  1.0193  0.2040 -0.1912
 7095SOL    HW226133   2.621   6.855   0.976 -0.6824 -1.5834 -0.7796
 7096SOL     OW26134   3.842   5.061   8.960 -0.4658 -0.3655  0.5263
 7096SOL    HW126135   3.877   5.068   8.871  1.5352 -1.4060  1.1399
 7096SOL    HW226136   3.855   5.148   8.998  0.4622 -0.4151  0.3609
 7097SOL     OW26137   8.869   0.519   6.454  0.4894  0.5278 -0.3655
 7097SOL    HW126138   8.851   0.445   6.513 -0.3507  1.9209  1.2030
 7097SOL    HW226139   8.892   0.478   6.371 -2.6471 -1.5197 -0.3931
 7098SOL     OW26140   7.020   3.777   9.705 -0.0162 -0.4512  0.0676
 7098SOL    HW126141   7.094   3.776   9.645  0.5262 -0.2483  0.7152
 7098SOL    HW226142   6.971   3.856   9.682  0.4295 -0.1431  0.1815
 7099SOL     OW26143   2.949   9.254   4.580 -0.1833  0.2161  0.0665
 7099SOL    HW126144   2.911   9.304   4.652  0.0453 -0.4963  0.6926
 7099SOL    HW226145   2.984   9.175   4.621 -1.0521 -0.7484 -0.9801
 7100SOL     OW26146   8.299   2.953   4.915  0.4019  0.2007  0.3515
 7100SOL    HW126147   8.301   2.935   5.009  0.6273  0.2336  0.3543
 7100SOL    HW226148   8.212   2.992   4.900 -0.2447 -1.2260  0.2734
 7101SOL     OW26149   4.532   7.262   0.816  0.0902  0.1293 -0.4514
 7101SOL    HW126150   4.523   7.320   0.892 -0.6281 -1.4843  0.7622
 7101SOL    HW226151   4.453   7.208   0.818 -0.4052  0.6216 -2.9144
 7102SOL     OW26152   6.078   9.653   3.231  0.8291 -0.2138 -0.6634
 7102SOL    HW126153   6.086   9.745   3.254  0.8771 -1.1365  3.8556
 7102SOL    HW226154   5.987   9.642   3.204  0.4623  0.9045  0.0973
 7103SOL     OW26155   3.464   4.496   5.319 -0.0019  0.1766  0.5855
 7103SOL    HW126156   3.455   4.411   5.362  1.8604 -0.6823 -0.6045
 7103SOL    HW226157   3.505   4.477   5.235 -0.4057  2.1667 -0.1281
 7104SOL     OW26158   9.594   1.461   7.278  0.1797 -0.2521  0.0644
 7104SOL    HW126159   9.503   1.437   7.261  0.8469 -3.0641 -0.0361
 7104SOL    HW226160   9.593   1.503   7.365 -1.2898  0.7311 -0.3973
 7105SOL     OW26161   4.812   6.327   6.546 -0.4577  0.2424 -0.1477
 7105SOL    HW126162   4.722   6.346   6.520 -0.3657 -0.0018 -0.6481
 7105SOL    HW226163   4.827   6.236   6.519  0.5899  0.8912 -1.9383
 7106SOL     OW26164   0.861   8.612   2.760  0.2194  0.6246  0.0656
 7106SOL    HW126165   0.875   8.682   2.824 -0.2971 -1.9171  3.1723
 7106SOL    HW226166   0.785   8.564   2.792 -0.6310 -0.3369 -3.0031
 7107SOL     OW26167   9.332   3.608   9.732  0.2740  0.2851 -0.1748
 7107SOL    HW126168   9.378   3.687   9.759  0.6339 -0.2622  0.8519
 7107SOL    HW226169   9.400   3.542   9.722 -0.0111  0.1124 -1.1313
 7108SOL     OW26170   2.959   4.960   1.376  0.7343  0.6806 -0.2665
 7108SOL    HW126171   2.898   4.902   1.331  0.2048  1.4702 -0.5903
 7108SOL    HW226172   2.914   4.985   1.457  1.1221  0.3402  0.0620
 7109SOL     OW26173   3.719   0.043   3.444  0.3635  0.4904  0.2698
 7109SOL    HW126174   3.681   0.032   3.531 -0.0220  0.1235  0.0537
 7109SOL    HW226175   3.653   0.008   3.384  0.7508  0.4778 -0.1509
 7110SOL     OW26176   8.471   9.072   8.759 -0.4363 -0.5272 -0.1669
 7110SOL    HW126177   8.425   9.083   8.842  0.0771 -1.5283  0.2688
 7110SOL    HW226178   8.531   8.999   8.774  2.8005  1.9537 -0.0680
 7111SOL     OW26179   5.178   7.445   7.819 -0.1066 -0.3072 -0.1112
 7111SOL    HW126180   5.135   7.447   7.734  1.7113  0.1217 -1.0645
 7111SOL    HW226181   5.174   7.535   7.851  0.0946 -0.2682 -0.1981
 7112SOL     OW26182   8.644   2.613   4.831 -0.3908  0.0696 -0.0823
 7112SOL    HW126183   8.706   2.554   4.873 -0.8827 -0.5531 -0.2071
 7112SOL    HW226184   8.558   2.572   4.846 -0.8035  1.0700  0.3604
 7113SOL     OW26185   5.795   6.815   8.241 -0.5086  0.4213  0.1296
 7113SOL    HW126186   5.796   6.887   8.304 -1.2332  0.2776  0.3186
 7113SOL    HW226187   5.820   6.738   8.293 -1.2521  0.2765  0.2922
 7114SOL     OW26188   2.028   9.063   5.771 -0.1472 -0.6038 -0.1253
 7114SOL    HW126189   2.080   9.044   5.692 -1.1881  1.4132 -1.3613
 7114SOL    HW226190   2.067   9.006   5.838  1.5420 -1.5395 -1.7708
 7115SOL     OW26191   1.507   4.670   6.894  0.0298  0.8075 -0.4701
 7115SOL    HW126192   1.585   4.702   6.848  0.2203 -0.2757 -0.9337
 7115SOL    HW226193   1.435   4.685   6.833 -0.1278  1.7314 -0.0748
 7116SOL     OW26194   9.603   8.550   5.483 -0.4936  0.0421  0.2170
 7116SOL    HW126195   9.673   8.583   5.426  0.0393 -1.5881 -0.1160
 7116SOL    HW226196   9.526   8.601   5.457  0.1576  0.5974 -0.6932
 7117SOL     OW26197   2.286   0.463   1.301  0.4464  0.1464  0.3946
 7117SOL    HW126198   2.230   0.450   1.225  1.1465 -1.2549  0.0868
 7117SOL    HW226199   2.329   0.548   1.285  1.2205 -0.5034 -1.2097
 7118SOL     OW26200   5.532   1.224   1.530  0.5529 -0.1346  0.2613
 7118SOL    HW126201   5.537   1.292   1.462 -0.3475 -1.4188 -1.1609
 7118SOL    HW226202   5.611   1.173   1.518  0.4843 -0.2491  0.2993
 7119SOL     OW26203   6.146   3.987   9.289  0.0267 -0.7327 -0.0986
 7119SOL    HW126204   6.140   3.896   9.257  0.9874 -0.1182 -2.2262
 7119SOL    HW226205   6.133   4.040   9.210 -1.8871  1.0387  1.3328
 7120SOL     OW26206   3.288   8.170   0.764 -0.0156 -0.0648 -0.0358
 7120SOL    HW126207   3.314   8.244   0.709 -1.0198  1.1324  1.0288
 7120SOL    HW226208   3.319   8.093   0.716 -1.9582  0.7891 -2.9654
 7121SOL     OW26209   7.908   1.060   2.153 -0.0261 -0.5529 -0.0501
 7121SOL    HW126210   7.872   1.149   2.149 -0.1017 -0.6043 -0.5844
 7121SOL    HW226211   7.847   1.007   2.101 -1.1584 -1.3335  1.9757
 7122SOL     OW26212   2.860   6.937   3.189 -0.2637 -0.1956 -0.2757
 7122SOL    HW126213   2.770   6.904   3.188  0.9451 -4.0573 -0.0778
 7122SOL    HW226214   2.883   6.941   3.281 -0.2106  0.8178 -0.3250
 7123SOL     OW26215   7.309   6.441   0.064 -0.1643 -0.3598  0.1966
 7123SOL    HW126216   7.300   6.524   0.017  2.1207  0.5261  1.1388
 7123SOL    HW226217   7.240   6.443   0.131 -1.0152  0.1068 -0.6797
 7124SOL     OW26218   6.435   3.010   7.966 -0.3425 -0.1178  0.4567
 7124SOL    HW126219   6.437   2.961   7.884 -0.2357  0.6420  0.0034
 7124SOL    HW226220   6.506   3.074   7.958 -1.7315  1.4601  0.2009
 7125SOL     OW26221   7.290   3.105   1.380  0.4710 -0.7000  0.7421
 7125SOL    HW126222   7.344   3.079   1.455  0.2572 -1.1499  0.7433
 7125SOL    HW226223   7.281   3.200   1.389 -0.3337 -0.8531  1.8191
 7126SOL     OW26224   9.724   1.202   3.944  0.1635  0.0616 -0.2953
 7126SOL    HW126225   9.774   1.136   3.993 -1.4458 -0.4249  0.7730
 7126SOL    HW226226   9.715   1.164   3.857 -1.5324 -1.6662  0.5453
 7127SOL     OW26227   8.460   2.399   0.356  0.2429  0.0331  0.5267
 7127SOL    HW126228   8.536   2.437   0.401  0.0640 -0.0300  0.8830
 7127SOL    HW226229   8.392   2.465   0.364  0.6628  0.6817 -0.9957
 7128SOL     OW26230   5.296   2.102   7.636 -0.3571 -0.3561 -0.4663
 7128SOL    HW126231   5.253   2.171   7.686  1.8768 -0.7694  2.3003
 7128SOL    HW226232   5.232   2.031   7.633 -1.4755  0.6122 -0.4789
 7129SOL     OW26233   5.841   0.344   6.072  0.1432 -0.0850  0.4264
 7129SOL    HW126234   5.827   0.402   6.147  0.6347  0.5909  0.0012
 7129SOL    HW226235   5.936   0.343   6.060  0.0578 -0.0992 -0.2595
 7130SOL     OW26236   4.045   5.812   4.579  0.1155  0.4968  0.1959
 7130SOL    HW126237   4.117   5.779   4.633  0.1281 -0.0264 -0.1314
 7130SOL    HW226238   3.966   5.791   4.628  0.0535 -1.0030 -0.4761
 7131SOL     OW26239   8.060   6.570   9.016  0.1354 -0.5162  0.3156
 7131SOL    HW126240   8.037   6.493   8.964  0.1098 -0.6391  0.5069
 7131SOL    HW226241   7.995   6.636   8.991  0.2065 -0.5297  0.0923
 7132SOL     OW26242   3.590   0.006   6.101 -0.7210 -0.2892 -0.1763
 7132SOL    HW126243   3.647  -0.071   6.095 -0.2713 -0.1425  1.5533
 7132SOL    HW226244   3.626   0.068   6.037 -0.9385 -1.4011 -1.4101
 7133SOL     OW26245   3.672   0.146   7.576  0.2372 -0.9012  0.4834
 7133SOL    HW126246   3.625   0.082   7.630  0.5196 -0.1962  1.6007
 7133SOL    HW226247   3.764   0.129   7.593  0.3595 -1.2990 -0.5382
 7134SOL     OW26248   8.648   7.716   5.617 -0.4911  0.7984 -0.0427
 7134SOL    HW126249   8.561   7.704   5.579 -0.4492  3.5476 -1.2191
 7134SOL    HW226250   8.647   7.806   5.650  1.4761  0.4186  1.2026
 7135SOL     OW26251   0.499   8.624   4.917  0.2350 -0.6056 -0.1021
 7135SOL    HW126252   0.505   8.578   5.001 -2.7899 -3.4376 -1.2022
 7135SOL    HW226253   0.585   8.612   4.878  1.0605 -1.0375  1.7057
 7136SOL     OW26254   2.652   7.928   4.074  0.1847  0.4240  0.1897
 7136SOL    HW126255   2.684   7.841   4.098 -0.1226 -0.1462 -1.3579
 7136SOL    HW226256   2.717   7.962   4.013 -0.4289  0.6729 -0.3397
 7137SOL     OW26257   2.914   3.137   5.786 -0.4455  0.0575 -0.1329
 7137SOL    HW126258   2.933   3.231   5.797 -0.0317 -0.2569  2.5746
 7137SOL    HW226259   2.981   3.107   5.725 -0.5347  1.5106 -0.9967
 7138SOL     OW26260   7.651   0.861   7.259  0.3340 -0.1963  0.3226
 7138SOL    HW126261   7.693   0.779   7.233  0.6623 -0.2848  1.1200
 7138SOL    HW226262   7.558   0.845   7.248  0.3303 -1.0403  1.4741
 7139SOL     OW26263   4.866   5.813   0.107  0.5185 -0.0696 -0.1518
 7139SOL    HW126264   4.948   5.861   0.097  1.0311 -0.9688 -0.3886
 7139SOL    HW226265   4.820   5.825   0.024 -0.2959  1.6708  0.5003
 7140SOL     OW26266   2.236   8.524   9.451 -0.0594  0.4274  0.1436
 7140SOL    HW126267   2.278   8.529   9.537 -1.5290  0.4498  0.8912
 7140SOL    HW226268   2.148   8.559   9.465  0.0674  1.6376 -1.6628
 7141SOL     OW26269   3.799   8.641   9.127  0.4287 -0.5364  0.2773
 7141SOL    HW126270   3.725   8.631   9.187 -0.5078  0.7107 -0.6124
 7141SOL    HW226271   3.766   8.609   9.043  1.4315 -1.4460  0.2223
 7142SOL     OW26272   5.418   9.020   1.130 -0.6236  0.2047 -0.4451
 7142SOL    HW126273   5.452   9.086   1.191  0.8325 -1.2559  0.4191
 7142SOL    HW226274   5.455   8.937   1.162 -2.6002 -1.0885 -1.3225
 7143SOL     OW26275   6.994   7.355   5.003 -0.1593  0.1707  0.0847
 7143SOL    HW126276   7.029   7.322   5.086 -1.3184  0.4545  0.7154
 7143SOL    HW226277   6.901   7.334   5.007 -0.3197  0.6499 -0.9234
 7144SOL     OW26278   6.392   0.651   5.235 -0.3317  0.0403 -0.3688
 7144SOL    HW126279   6.339   0.615   5.306 -0.8300  0.7739 -0.3642
 7144SOL    HW226280   6.343   0.632   5.156 -1.0322  1.4419 -0.2988
 7145SOL     OW26281   9.014   6.380   7.138 -0.7293  0.0980 -0.7002
 7145SOL    HW126282   8.987   6.302   7.185 -1.0314  0.3752 -0.4058
 7145SOL    HW226283   9.109   6.371   7.129 -0.5682  0.3470  0.5478
 7146SOL     OW26284   9.256   3.945   4.466  0.1150  0.8312 -0.4293
 7146SOL    HW126285   9.243   4.020   4.407  1.2854 -0.1646 -2.0355
 7146SOL    HW226286   9.229   3.869   4.414  0.0644  0.0061  0.7566
 7147SOL     OW26287   0.420   4.928   0.346  0.1462  0.4098  0.1694
 7147SOL    HW126288   0.389   4.941   0.436  0.0352 -0.4753  0.2690
 7147SOL    HW226289   0.503   4.882   0.357 -1.2572 -2.4065 -0.2243
 7148SOL     OW26290   2.952   3.329   4.297  0.2490 -0.2616  0.0304
 7148SOL    HW126291   2.992   3.253   4.340  1.2064  0.2184  0.0175
 7148SOL    HW226292   2.859   3.321   4.317  0.4005 -1.1601  0.4584
 7149SOL     OW26293   0.403   7.079   7.834 -0.2295 -0.0499  0.0495
 7149SOL    HW126294   0.425   7.160   7.880 -2.0387 -0.8988  2.6539
 7149SOL    HW226295   0.308   7.082   7.824 -0.7336 -2.9134  2.6310
 7150SOL     OW26296   8.559   2.848   8.677 -0.3564 -0.1210  0.1588
 7150SOL    HW126297   8.653   2.833   8.692 -0.2801 -2.1820 -1.8594
 7150SOL    HW226298   8.551   2.943   8.668  1.9553 -0.0347 -1.9504
 7151SOL     OW26299   4.684   6.913   5.226 -0.2271 -0.2183 -0.4873
 7151SOL    HW126300   4.720   6.824   5.225 -0.3616 -0.3163  1.0043
 7151SOL    HW226301   4.750   6.966   5.182  0.9326 -0.6960  0.6088
 7152SOL     OW26302   5.476   7.645   1.399  0.6168 -0.1404 -0.4153
 7152SOL    HW126303   5.548   7.581   1.405  0.1147 -0.6275  0.5827
 7152SOL    HW226304   5.402   7.602   1.441  0.1091  0.8912 -0.2337
 7153SOL     OW26305   2.541   7.750   1.070  0.1051 -0.5959 -0.5334
 7153SOL    HW126306   2.595   7.672   1.084  0.7382  0.0521  0.8289
 7153SOL    HW226307   2.581   7.818   1.125 -0.9125  0.4736 -1.0475
 7154SOL     OW26308   0.687   9.246   8.211  0.4854 -0.2578 -0.0036
 7154SOL    HW126309   0.736   9.327   8.229 -0.0276  0.3067 -0.9949
 7154SOL    HW226310   0.633   9.232   8.288  1.8766 -0.6538  0.9261
 7155SOL     OW26311   1.749   2.603   8.810  0.8374  0.3199 -0.3303
 7155SOL    HW126312   1.759   2.565   8.898  1.5513 -0.4885 -0.7391
 7155SOL    HW226313   1.655   2.612   8.798  0.6578 -0.9060 -0.0187
 7156SOL     OW26314   1.520   2.311   7.925  0.1355  0.5753 -0.0124
 7156SOL    HW126315   1.474   2.374   7.870  1.1569  0.3424 -1.1885
 7156SOL    HW226316   1.553   2.363   7.999 -0.1258  1.1685 -0.3040
 7157SOL     OW26317   5.662   0.625   8.520  0.1830  0.0192 -0.3026
 7157SOL    HW126318   5.604   0.603   8.448 -2.6866  4.1651  0.3929
 7157SOL    HW226319   5.641   0.562   8.588 -1.1030 -0.5902 -1.2334
 7158SOL     OW26320   2.515   0.034   0.625  0.2738  0.0569 -0.1603
 7158SOL    HW126321   2.501   0.043   0.719  3.0589 -0.6867  0.4181
 7158SOL    HW226322   2.551   0.118   0.597  2.4502 -0.7065  0.1523
 7159SOL     OW26323   2.777   8.169   4.283  0.4315  1.2968  0.3165
 7159SOL    HW126324   2.869   8.150   4.263 -0.1392 -1.2525 -0.1090
 7159SOL    HW226325   2.739   8.198   4.200  0.9180  2.8962  0.6093
 7160SOL     OW26326   2.586   5.827   6.943 -0.2982 -0.3598  0.7854
 7160SOL    HW126327   2.503   5.779   6.936 -0.3046 -0.2133 -0.3484
 7160SOL    HW226328   2.651   5.759   6.964 -0.9441 -0.2213  3.5769
 7161SOL     OW26329   1.804   1.817   5.861 -0.5230  0.0911  0.3061
 7161SOL    HW126330   1.795   1.911   5.877 -1.8893  0.0661 -0.1804
 7161SOL    HW226331   1.782   1.807   5.768 -0.4131 -0.7144  0.3603
 7162SOL     OW26332   8.292   7.497   5.207  0.0683  0.2188 -0.3133
 7162SOL    HW126333   8.334   7.436   5.268 -1.5098 -0.6956 -0.0778
 7162SOL    HW226334   8.266   7.442   5.133 -0.6381  0.7600 -0.4758
 7163SOL     OW26335   3.851   8.292   7.476  0.2272  0.1365  0.5887
 7163SOL    HW126336   3.920   8.235   7.444  0.1937 -0.9498  2.3324
 7163SOL    HW226337   3.894   8.350   7.538 -0.5744 -1.5186  2.8236
 7164SOL     OW26338   3.260   1.011   1.818  0.3987  0.1686  0.3248
 7164SOL    HW126339   3.247   1.031   1.725  2.7448  1.5120  0.1952
 7164SOL    HW226340   3.192   1.062   1.863 -1.3314 -1.1903 -0.6405
 7165SOL     OW26341   4.871   4.491   5.345 -0.6984  0.0395  0.4773
 7165SOL    HW126342   4.946   4.441   5.377 -0.9818  0.1222  1.3191
 7165SOL    HW226343   4.799   4.464   5.402 -1.1587  0.4367  0.0937
 7166SOL     OW26344   2.382   5.800   7.354  0.4760 -0.0531 -0.0894
 7166SOL    HW126345   2.343   5.882   7.383  1.1999  0.2166  0.1167
 7166SOL    HW226346   2.442   5.825   7.284 -0.7482 -0.6193 -1.4027
 7167SOL     OW26347   8.227   6.075   4.583  0.5127 -0.3199 -0.4577
 7167SOL    HW126348   8.151   6.028   4.618 -1.1026  1.2503 -1.6955
 7167SOL    HW226349   8.243   6.035   4.497  1.6468 -1.1667  0.1103
 7168SOL     OW26350   5.741   5.219   6.790  0.6684 -0.0972  0.3822
 7168SOL    HW126351   5.788   5.244   6.710  0.7201 -0.6238  0.2409
 7168SOL    HW226352   5.734   5.300   6.840 -0.2973  0.4790 -0.6341
 7169SOL     OW26353   1.533   7.859   5.331  0.8397 -0.4914  0.9239
 7169SOL    HW126354   1.465   7.816   5.383 -0.2992 -0.0147 -0.1137
 7169SOL    HW226355   1.504   7.848   5.240  1.9338  0.1140  0.4777
 7170SOL     OW26356   8.262   2.665   6.876 -0.5525 -0.4466 -1.0303
 7170SOL    HW126357   8.167   2.663   6.879 -0.5432 -3.1107 -0.5604
 7170SOL    HW226358   8.290   2.576   6.899  2.0328  0.0158 -1.9581
 7171SOL     OW26359   3.321   3.756   9.249  0.3480  0.7212 -0.1804
 7171SOL    HW126360   3.239   3.762   9.200  0.5710 -1.3514 -0.9181
 7171SOL    HW226361   3.375   3.696   9.197  1.7421  0.7906  1.1182
 7172SOL     OW26362   1.464   1.731   0.971  0.1559 -0.3503  0.1191
 7172SOL    HW126363   1.491   1.823   0.976 -0.0421 -0.2539 -0.5300
 7172SOL    HW226364   1.484   1.705   0.881 -2.1713 -0.1808 -0.4990
 7173SOL     OW26365   7.936   5.645   1.769  0.1009  0.2531  0.2866
 7173SOL    HW126366   7.893   5.657   1.854 -0.8348 -0.3536 -0.0819
 7173SOL    HW226367   7.873   5.595   1.718  0.0432  1.8312 -1.2678
 7174SOL     OW26368   0.234   1.721   2.723  0.0392 -0.2908  0.0757
 7174SOL    HW126369   0.188   1.654   2.774 -1.7198 -1.0403 -2.3071
 7174SOL    HW226370   0.253   1.790   2.786 -0.4101 -1.9070  2.0861
 7175SOL     OW26371   8.092   1.159   6.488 -0.5057  0.1622  0.3119
 7175SOL    HW126372   8.149   1.225   6.527  0.3885 -0.3768 -0.0496
 7175SOL    HW226373   8.024   1.143   6.554 -1.6656  2.5542 -0.2001
 7176SOL     OW26374   7.705   9.305   2.503  0.1465  0.2911  0.1074
 7176SOL    HW126375   7.643   9.371   2.533  0.8294  0.7313  0.6024
 7176SOL    HW226376   7.789   9.351   2.497  0.8776 -0.7457  1.5279
 7177SOL     OW26377   3.308   8.051   2.224  0.1480  0.8180 -0.0772
 7177SOL    HW126378   3.311   8.043   2.319 -2.2039 -1.2626 -0.0705
 7177SOL    HW226379   3.215   8.042   2.202  0.9034 -2.1262 -2.7491
 7178SOL     OW26380   1.784   5.873   8.009 -0.1864  0.7572  0.4423
 7178SOL    HW126381   1.859   5.930   8.025  1.1421 -0.9149  0.4110
 7178SOL    HW226382   1.799   5.797   8.065 -0.8346 -0.4728 -0.9756
 7179SOL     OW26383   6.066   3.751   5.625  0.5282  0.2855  0.4986
 7179SOL    HW126384   6.099   3.677   5.575  1.8972  1.1765  0.0285
 7179SOL    HW226385   6.000   3.713   5.683  0.2686 -1.0776 -0.6352
 7180SOL     OW26386   6.193   8.276   6.654  0.2115  0.0537  0.0926
 7180SOL    HW126387   6.117   8.305   6.703  1.1112  2.6152  0.1060
 7180SOL    HW226388   6.264   8.334   6.682  1.2251  0.3604 -2.7816
 7181SOL     OW26389   8.792   7.753   9.657  0.1979  0.0014  0.1601
 7181SOL    HW126390   8.883   7.748   9.628 -0.1062  2.1976 -1.3810
 7181SOL    HW226391   8.789   7.831   9.713 -0.8261  0.2702 -0.2451
 7182SOL     OW26392   6.410   3.299   6.024 -0.1352 -0.1759 -0.4008
 7182SOL    HW126393   6.401   3.359   6.098 -2.5351  1.6577 -2.0536
 7182SOL    HW226394   6.341   3.234   6.037  0.6692 -0.9980 -0.0910
 7183SOL     OW26395   3.713   9.021   2.643 -0.2129 -0.3733  0.0220
 7183SOL    HW126396   3.750   9.108   2.663 -0.8540  0.0932 -0.7572
 7183SOL    HW226397   3.665   9.034   2.561  0.3992 -1.6729 -0.5644
 7184SOL     OW26398   5.103   6.275   5.311 -0.6470  0.2784 -0.3467
 7184SOL    HW126399   5.123   6.213   5.241  1.3469  0.2337  0.1920
 7184SOL    HW226400   5.022   6.316   5.284 -0.4363 -0.4105 -2.2150
 7185SOL     OW26401   0.485   6.823   8.264  0.0552 -0.2329  0.3634
 7185SOL    HW126402   0.564   6.769   8.251 -0.1362 -0.3426 -0.3803
 7185SOL    HW226403   0.452   6.796   8.350  0.3531 -0.7944  0.3064
 7186SOL     OW26404   0.897   7.579   3.435 -0.8697 -0.4612  0.4258
 7186SOL    HW126405   0.857   7.517   3.496 -0.9325 -2.2730 -1.3526
 7186SOL    HW226406   0.990   7.557   3.435 -1.0894 -1.6226 -1.2764
 7187SOL     OW26407   3.818   8.989   5.341  0.2741  0.3009  0.3634
 7187SOL    HW126408   3.845   8.898   5.355  0.2516  0.2961  0.3765
 7187SOL    HW226409   3.901   9.038   5.335  0.3777 -0.0031 -1.6506
 7188SOL     OW26410   2.757   5.694   6.629 -0.6359 -0.0288 -0.1050
 7188SOL    HW126411   2.747   5.686   6.534 -0.0446  1.4265 -0.3268
 7188SOL    HW226412   2.741   5.787   6.647 -0.6599 -0.2671  1.2108
 7189SOL     OW26413   2.819   8.688   0.024 -0.2254  0.0773 -0.3312
 7189SOL    HW126414   2.809   8.772   0.070  0.9714 -0.1272  0.3299
 7189SOL    HW226415   2.913   8.673   0.022 -0.4700 -2.1476  1.2378
 7190SOL     OW26416   4.453   1.208   4.239  0.3978  0.1873 -0.6683
 7190SOL    HW126417   4.497   1.266   4.301  0.8636 -0.4601 -0.3933
 7190SOL    HW226418   4.364   1.244   4.232  0.8681  1.3180 -1.0047
 7191SOL     OW26419   0.148   9.526   2.323 -0.1339  0.0909  0.0286
 7191SOL    HW126420   0.075   9.588   2.319 -0.6727 -0.5416  0.0708
 7191SOL    HW226421   0.216   9.567   2.269  0.0346  1.3805  1.1389
 7192SOL     OW26422   6.525   6.169   2.219  0.3890  0.5227  0.2986
 7192SOL    HW126423   6.557   6.183   2.308  1.8571 -1.8375  0.2329
 7192SOL    HW226424   6.461   6.238   2.205 -0.1687  0.7518  3.3428
 7193SOL     OW26425   3.712   7.451   1.203 -0.0052 -0.9206  0.0761
 7193SOL    HW126426   3.709   7.445   1.107 -0.2670 -0.4012  0.0431
 7193SOL    HW226427   3.623   7.478   1.227 -0.2169 -1.9808  0.5490
 7194SOL     OW26428   5.800   5.154   2.140 -0.1759  0.0182  0.7844
 7194SOL    HW126429   5.836   5.212   2.073 -0.0772 -1.3372 -0.3650
 7194SOL    HW226430   5.726   5.111   2.098  0.5664 -1.6937  1.1509
 7195SOL     OW26431   4.383   6.765   4.012  0.1131 -0.0294  0.7450
 7195SOL    HW126432   4.468   6.808   4.020  0.5405 -0.8649  0.8635
 7195SOL    HW226433   4.381   6.732   3.922 -0.0204 -0.1306  0.7854
 7196SOL     OW26434   1.195   3.366   1.118  0.1206 -0.3913 -0.3923
 7196SOL    HW126435   1.274   3.412   1.092 -0.7905  0.6821 -1.3398
 7196SOL    HW226436   1.158   3.333   1.036 -0.9565  0.0192 -0.0808
 7197SOL     OW26437   1.584   2.653   0.613  0.0370 -0.2718 -0.2210
 7197SOL    HW126438   1.589   2.686   0.524  2.0226  3.0165  0.9513
 7197SOL    HW226439   1.510   2.700   0.652  0.3740 -0.2130  0.3672
 7198SOL     OW26440   6.350   6.358   8.491  0.5578 -0.0352  0.4136
 7198SOL    HW126441   6.415   6.427   8.504 -0.3157  0.5440  1.9019
 7198SOL    HW226442   6.297   6.359   8.571  0.5229 -2.4463  0.4803
 7199SOL     OW26443   4.695   3.111   0.552 -0.7614  0.1278  0.1457
 7199SOL    HW126444   4.695   3.182   0.616  0.7927  0.0886  0.2256
 7199SOL    HW226445   4.663   3.152   0.472  0.3529  1.0130  0.1213
 7200SOL     OW26446   3.317   6.757   8.981 -0.2049  0.1479 -0.9114
 7200SOL    HW126447   3.288   6.836   8.936 -0.1267  1.5833  1.3824
 7200SOL    HW226448   3.289   6.769   9.072  2.9206 -0.7638  0.3225
 7201SOL     OW26449   3.112   6.368   1.508 -0.4463 -0.3356 -0.6417
 7201SOL    HW126450   3.121   6.463   1.500 -0.8264 -0.4270 -2.4700
 7201SOL    HW226451   3.159   6.332   1.433  0.4804 -1.6678  0.5108
 7202SOL     OW26452   8.443   0.216   2.727  0.3109  0.2025  0.4350
 7202SOL    HW126453   8.425   0.144   2.666  0.2395  0.6633 -0.0956
 7202SOL    HW226454   8.443   0.175   2.813  2.0336 -0.7596  0.0129
 7203SOL     OW26455   9.370   0.328   4.319  0.7842  0.4450 -0.1936
 7203SOL    HW126456   9.356   0.317   4.413  0.4771 -2.1809 -0.4942
 7203SOL    HW226457   9.308   0.396   4.293  0.4042  0.7246  1.3679
 7204SOL     OW26458   9.230   3.216   3.400  0.7617 -0.4812 -0.0356
 7204SOL    HW126459   9.323   3.222   3.376  0.4711  1.2078 -0.9290
 7204SOL    HW226460   9.185   3.269   3.333 -0.8854 -1.5113  0.2049
 7205SOL     OW26461   9.668   5.723   7.040 -0.2491 -0.4285 -0.1253
 7205SOL    HW126462   9.641   5.785   7.108  1.7994  1.2742 -0.7238
 7205SOL    HW226463   9.588   5.701   6.994 -1.1212  1.5294  0.3635
 7206SOL     OW26464   8.475   4.376   8.492 -0.4805  0.6062  1.1477
 7206SOL    HW126465   8.431   4.318   8.430 -0.2313 -0.2399  1.7397
 7206SOL    HW226466   8.521   4.317   8.552 -0.9502  1.3810  2.3147
 7207SOL     OW26467   1.122   1.406   9.144  0.2822 -0.4455 -0.2352
 7207SOL    HW126468   1.204   1.401   9.193  0.1162  0.9855  0.2185
 7207SOL    HW226469   1.054   1.396   9.210  0.0115  3.0005  0.1917
 7208SOL     OW26470   9.362   0.245   9.723 -0.4523  0.0358  0.4418
 7208SOL    HW126471   9.302   0.225   9.795 -0.2536 -0.6987  0.4108
 7208SOL    HW226472   9.346   0.338   9.704 -1.6830 -0.1806  0.3273
 7209SOL     OW26473   8.066   6.672   4.639 -0.8084  0.1737 -0.3261
 7209SOL    HW126474   8.010   6.709   4.570 -2.7285  0.8776  1.4904
 7209SOL    HW226475   8.066   6.578   4.622 -3.2434  0.0518  0.0329
 7210SOL     OW26476   7.409   5.532   7.500 -0.1751  0.0327 -0.1693
 7210SOL    HW126477   7.379   5.623   7.499 -0.2319  0.0454 -2.3487
 7210SOL    HW226478   7.495   5.536   7.540 -0.1942  1.0617 -0.2037
 7211SOL     OW26479   4.474   4.437   0.814  0.3970  0.2755  0.5193
 7211SOL    HW126480   4.505   4.516   0.858  4.0422 -1.4959  1.5931
 7211SOL    HW226481   4.434   4.385   0.883  0.1722  0.2031  0.3353
 7212SOL     OW26482   0.855   7.395   9.342 -0.5472 -0.8529 -0.1420
 7212SOL    HW126483   0.881   7.431   9.257  0.3779  1.0453  0.8640
 7212SOL    HW226484   0.903   7.313   9.349  1.5093  0.2517 -0.3895
 7213SOL     OW26485   7.354   8.005   3.295 -0.5949  0.7256 -0.8944
 7213SOL    HW126486   7.447   8.012   3.276 -0.8306 -0.1323 -2.5368
 7213SOL    HW226487   7.326   7.924   3.252 -2.0865  0.9201 -0.3701
 7214SOL     OW26488   5.936   7.964   7.781  0.4228 -0.8327  0.0983
 7214SOL    HW126489   5.910   7.872   7.783 -0.3859 -0.6056  0.8611
 7214SOL    HW226490   5.956   7.982   7.689 -0.6653 -1.4307 -0.2678
 7215SOL     OW26491   1.254   8.848   8.764 -0.3397  0.0319  0.3733
 7215SOL    HW126492   1.272   8.941   8.777  1.3779 -0.2677  0.3446
 7215SOL    HW226493   1.265   8.809   8.851 -0.7501 -0.1841  0.3287
 7216SOL     OW26494   4.120   3.118   4.045 -0.0275  0.2279 -0.5816
 7216SOL    HW126495   4.191   3.182   4.045  0.8814 -0.7414 -1.5154
 7216SOL    HW226496   4.132   3.069   4.127 -0.8017  1.2811  0.1970
 7217SOL     OW26497   3.186   1.225   5.320 -0.0394 -0.2254  0.1356
 7217SOL    HW126498   3.144   1.276   5.389  1.6377  0.6003  0.5977
 7217SOL    HW226499   3.255   1.176   5.366 -2.2234 -3.8586 -0.0667
 7218SOL     OW26500   0.610   1.490   2.653  0.7780  0.4551 -0.2063
 7218SOL    HW126501   0.613   1.408   2.604 -2.3441  0.4086 -0.4958
 7218SOL    HW226502   0.597   1.557   2.587  1.0787  0.9439  0.2220
 7219SOL     OW26503   1.745   0.605   8.926  0.9778  0.1948 -0.1055
 7219SOL    HW126504   1.651   0.592   8.941  0.6764  1.5699 -0.6031
 7219SOL    HW226505   1.763   0.556   8.846  1.1184 -1.5909  0.9666
 7220SOL     OW26506   2.204   5.704   4.768 -0.0858  0.3660 -0.6727
 7220SOL    HW126507   2.293   5.725   4.796  0.1260  0.8723 -1.6729
 7220SOL    HW226508   2.167   5.652   4.840  0.9030  0.4240 -0.1132
 7221SOL     OW26509   0.413   1.970   3.305 -0.7232 -0.4132  0.3926
 7221SOL    HW126510   0.484   1.986   3.367 -0.8151  1.0662  0.1741
 7221SOL    HW226511   0.333   1.972   3.358 -0.7101 -0.5033  0.4158
 7222SOL     OW26512   2.823   3.084   2.896  0.0198  0.4745 -0.5934
 7222SOL    HW126513   2.837   3.156   2.835 -0.5520  1.2589  0.1770
 7222SOL    HW226514   2.811   3.126   2.981 -1.7904 -0.4114 -0.3529
 7223SOL     OW26515   1.296   6.799   9.126 -0.4731  0.6966  0.0811
 7223SOL    HW126516   1.219   6.744   9.137 -0.3007  0.5450  0.5528
 7223SOL    HW226517   1.363   6.759   9.182 -0.0040  0.7307 -0.4496
 7224SOL     OW26518   6.254   4.122   4.781 -0.0454 -0.6923 -0.3324
 7224SOL    HW126519   6.246   4.201   4.728  1.5905  0.3342  0.8775
 7224SOL    HW226520   6.222   4.052   4.724  0.5345  0.5274 -2.2260
 7225SOL     OW26521   6.524   3.667   6.811  0.0774 -0.1047 -0.1364
 7225SOL    HW126522   6.462   3.712   6.869 -1.1374 -1.4709 -0.2994
 7225SOL    HW226523   6.506   3.574   6.825  1.1517 -0.5020 -1.2401
 7226SOL     OW26524   2.115   6.744   9.265  0.0855  0.6988 -0.0293
 7226SOL    HW126525   2.055   6.679   9.301  0.9572 -0.0490  0.1175
 7226SOL    HW226526   2.188   6.693   9.231  1.7034  1.6975  1.7893
 7227SOL     OW26527   6.074   2.300   2.905 -0.2204 -0.1679 -0.2257
 7227SOL    HW126528   6.029   2.254   2.976 -2.1945  0.7866 -0.7812
 7227SOL    HW226529   6.041   2.259   2.825  1.1041 -0.4691 -0.6278
 7228SOL     OW26530   0.918   4.091   5.427  0.1507  0.1066 -0.3033
 7228SOL    HW126531   0.998   4.128   5.390  1.7344  0.6741  3.2886
 7228SOL    HW226532   0.872   4.167   5.464 -0.0567 -0.6494  1.0457
 7229SOL     OW26533   7.828   0.533   4.095  0.4176  0.2877 -1.0362
 7229SOL    HW126534   7.738   0.557   4.117  0.6713  0.1583  0.2392
 7229SOL    HW226535   7.837   0.554   4.003 -0.2293  2.4336 -0.6601
 7230SOL     OW26536   9.494   6.943   0.505  0.2549  0.0279 -0.4879
 7230SOL    HW126537   9.450   6.996   0.572  0.7672 -0.8090  0.5381
 7230SOL    HW226538   9.574   6.992   0.485 -0.7554  1.2112 -1.8693
 7231SOL     OW26539   0.341   3.763   2.190  0.1754 -0.4165  0.2431
 7231SOL    HW126540   0.422   3.810   2.212  0.9943 -1.6568 -0.0262
 7231SOL    HW226541   0.283   3.780   2.264  0.5715  0.7357  0.3109
 7232SOL     OW26542   5.762   1.744   6.852  0.3191 -0.5602  0.1579
 7232SOL    HW126543   5.785   1.659   6.814  0.6552 -0.2715 -0.3092
 7232SOL    HW226544   5.725   1.793   6.778  0.1153 -0.3092  0.4279
 7233SOL     OW26545   3.767   4.451   4.578  0.0437  0.4434  0.3508
 7233SOL    HW126546   3.727   4.422   4.496 -0.1217 -0.4842  0.7476
 7233SOL    HW226547   3.698   4.500   4.623  0.4213  1.7734 -0.4640
 7234SOL     OW26548   7.900   8.179   0.165 -0.1771  0.7105 -0.0419
 7234SOL    HW126549   7.909   8.221   0.080 -0.8409  2.1470  0.5740
 7234SOL    HW226550   7.808   8.152   0.169  0.2476 -0.9414 -0.4593
 7235SOL     OW26551   7.903   3.806   2.735  0.4455  0.7757 -0.1961
 7235SOL    HW126552   7.873   3.733   2.681  0.5877 -0.5138  1.3708
 7235SOL    HW226553   7.998   3.807   2.722  0.3416  1.3647 -0.9961
 7236SOL     OW26554   2.589   2.677   2.234 -0.0637  0.3939  0.8856
 7236SOL    HW126555   2.568   2.597   2.281 -0.4151  0.5342  0.9674
 7236SOL    HW226556   2.595   2.650   2.142  1.2256  0.0016  1.0637
 7237SOL     OW26557   2.312   0.222   4.897 -0.5115  0.0945  0.4298
 7237SOL    HW126558   2.329   0.246   4.989 -0.8028  1.3075  0.1907
 7237SOL    HW226559   2.218   0.204   4.894 -0.6285  0.7054  0.2476
 7238SOL     OW26560   7.108   1.854   3.282  0.4303  0.2062  0.0343
 7238SOL    HW126561   7.026   1.859   3.233 -0.5613 -0.1015  1.6120
 7238SOL    HW226562   7.156   1.782   3.241 -0.8396 -0.7474  0.1644
 7239SOL     OW26563   3.088   2.106   2.743  0.1890  0.3920  0.5184
 7239SOL    HW126564   3.034   2.110   2.664 -1.6784 -0.5785  1.6737
 7239SOL    HW226565   3.037   2.153   2.809  0.2908 -1.3439  1.8870
 7240SOL     OW26566   2.369   6.844   1.033 -0.1433  0.1355  0.6979
 7240SOL    HW126567   2.360   6.788   1.110  0.4981 -0.1000  0.6051
 7240SOL    HW226568   2.330   6.793   0.962  0.1463 -0.0550  0.6766
 7241SOL     OW26569   2.422   2.307   7.678 -0.1627 -0.0956  0.7419
 7241SOL    HW126570   2.448   2.247   7.748 -1.2984 -2.0021 -0.3578
 7241SOL    HW226571   2.500   2.359   7.660  0.2952  0.1206  3.0496
 7242SOL     OW26572   6.858   7.681   2.997 -0.1991  0.3376 -0.3885
 7242SOL    HW126573   6.817   7.701   2.913 -1.5554  1.0229  0.3980
 7242SOL    HW226574   6.787   7.641   3.048  0.5547  0.1124  0.4917
 7243SOL     OW26575   2.089   6.468   6.644 -0.0064 -0.6777  0.2508
 7243SOL    HW126576   2.139   6.463   6.726 -0.3085  0.4843  0.5303
 7243SOL    HW226577   2.148   6.432   6.578  0.5133 -0.9914  0.8706
 7244SOL     OW26578   8.274   7.125   0.787 -0.5725 -0.3816  0.0026
 7244SOL    HW126579   8.312   7.207   0.817 -0.7249 -0.1274 -0.4848
 7244SOL    HW226580   8.181   7.146   0.774 -0.8836 -0.9838  1.1589
 7245SOL     OW26581   0.666   3.789   5.801 -0.1846 -0.1539 -0.0113
 7245SOL    HW126582   0.734   3.735   5.761 -0.0887  0.3191 -0.4955
 7245SOL    HW226583   0.672   3.873   5.756 -2.2474 -0.6328 -1.3159
 7246SOL     OW26584   3.546   3.740   0.595  0.9505 -0.3291  0.0604
 7246SOL    HW126585   3.579   3.822   0.633  1.0330 -0.3679  0.0732
 7246SOL    HW226586   3.568   3.673   0.661  2.2702 -0.6043 -0.6272
 7247SOL     OW26587   6.384   6.694   7.499 -0.8732 -0.3963  0.5401
 7247SOL    HW126588   6.415   6.611   7.534  0.9402  0.0386  0.0959
 7247SOL    HW226589   6.325   6.671   7.428 -1.3399 -1.2917  1.2124
 7248SOL     OW26590   3.836   8.549   5.247  0.3591  0.3542 -0.3828
 7248SOL    HW126591   3.926   8.574   5.266 -0.0422  0.2194  1.9537
 7248SOL    HW226592   3.783   8.622   5.280 -0.4438 -0.1055 -0.6136
 7249SOL     OW26593   0.719   7.951   5.605 -0.5652  0.4446 -0.0047
 7249SOL    HW126594   0.680   7.981   5.522  0.1209 -0.9228 -0.8576
 7249SOL    HW226595   0.784   8.018   5.626 -1.6513  1.4822  0.1347
 7250SOL     OW26596   1.838   8.642   4.182 -0.2624 -0.1211  0.4990
 7250SOL    HW126597   1.877   8.722   4.146  0.3276 -1.1762 -1.3062
 7250SOL    HW226598   1.910   8.599   4.227  0.4836 -1.4935 -1.8443
 7251SOL     OW26599   4.918   3.371   1.488 -0.2661 -0.5324 -0.3009
 7251SOL    HW126600   4.889   3.368   1.397 -0.6596 -0.8892 -0.1688
 7251SOL    HW226601   4.990   3.308   1.493  1.1734  1.0064 -0.8360
 7252SOL     OW26602   5.493   9.351   3.515 -0.1611  0.2545  0.4284
 7252SOL    HW126603   5.500   9.426   3.574 -0.8770  1.4103 -0.8911
 7252SOL    HW226604   5.530   9.382   3.433  0.3587 -1.1568  0.1067
 7253SOL     OW26605   5.670   4.514   0.545  0.1673  0.2809 -0.6776
 7253SOL    HW126606   5.730   4.579   0.583 -0.0967  1.3696 -2.0268
 7253SOL    HW226607   5.588   4.526   0.593  0.5365 -0.0407  0.0367
 7254SOL     OW26608   5.218   1.255   8.650 -0.5464  0.1708  0.3203
 7254SOL    HW126609   5.298   1.203   8.653  1.3309  2.8005 -0.1178
 7254SOL    HW226610   5.193   1.256   8.558 -1.8286 -1.6133  0.6151
 7255SOL     OW26611   0.989   8.816   1.763 -0.1267 -0.0558 -0.0342
 7255SOL    HW126612   0.977   8.787   1.854 -3.3822  0.1255 -0.3032
 7255SOL    HW226613   1.075   8.859   1.764 -0.0725  0.0282  2.9918
 7256SOL     OW26614   0.116   2.943   4.604 -0.2986  0.0383  0.0641
 7256SOL    HW126615   0.028   2.953   4.567  0.1229 -1.0294 -1.3170
 7256SOL    HW226616   0.105   2.963   4.697 -2.1773 -0.8476  0.0860
 7257SOL     OW26617   7.129   6.729   7.046  0.6895  0.5919  0.0114
 7257SOL    HW126618   7.209   6.781   7.057  0.5786  0.4142  1.9243
 7257SOL    HW226619   7.113   6.691   7.132  0.6384 -2.4834 -1.2339
 7258SOL     OW26620   6.163   9.499   7.427  0.7163  0.2148  0.3023
 7258SOL    HW126621   6.250   9.515   7.392 -0.3713 -1.3710 -3.6497
 7258SOL    HW226622   6.165   9.409   7.459 -0.0159 -0.8289 -2.3143
 7259SOL     OW26623   7.816   9.501   8.928 -0.5006  0.2415  0.1152
 7259SOL    HW126624   7.731   9.478   8.892  0.0012  0.8402 -1.5408
 7259SOL    HW226625   7.855   9.559   8.863  0.8800  0.5660  1.1786
 7260SOL     OW26626   9.060   8.355   0.008 -0.0452  0.1588 -0.8195
 7260SOL    HW126627   9.112   8.337  -0.070 -0.7473 -1.0861 -1.0133
 7260SOL    HW226628   9.082   8.446   0.030  1.4035  0.0089 -1.4995
 7261SOL     OW26629   1.009   1.208   5.513 -0.1555  0.3863  0.2881
 7261SOL    HW126630   0.949   1.261   5.461 -0.2198  0.5614  0.5402
 7261SOL    HW226631   0.957   1.132   5.541  0.1088 -0.1359 -0.5965
 7262SOL     OW26632   1.331   0.668   1.474  0.0365 -0.1274  0.0994
 7262SOL    HW126633   1.422   0.689   1.495 -0.2484  0.4246  0.8409
 7262SOL    HW226634   1.291   0.752   1.450  0.0871 -0.5853 -1.7433
 7263SOL     OW26635   4.362   5.333   8.416 -0.6649  0.7723 -0.1852
 7263SOL    HW126636   4.395   5.290   8.495 -1.8915 -1.6922 -0.9042
 7263SOL    HW226637   4.441   5.362   8.370  0.3157 -1.1918  0.1535
 7264SOL     OW26638   2.901   9.213   9.213  0.2711 -0.8282 -0.5466
 7264SOL    HW126639   2.818   9.168   9.232  0.0517  0.6362  2.4897
 7264SOL    HW226640   2.968   9.159   9.255  0.2656  0.3500  1.0668
 7265SOL     OW26641   1.270   5.927   2.983  0.4822 -0.8436  0.9598
 7265SOL    HW126642   1.215   5.976   2.922  2.0052 -1.0062 -0.6334
 7265SOL    HW226643   1.250   5.964   3.069  0.2301  1.3126  0.0438
 7266SOL     OW26644   3.680   7.411   4.079  0.1660 -0.1615 -0.3591
 7266SOL    HW126645   3.595   7.450   4.099  1.6406  2.1462  2.0561
 7266SOL    HW226646   3.690   7.341   4.144  0.4511  0.1742 -0.0326
 7267SOL     OW26647   7.035   5.835   5.987 -0.7677 -0.5292  0.4587
 7267SOL    HW126648   6.998   5.873   6.067 -1.5957 -1.2116  0.4186
 7267SOL    HW226649   7.098   5.771   6.018  0.3356  0.5598  0.5300
 7268SOL     OW26650   7.965   8.769   2.407  0.0324  0.3046  0.1140
 7268SOL    HW126651   8.015   8.838   2.363 -0.2793  0.8189  0.5589
 7268SOL    HW226652   8.006   8.761   2.493 -0.4620  0.5376  0.3788
 7269SOL     OW26653   5.986   3.966   3.848  0.1695 -0.3421  0.4133
 7269SOL    HW126654   6.018   4.033   3.909  0.8690  0.2078 -0.5316
 7269SOL    HW226655   6.062   3.911   3.832 -0.2713 -1.0730  0.7798
 7270SOL     OW26656   9.423   4.103   7.461  0.2961  0.5184  0.1630
 7270SOL    HW126657   9.470   4.058   7.532  1.6408 -0.8043 -1.4943
 7270SOL    HW226658   9.476   4.182   7.444  1.7991 -0.7545 -1.4144
 7271SOL     OW26659   1.350   0.291   4.999 -0.4895 -0.0730 -0.8821
 7271SOL    HW126660   1.302   0.372   4.981 -0.5747  0.4429  1.3671
 7271SOL    HW226661   1.362   0.291   5.094 -0.1918 -2.5493 -0.8603
 7272SOL     OW26662   7.700   3.746   8.557  0.1405  0.1060 -0.0803
 7272SOL    HW126663   7.693   3.834   8.520 -0.7136 -0.0536 -0.3048
 7272SOL    HW226664   7.795   3.731   8.564  0.3239  0.4086 -1.5364
 7273SOL     OW26665   3.387   6.883   8.678  0.0358 -0.2379  0.3443
 7273SOL    HW126666   3.402   6.826   8.602 -0.7917 -0.0948  0.0642
 7273SOL    HW226667   3.293   6.901   8.676  0.2914  1.2446  0.3598
 7274SOL     OW26668   0.009   7.034   9.277  0.5096  0.3673 -0.1329
 7274SOL    HW126669  -0.079   7.000   9.259  0.2226  1.3051 -0.5534
 7274SOL    HW226670   0.016   7.031   9.373  0.4616 -0.7775 -0.1548
 7275SOL     OW26671   7.627   8.830   8.774 -0.0235  0.0105  0.0977
 7275SOL    HW126672   7.593   8.864   8.857  2.3068 -0.6244  1.4029
 7275SOL    HW226673   7.719   8.857   8.773 -0.4265  1.7460 -3.2784
 7276SOL     OW26674   3.133   1.431   5.715  0.3873 -0.7224 -0.5033
 7276SOL    HW126675   3.195   1.494   5.676 -1.1630  1.1325 -0.1097
 7276SOL    HW226676   3.070   1.413   5.645 -0.4421 -0.0732  0.0602
 7277SOL     OW26677   4.967   5.843   8.532 -0.5426  0.5018 -0.7124
 7277SOL    HW126678   4.940   5.790   8.607 -1.1913  0.2538 -1.1109
 7277SOL    HW226679   4.992   5.927   8.569  2.7550 -0.7297  0.2280
 7278SOL     OW26680   1.437   9.671   4.743  0.3139  0.5339  0.4747
 7278SOL    HW126681   1.400   9.756   4.766  1.5666  0.8221  1.5653
 7278SOL    HW226682   1.512   9.692   4.688  1.3258  0.2362  1.6964
 7279SOL     OW26683   3.998   8.138   5.905  0.1717  0.5630 -0.0741
 7279SOL    HW126684   4.040   8.150   5.990 -0.6358 -1.1581  0.6125
 7279SOL    HW226685   3.958   8.052   5.910 -1.5675  1.2350 -1.5024
 7280SOL     OW26686   5.000   8.190   7.976  0.0662  0.5549  0.0692
 7280SOL    HW126687   5.008   8.246   7.899  0.2828  0.3779 -0.0397
 7280SOL    HW226688   5.034   8.243   8.048 -0.0258  0.6785  0.0206
 7281SOL     OW26689   4.512   7.358   0.506  0.0689 -0.1062  0.5916
 7281SOL    HW126690   4.417   7.354   0.514  0.1635 -1.0544  1.3690
 7281SOL    HW226691   4.527   7.390   0.417 -0.9668  0.1582  0.4953
 7282SOL     OW26692   9.421   0.739   7.079 -0.1624 -0.4048  0.4017
 7282SOL    HW126693   9.500   0.787   7.054 -2.0820  3.0551  0.3718
 7282SOL    HW226694   9.383   0.712   6.996 -0.0298 -0.3193  0.3110
 7283SOL     OW26695   9.554   5.473   0.862  0.0420 -0.9213 -0.0426
 7283SOL    HW126696   9.602   5.516   0.933 -1.7676  0.7142  0.2620
 7283SOL    HW226697   9.538   5.542   0.798  0.2500 -2.0170 -1.3290
 7284SOL     OW26698   9.379   5.047   8.779 -0.1790 -0.0531  0.1150
 7284SOL    HW126699   9.299   5.010   8.816 -0.3163  2.0343  2.0842
 7284SOL    HW226700   9.355   5.074   8.690 -1.2531 -0.7159  0.1987
 7285SOL     OW26701   7.947   3.253   6.022  0.3124 -0.1525  0.0070
 7285SOL    HW126702   7.893   3.188   5.976  1.2349 -0.2590 -0.9535
 7285SOL    HW226703   8.034   3.245   5.982  0.5790  1.3110  0.2537
 7286SOL     OW26704   0.529   7.775   6.764  0.0520 -0.4556 -0.3391
 7286SOL    HW126705   0.575   7.813   6.689  0.1893 -1.5705 -0.8301
 7286SOL    HW226706   0.520   7.682   6.743  1.2107 -1.0676  1.5476
 7287SOL     OW26707   6.570   4.723   9.648  0.2751 -0.3311  0.3906
 7287SOL    HW126708   6.573   4.634   9.681 -0.9814  0.4166  2.7309
 7287SOL    HW226709   6.514   4.718   9.571 -0.3245 -1.4673  0.8767
 7288SOL     OW26710   9.189   4.709   8.743 -0.2927  0.5094  0.5799
 7288SOL    HW126711   9.126   4.687   8.812 -0.0569 -1.2766  0.2777
 7288SOL    HW226712   9.274   4.710   8.786 -0.1865 -0.2428  0.3986
 7289SOL     OW26713   8.070   7.577   4.960  0.4807  0.4951  0.1229
 7289SOL    HW126714   7.999   7.638   4.979  0.5248  1.2425 -1.8845
 7289SOL    HW226715   8.140   7.603   5.020 -0.9425 -0.4066  2.3017
 7290SOL     OW26716   6.839   0.300   5.637  0.0395 -0.0099 -0.2218
 7290SOL    HW126717   6.871   0.390   5.637  0.4534 -0.1573 -0.1143
 7290SOL    HW226718   6.894   0.254   5.700 -0.6147 -0.1869  0.2291
 7291SOL     OW26719   0.866   6.304   3.892  0.0148  0.2410  0.0756
 7291SOL    HW126720   0.874   6.272   3.803 -1.6175 -1.3793  0.4555
 7291SOL    HW226721   0.801   6.375   3.886 -0.4334 -0.1668  0.0238
 7292SOL     OW26722   4.095   4.499   1.906  0.1546 -0.4695  0.3593
 7292SOL    HW126723   4.081   4.409   1.876  0.3902 -0.5304  0.4223
 7292SOL    HW226724   4.008   4.533   1.923 -0.0319 -0.2052 -1.0356
 7293SOL     OW26725   1.453   6.000   9.656  0.4703 -0.5133  0.2924
 7293SOL    HW126726   1.419   5.973   9.741  0.0935  0.9829  0.6327
 7293SOL    HW226727   1.538   6.040   9.676  0.0082  0.6018  0.0820
 7294SOL     OW26728   1.174   7.487   6.815  0.4925  0.4260 -0.4165
 7294SOL    HW126729   1.193   7.577   6.841  0.3137  0.8295 -1.6531
 7294SOL    HW226730   1.242   7.435   6.858  0.0097  1.0163  1.1269
 7295SOL     OW26731   6.993   7.589   0.420  0.0670 -0.0090 -0.2394
 7295SOL    HW126732   6.928   7.550   0.362 -0.5957  1.0543 -0.2279
 7295SOL    HW226733   7.077   7.573   0.376 -0.3593  0.1427 -1.1245
 7296SOL     OW26734   2.417   0.713   1.395 -0.1262  0.4288  0.3820
 7296SOL    HW126735   2.370   0.789   1.360 -0.0904  0.2974  0.0487
 7296SOL    HW226736   2.403   0.719   1.490  0.0260  0.9493  0.3763
 7297SOL     OW26737   7.970   0.324   7.787 -0.0074  0.6191  0.2712
 7297SOL    HW126738   8.008   0.410   7.769 -1.3987  0.9526 -1.3714
 7297SOL    HW226739   8.042   0.273   7.823  1.3111  1.9564 -0.3514
 7298SOL     OW26740   3.527   8.827   5.385 -0.1858 -0.0220  0.2525
 7298SOL    HW126741   3.529   8.804   5.477 -1.1766  1.3418  0.6396
 7298SOL    HW226742   3.607   8.878   5.371  0.3233 -0.8349  0.1810
 7299SOL     OW26743   3.111   4.846   7.382 -0.3092 -0.0872 -0.8885
 7299SOL    HW126744   3.090   4.754   7.400  0.3826 -0.1936 -0.5807
 7299SOL    HW226745   3.069   4.864   7.299 -0.6488 -0.6190 -0.8406
 7300SOL     OW26746   0.603   0.350   8.656  0.1438 -0.2977  0.2422
 7300SOL    HW126747   0.662   0.309   8.719 -1.0217 -2.6616 -0.1167
 7300SOL    HW226748   0.553   0.413   8.708  1.6105  0.3784  0.9166
 7301SOL     OW26749   8.178   7.815   6.887  0.1556 -0.2832  0.1681
 7301SOL    HW126750   8.179   7.757   6.812 -0.3093 -0.0929  0.0145
 7301SOL    HW226751   8.203   7.901   6.852  2.9538 -0.7709  0.7343
 7302SOL     OW26752   5.487   6.034   1.065  0.8175 -0.2501 -0.2795
 7302SOL    HW126753   5.433   5.996   0.995  1.4991 -1.1422 -0.3461
 7302SOL    HW226754   5.564   6.068   1.019  0.1574  1.4119 -0.2411
 7303SOL     OW26755   2.532   2.796   4.464 -0.1448  0.4811  0.2105
 7303SOL    HW126756   2.627   2.812   4.461 -0.0355 -0.1000  0.3822
 7303SOL    HW226757   2.493   2.880   4.443  0.3970  1.2553  2.0559
 7304SOL     OW26758   5.600   1.051   5.098 -0.2984  0.0480 -0.3801
 7304SOL    HW126759   5.607   1.147   5.100  0.6976 -0.0258  0.7342
 7304SOL    HW226760   5.534   1.033   5.031  0.5946  1.4503 -1.7040
 7305SOL     OW26761   5.371   8.092   6.343  0.2863  0.1873 -0.4482
 7305SOL    HW126762   5.321   8.033   6.286  0.3379 -0.0684 -0.2282
 7305SOL    HW226763   5.366   8.177   6.299  3.3929 -0.6933 -2.8439
 7306SOL     OW26764   0.310   1.170   9.061  0.3761  0.0528  0.5683
 7306SOL    HW126765   0.404   1.152   9.065  0.5704  0.8352 -0.1480
 7306SOL    HW226766   0.274   1.124   9.136  1.5819  1.1436  1.8946
 7307SOL     OW26767   2.389   0.714   4.037  0.4795 -0.0005  0.0160
 7307SOL    HW126768   2.308   0.757   4.011 -0.0671 -0.4003  1.0272
 7307SOL    HW226769   2.362   0.632   4.078  1.4940 -1.2503 -1.6467
 7308SOL     OW26770   5.590   5.144   7.686  0.2873 -0.3511  0.4106
 7308SOL    HW126771   5.513   5.089   7.670 -0.0456  0.0386  0.6525
 7308SOL    HW226772   5.647   5.128   7.611  0.4429 -1.4399  0.7390
 7309SOL     OW26773   9.097   3.668   3.898  0.1668 -0.4253 -0.9725
 7309SOL    HW126774   9.101   3.762   3.919 -0.4018 -0.3176 -1.3264
 7309SOL    HW226775   9.014   3.657   3.852 -0.1904 -1.2569 -0.1701
 7310SOL     OW26776   5.521   5.227   1.767  0.0296 -0.2424 -0.2700
 7310SOL    HW126777   5.480   5.243   1.852 -0.6228  0.1998 -0.6592
 7310SOL    HW226778   5.608   5.264   1.775  0.7774 -2.1006  0.9182
 7311SOL     OW26779   8.470   0.558   5.908 -0.1974 -0.2587  0.1896
 7311SOL    HW126780   8.410   0.533   5.978 -2.3694 -0.9888 -1.8197
 7311SOL    HW226781   8.500   0.645   5.932 -1.2830 -0.2678  1.7462
 7312SOL     OW26782   5.250   6.425   2.468 -0.2958  0.0536 -0.1894
 7312SOL    HW126783   5.291   6.452   2.550 -0.7718  0.2812 -0.0199
 7312SOL    HW226784   5.251   6.329   2.471 -1.3347  0.0544  0.6128
 7313SOL     OW26785   1.267   4.645   5.929  0.2495  0.1321  0.5998
 7313SOL    HW126786   1.281   4.597   6.011 -3.7788  0.0485  1.4562
 7313SOL    HW226787   1.316   4.596   5.863  0.9574 -1.7335  2.4109
 7314SOL     OW26788   2.047   9.248   8.765 -0.1853  0.1410  0.2402
 7314SOL    HW126789   2.003   9.177   8.718  0.5332  0.0324 -0.2860
 7314SOL    HW226790   2.025   9.233   8.857  0.8952 -1.4663  0.2717
 7315SOL     OW26791   2.007   3.914   8.526 -0.1636 -0.3528 -0.2541
 7315SOL    HW126792   1.918   3.932   8.497 -0.1064 -0.3367 -0.4222
 7315SOL    HW226793   2.008   3.820   8.543 -0.7786 -0.0379  1.7201
 7316SOL     OW26794   3.586   3.323   9.203 -0.4164  0.4000 -0.1993
 7316SOL    HW126795   3.602   3.270   9.125  0.4892  2.7726 -1.7241
 7316SOL    HW226796   3.533   3.396   9.172 -1.7376  0.4019  1.8556
 7317SOL     OW26797   8.023   1.118   8.586  0.3711  0.3189 -0.3386
 7317SOL    HW126798   8.117   1.124   8.602  0.3454 -0.0252 -0.0649
 7317SOL    HW226799   8.013   1.050   8.520  0.2159 -0.5400  0.5540
 7318SOL     OW26800   5.188   4.551   1.071  0.1863  0.0073  0.4156
 7318SOL    HW126801   5.252   4.574   1.138  1.9750 -1.0251 -0.8504
 7318SOL    HW226802   5.208   4.460   1.049 -1.6601 -0.3129 -0.1312
 7319SOL     OW26803   6.518   9.702   6.099 -0.3783 -0.0343 -0.2550
 7319SOL    HW126804   6.560   9.616   6.101 -0.9592 -0.3160  0.8620
 7319SOL    HW226805   6.437   9.690   6.149 -1.5448  0.6226 -1.8957
 7320SOL     OW26806   5.599   5.571   6.117  0.4125 -0.3816 -0.0411
 7320SOL    HW126807   5.546   5.536   6.188  1.0770 -1.0561  0.1419
 7320SOL    HW226808   5.594   5.506   6.047 -0.9059  0.6563 -0.9740
 7321SOL     OW26809   5.267   9.455   9.113  0.9548  0.3466  0.0439
 7321SOL    HW126810   5.189   9.495   9.073  1.2212  1.0696  0.2325
 7321SOL    HW226811   5.299   9.395   9.047  0.0821 -0.1646  0.0635
 7322SOL     OW26812   1.817   0.068   3.254 -0.2194  0.5706  0.3075
 7322SOL    HW126813   1.738   0.092   3.301 -0.4406  1.5806 -0.5566
 7322SOL    HW226814   1.819   0.125   3.177  1.0937  0.2366  0.0564
 7323SOL     OW26815   0.957   5.954   2.151 -0.1205 -0.3841  0.1382
 7323SOL    HW126816   1.006   5.998   2.082  1.5793 -1.9849  0.2497
 7323SOL    HW226817   0.922   6.025   2.205  0.7037  0.8410 -0.8767
 7324SOL     OW26818   2.126   2.561   1.604  0.4718  0.1927  0.1962
 7324SOL    HW126819   2.056   2.611   1.646  0.7913 -0.2289  1.2793
 7324SOL    HW226820   2.127   2.478   1.652  0.6359 -0.4405 -0.8874
 7325SOL     OW26821   1.624   0.005   4.554 -0.2058  1.1122  0.5621
 7325SOL    HW126822   1.679  -0.035   4.487 -0.6954  0.3102  0.6324
 7325SOL    HW226823   1.682   0.064   4.601  0.9303 -0.6502  1.4626
 7326SOL     OW26824   5.948   4.824   3.632 -0.1530 -0.1871  0.5414
 7326SOL    HW126825   5.921   4.819   3.723 -0.4045  0.8090  0.5305
 7326SOL    HW226826   5.976   4.915   3.619  0.8962 -0.5830 -0.0956
 7327SOL     OW26827   6.185   0.708   7.276 -0.0951 -0.1294  0.7823
 7327SOL    HW126828   6.229   0.668   7.201 -0.0876 -1.5534  1.5002
 7327SOL    HW226829   6.093   0.711   7.251  0.0641  0.5694  0.2438
 7328SOL     OW26830   7.026   6.533   4.545 -0.0932  0.3797  0.1402
 7328SOL    HW126831   7.118   6.527   4.570 -0.1373 -1.3271  0.0139
 7328SOL    HW226832   6.986   6.454   4.581 -1.0858  0.0882 -1.4868
 7329SOL     OW26833   3.728   5.238   6.693 -0.2362  0.7704  0.0087
 7329SOL    HW126834   3.782   5.161   6.707 -0.6800  0.5798  0.7257
 7329SOL    HW226835   3.697   5.263   6.780 -3.0440 -0.4238 -0.5240
 7330SOL     OW26836   6.994   1.836   7.994 -0.5130 -0.0618  0.3886
 7330SOL    HW126837   7.033   1.761   7.950 -0.9486 -0.6922  1.0481
 7330SOL    HW226838   7.052   1.853   8.068 -0.8184 -0.2339  0.6724
 7331SOL     OW26839   7.413   3.888   8.368  0.3268  0.0484 -0.1551
 7331SOL    HW126840   7.329   3.913   8.329  0.0767  1.8244  1.3922
 7331SOL    HW226841   7.477   3.901   8.297 -0.4191  0.8410 -0.7011
 7332SOL     OW26842   6.102   2.800   5.180  0.1182 -0.3095  0.1915
 7332SOL    HW126843   6.093   2.774   5.088 -1.2366 -0.4662  0.3453
 7332SOL    HW226844   6.054   2.733   5.228 -2.1943  1.6107  0.7265
 7333SOL     OW26845   1.560   2.634   3.858  0.9719  0.0425  0.2029
 7333SOL    HW126846   1.481   2.581   3.852  1.8919 -1.2755 -0.8276
 7333SOL    HW226847   1.536   2.718   3.819  0.2156 -0.5281 -0.5842
 7334SOL     OW26848   8.407   3.340   4.364  0.3217 -0.0032 -0.1964
 7334SOL    HW126849   8.494   3.315   4.332 -0.6745 -1.8453 -1.6757
 7334SOL    HW226850   8.418   3.349   4.459  2.2516  0.4537 -0.4200
 7335SOL     OW26851   3.905   6.674   2.370  0.3119 -0.0871  0.3000
 7335SOL    HW126852   3.945   6.760   2.366  0.8604 -0.3654 -1.4985
 7335SOL    HW226853   3.821   6.685   2.325 -0.5046 -0.0870  1.7673
 7336SOL     OW26854   0.582   3.910   5.524 -0.2936  0.7717  0.6256
 7336SOL    HW126855   0.599   4.000   5.497 -0.1106  0.7126  0.5439
 7336SOL    HW226856   0.486   3.905   5.532 -0.3218  0.9025  0.3833
 7337SOL     OW26857   2.808   2.177   3.635  0.1957 -0.1567  0.0793
 7337SOL    HW126858   2.852   2.157   3.718 -0.1481  1.5307  0.7020
 7337SOL    HW226859   2.775   2.092   3.604  1.4908 -1.0186  0.9757
 7338SOL     OW26860   1.270   1.351   9.593 -0.2762  0.5653  0.2125
 7338SOL    HW126861   1.329   1.377   9.664  0.4390 -0.7486  0.1331
 7338SOL    HW226862   1.215   1.282   9.630 -1.6241  1.5877  0.2008
 7339SOL     OW26863   2.379   7.887   1.334  0.1428 -0.4065 -0.1908
 7339SOL    HW126864   2.466   7.908   1.301 -0.0144 -1.1809 -1.1263
 7339SOL    HW226865   2.320   7.938   1.278  0.0336  1.7898  1.7588
 7340SOL     OW26866   5.235   6.526   8.546  0.3132  0.2620  0.3666
 7340SOL    HW126867   5.265   6.617   8.556 -1.7519  0.8441  2.2136
 7340SOL    HW226868   5.168   6.530   8.478  1.1746 -0.1860 -0.5398
 7341SOL     OW26869   0.382   2.104   3.904 -0.3517 -0.1111  0.2173
 7341SOL    HW126870   0.329   2.028   3.878  2.1192 -1.6835 -0.6062
 7341SOL    HW226871   0.361   2.118   3.996 -0.1581 -2.4750  0.6756
 7342SOL     OW26872   1.276   0.981   0.906  0.6569  0.3556  0.0725
 7342SOL    HW126873   1.227   1.046   0.958 -0.8712  2.1106 -3.2326
 7342SOL    HW226874   1.310   0.920   0.971 -1.3810  2.1087  3.0823
 7343SOL     OW26875   0.355   7.983   8.988  0.4084 -0.0027  0.0313
 7343SOL    HW126876   0.292   7.954   9.054  0.8265 -1.7728 -0.3060
 7343SOL    HW226877   0.434   7.932   9.005  0.4098 -0.8088 -2.0551
 7344SOL     OW26878   4.986   8.806   7.430  0.2227 -0.3240 -0.2700
 7344SOL    HW126879   4.898   8.842   7.419  0.0648  0.0226  1.8317
 7344SOL    HW226880   4.975   8.712   7.420 -0.3674 -0.2738 -0.1026
 7345SOL     OW26881   0.932   0.812   0.577 -0.4082  0.6709 -0.4493
 7345SOL    HW126882   0.920   0.894   0.530 -1.3016  0.2038 -1.0665
 7345SOL    HW226883   0.950   0.839   0.668  0.1724  1.5528 -0.8150
 7346SOL     OW26884   0.043   2.088   5.304 -0.0298  0.1119  0.0796
 7346SOL    HW126885   0.004   2.160   5.354  2.1662  1.4428  0.0323
 7346SOL    HW226886   0.040   2.118   5.213 -0.4699 -0.5590 -0.1347
 7347SOL     OW26887   9.457   1.810   1.560  0.2467 -0.0278  0.4834
 7347SOL    HW126888   9.460   1.716   1.543 -0.9925  0.0027  0.0140
 7347SOL    HW226889   9.382   1.822   1.618  0.4203  0.6671  0.5782
 7348SOL     OW26890   5.356   4.955   6.383 -0.1861  0.2127  0.2654
 7348SOL    HW126891   5.404   4.882   6.422 -1.5049  0.5160  2.6330
 7348SOL    HW226892   5.266   4.922   6.375 -0.5461  1.1930  0.2352
 7349SOL     OW26893   4.376   3.691   7.068 -0.1633 -0.1186 -0.3172
 7349SOL    HW126894   4.323   3.612   7.073  0.9368 -0.8599  0.1110
 7349SOL    HW226895   4.380   3.712   6.975 -3.4530  1.5959 -0.2355
 7350SOL     OW26896   8.017   1.358   8.399 -0.3553  0.3831  0.2804
 7350SOL    HW126897   8.099   1.392   8.434 -1.8700  2.6338  1.9343
 7350SOL    HW226898   8.003   1.276   8.447  2.4680 -1.9309 -2.4721
 7351SOL     OW26899   1.257   6.223   0.715  0.2343 -0.4571  0.4465
 7351SOL    HW126900   1.214   6.308   0.716  0.3455 -0.4010  0.4680
 7351SOL    HW226901   1.190   6.161   0.745  0.4684 -0.2275  1.5167
 7352SOL     OW26902   9.419   7.436   4.491  0.1616  0.5819 -0.6837
 7352SOL    HW126903   9.486   7.400   4.435  1.6718  0.1162  1.2999
 7352SOL    HW226904   9.458   7.515   4.529 -0.1536  0.0324  0.8895
 7353SOL     OW26905   5.412   0.426   2.220  0.2627 -0.3009 -0.4101
 7353SOL    HW126906   5.374   0.464   2.141  1.8150 -0.8922 -1.4813
 7353SOL    HW226907   5.431   0.335   2.197  2.3478 -0.0363  0.0211
 7354SOL     OW26908   8.193   9.016   0.556  0.6629 -0.5979 -0.0416
 7354SOL    HW126909   8.253   9.059   0.616 -0.0538  0.5389 -0.1106
 7354SOL    HW226910   8.246   8.994   0.480  1.0558  0.1365  0.0189
 7355SOL     OW26911   6.821   6.497   9.349 -0.8073  0.4305 -0.0616
 7355SOL    HW126912   6.810   6.592   9.339  1.1309  0.7283  0.2099
 7355SOL    HW226913   6.892   6.474   9.289 -0.0437 -0.5217  1.1377
 7356SOL     OW26914   8.720   3.937   8.761  0.2603  0.3392  0.8645
 7356SOL    HW126915   8.786   3.964   8.826 -0.2103  2.7271  0.4718
 7356SOL    HW226916   8.769   3.931   8.679  0.3483  0.0874  0.9347
 7357SOL     OW26917   5.288   4.334   2.884  0.0615  0.4852 -0.1592
 7357SOL    HW126918   5.318   4.424   2.870  1.5706  0.4777  2.3381
 7357SOL    HW226919   5.364   4.280   2.862 -0.5247 -0.1402 -0.7023
 7358SOL     OW26920   4.869   3.012   5.589  0.0135  0.4800 -0.1377
 7358SOL    HW126921   4.959   2.996   5.616  0.3171  1.4001 -0.5651
 7358SOL    HW226922   4.820   3.019   5.671 -0.4002 -3.5772  0.1642
 7359SOL     OW26923   4.499   8.727   8.084  0.0456  0.1646  0.4316
 7359SOL    HW126924   4.474   8.819   8.092  1.0981  0.5020  0.0531
 7359SOL    HW226925   4.571   8.717   8.146 -2.0425 -1.2250  2.8097
 7360SOL     OW26926   0.033   3.053   9.312 -0.0379  0.0244 -0.0083
 7360SOL    HW126927   0.032   3.071   9.406  1.4265 -1.2738  0.2944
 7360SOL    HW226928  -0.040   2.993   9.299 -2.7440  3.1168 -0.4475
 7361SOL     OW26929   4.149   6.725   5.704 -0.5853 -0.1378 -0.0273
 7361SOL    HW126930   4.214   6.735   5.773  0.8407 -2.3907 -0.9348
 7361SOL    HW226931   4.095   6.804   5.710  1.7166  1.4475  1.2825
 7362SOL     OW26932   4.307   2.709   0.349 -0.3874  0.0380 -0.2391
 7362SOL    HW126933   4.245   2.695   0.421 -1.0055  0.4849 -0.6736
 7362SOL    HW226934   4.278   2.650   0.280 -0.9205  0.9354 -0.7990
 7363SOL     OW26935   8.318   6.987   6.530 -0.3266  0.6610  0.0711
 7363SOL    HW126936   8.326   7.068   6.581  3.1096  1.2092 -1.0787
 7363SOL    HW226937   8.286   7.016   6.445 -1.1516  0.4724  0.3097
 7364SOL     OW26938   5.655   6.338   9.534 -0.0065 -0.3099  0.3597
 7364SOL    HW126939   5.629   6.294   9.615 -1.6801 -0.1154 -0.0471
 7364SOL    HW226940   5.656   6.431   9.556  1.0608 -0.3466  0.5423
 7365SOL     OW26941   6.281   4.082   6.111  0.0687  0.4856 -0.4134
 7365SOL    HW126942   6.319   3.995   6.099  1.9590  1.1164  0.5826
 7365SOL    HW226943   6.233   4.098   6.030  0.8205 -0.9352 -1.1856
 7366SOL     OW26944   8.351   3.402   7.638  0.2406 -0.3092  0.0822
 7366SOL    HW126945   8.407   3.395   7.715 -0.2092  0.0425  0.4431
 7366SOL    HW226946   8.314   3.490   7.642 -2.1182 -1.2636  1.1037
 7367SOL     OW26947   3.572   8.624   4.348  0.1264  0.6513  0.0862
 7367SOL    HW126948   3.555   8.717   4.360 -2.1058  0.0927  2.1032
 7367SOL    HW226949   3.615   8.597   4.429 -1.8023 -0.5490  0.7644
 7368SOL     OW26950   4.463   4.991   0.041 -0.0419 -0.1197  0.5673
 7368SOL    HW126951   4.538   5.020  -0.011 -0.5413  1.5228  0.7198
 7368SOL    HW226952   4.421   5.071   0.071 -2.8350 -0.9152 -0.8664
 7369SOL     OW26953   7.363   8.821   5.878 -0.1058  0.0251 -0.1504
 7369SOL    HW126954   7.418   8.756   5.921 -0.0522 -0.5170 -1.0119
 7369SOL    HW226955   7.362   8.794   5.786 -1.7491  0.0705 -0.1770
 7370SOL     OW26956   6.316   0.049   0.700 -0.3191  0.6640 -0.6612
 7370SOL    HW126957   6.316   0.103   0.621 -0.2567  0.2976 -0.9158
 7370SOL    HW226958   6.296  -0.039   0.669 -0.5211  0.5575 -0.2370
 7371SOL     OW26959   5.355   6.955   9.030  0.3923 -0.0534  0.1195
 7371SOL    HW126960   5.390   6.890   9.090  0.3703 -0.2100 -0.0387
 7371SOL    HW226961   5.260   6.951   9.042  0.4285  0.5817  0.7713
 7372SOL     OW26962   3.419   6.016   4.479 -0.5197 -0.4932  0.2424
 7372SOL    HW126963   3.469   6.095   4.461 -0.4898 -0.5229  0.1961
 7372SOL    HW226964   3.357   6.008   4.407 -0.6543 -0.4058  0.3483
 7373SOL     OW26965   0.632   5.493   5.242 -0.1613 -0.3857 -0.7368
 7373SOL    HW126966   0.669   5.487   5.155 -1.4304 -1.0132 -1.2557
 7373SOL    HW226967   0.563   5.560   5.234  1.0438  1.0434  0.2937
 7374SOL     OW26968   9.024   2.515   1.930  0.1939 -0.1714 -0.2494
 7374SOL    HW126969   9.080   2.438   1.918  1.6590  0.9582 -0.9536
 7374SOL    HW226970   8.961   2.488   1.996  1.4186 -1.5947  0.4020
 7375SOL     OW26971   8.147   2.929   6.275  0.0558 -0.4267 -0.4001
 7375SOL    HW126972   8.092   2.898   6.203  0.2435 -0.3435 -0.5815
 7375SOL    HW226973   8.133   2.866   6.345 -3.4032  1.6669  1.0866
 7376SOL     OW26974   3.351   7.395   1.476 -0.1354 -1.0367 -0.2654
 7376SOL    HW126975   3.282   7.394   1.544  1.2930 -1.2285  1.2477
 7376SOL    HW226976   3.322   7.462   1.414 -1.5787 -0.9620  0.4376
 7377SOL     OW26977   6.940   5.437   6.121  0.0278  0.2273  0.0603
 7377SOL    HW126978   6.921   5.352   6.083 -1.7078  1.4387 -2.0147
 7377SOL    HW226979   7.034   5.449   6.109  0.0500 -0.8191 -0.8907
 7378SOL     OW26980   2.582   5.153   1.279  0.0039 -0.0049 -0.0366
 7378SOL    HW126981   2.637   5.228   1.256  0.1806  0.0929  0.6820
 7378SOL    HW226982   2.645   5.084   1.301 -0.1554 -0.4225 -0.8486
 7379SOL     OW26983   4.634   2.269   9.577 -0.4746  0.2088 -0.4461
 7379SOL    HW126984   4.612   2.278   9.670 -0.1434 -0.0695 -0.3348
 7379SOL    HW226985   4.667   2.179   9.569 -0.1272  0.3603 -0.7513
 7380SOL     OW26986   2.334   0.634   5.486  0.2204  0.4257  0.3101
 7380SOL    HW126987   2.306   0.623   5.395  1.6727 -1.3486  0.0280
 7380SOL    HW226988   2.429   0.632   5.482  0.3021 -0.1955  1.9285
 7381SOL     OW26989   6.234   5.606   4.115 -0.6479  0.1628  0.4685
 7381SOL    HW126990   6.307   5.617   4.176 -1.9738  1.5267  1.8855
 7381SOL    HW226991   6.251   5.670   4.046 -1.7885  2.4104  2.1625
 7382SOL     OW26992   2.228   4.148   8.971 -0.0807 -0.5392  0.1989
 7382SOL    HW126993   2.286   4.088   9.018 -0.6159 -1.2083  0.0060
 7382SOL    HW226994   2.233   4.120   8.880  1.3527  1.0693 -0.2885
 7383SOL     OW26995   9.052   7.554   8.895  0.0782  0.4029  0.3405
 7383SOL    HW126996   9.110   7.478   8.892 -0.8917 -0.3843  0.8039
 7383SOL    HW226997   8.972   7.525   8.850  0.3183  1.7366 -1.0231
 7384SOL     OW26998   1.484   0.373   0.594 -0.1981 -0.4458  0.0128
 7384SOL    HW126999   1.541   0.414   0.529 -0.9352  0.2656 -0.1973
 7384SOL    HW227000   1.532   0.383   0.677  0.3358 -0.5605 -0.2754
 7385SOL     OW27001   6.962   7.999   2.937 -0.0341 -0.1166  0.4324
 7385SOL    HW127002   7.052   7.985   2.908 -0.7803 -0.4323 -1.9359
 7385SOL    HW227003   6.962   7.970   3.028  2.0978 -0.7383  0.3003
 7386SOL     OW27004   7.660   7.526   2.192 -0.4187  0.2764 -0.2993
 7386SOL    HW127005   7.649   7.576   2.273  0.6965 -0.2869  0.2294
 7386SOL    HW227006   7.608   7.446   2.205 -0.9338  0.5743 -0.5016
 7387SOL     OW27007   2.580   7.056   2.969 -0.3482 -0.0835 -0.1346
 7387SOL    HW127008   2.611   6.992   3.033 -0.7299 -0.5430 -0.4003
 7387SOL    HW227009   2.493   7.024   2.943 -0.6468  0.6737 -0.0921
 7388SOL     OW27010   8.515   6.517   6.593 -0.2909  0.6897 -0.7667
 7388SOL    HW127011   8.421   6.501   6.599 -0.0023 -0.6983  0.8667
 7388SOL    HW227012   8.545   6.521   6.684  1.4310 -0.3671 -1.2360
 7389SOL     OW27013   9.478   2.785   4.942 -0.3929 -0.3377  0.1618
 7389SOL    HW127014   9.479   2.771   5.037  2.3570 -1.2977  0.0664
 7389SOL    HW227015   9.385   2.783   4.919 -1.2275  0.9157  2.9430
 7390SOL     OW27016   1.746   6.091   4.305  0.5010 -0.2650 -0.0668
 7390SOL    HW127017   1.660   6.129   4.323  0.2641 -1.0131  0.4269
 7390SOL    HW227018   1.793   6.098   4.388  1.1149  0.6241 -0.4781
 7391SOL     OW27019   2.214   5.109   6.178 -0.1846 -0.7505 -0.5984
 7391SOL    HW127020   2.145   5.106   6.244 -0.8274  1.6849 -1.0326
 7391SOL    HW227021   2.166   5.111   6.095  0.4078  0.1609 -0.9373
 7392SOL     OW27022   9.017   4.227   7.677  0.0434 -0.2038 -0.8937
 7392SOL    HW127023   8.980   4.313   7.696  0.2600 -0.1494 -0.7155
 7392SOL    HW227024   8.959   4.165   7.721  0.6694 -0.0689  0.1395
 7393SOL     OW27025   7.958   9.092   2.597  0.0560 -0.0003  0.0865
 7393SOL    HW127026   7.970   9.106   2.503  2.2949  4.6252  0.7659
 7393SOL    HW227027   8.042   9.056   2.626  0.4108  1.2210  0.6199
 7394SOL     OW27028   4.951   3.751   0.599 -0.2934 -0.0687 -0.0426
 7394SOL    HW127029   5.006   3.822   0.566  0.7091 -0.1620  1.3584
 7394SOL    HW227030   4.978   3.674   0.549  3.1308 -0.8214  2.6244
 7395SOL     OW27031   8.992   0.108   7.820  0.1630  0.5231 -0.0650
 7395SOL    HW127032   8.951   0.145   7.898  0.8195 -1.5821  1.3664
 7395SOL    HW227033   9.060   0.171   7.797  0.2846  0.9593  1.3612
 7396SOL     OW27034   0.110   0.198   2.336  0.1937  0.7600 -0.0252
 7396SOL    HW127035   0.186   0.226   2.386 -0.2922 -1.1249  1.9429
 7396SOL    HW227036   0.038   0.249   2.371  0.0292  0.1827  0.5026
 7397SOL     OW27037   8.755   4.916   4.914 -0.7574  0.2995 -0.5823
 7397SOL    HW127038   8.823   4.858   4.880  0.8695  0.2219  2.4666
 7397SOL    HW227039   8.682   4.857   4.935  0.6307 -0.7019  1.8671
 7398SOL     OW27040   2.696   3.435   6.164  0.0084 -0.2030 -0.0569
 7398SOL    HW127041   2.723   3.443   6.255 -0.7479 -1.6920  0.3239
 7398SOL    HW227042   2.749   3.363   6.129  0.5319  0.5710 -0.8984
 7399SOL     OW27043   8.649   6.887   7.416  0.5909  0.3873 -0.0772
 7399SOL    HW127044   8.669   6.954   7.350  1.8852 -0.7775 -0.9029
 7399SOL    HW227045   8.732   6.870   7.460  0.5494 -1.5027 -0.6718
 7400SOL     OW27046   6.727   9.331   2.906  0.0348  0.9810  0.2391
 7400SOL    HW127047   6.726   9.353   2.813 -0.7525 -1.0188 -0.2576
 7400SOL    HW227048   6.721   9.416   2.950  0.5275  1.9729 -1.5132
 7401SOL     OW27049   6.540   8.446   0.963 -0.0160  0.2289  0.1190
 7401SOL    HW127050   6.610   8.405   1.014 -0.3784  0.0083  0.4379
 7401SOL    HW227051   6.539   8.537   0.993  0.4879  0.3733 -0.2715
 7402SOL     OW27052   2.572   1.979   5.968  0.1826  0.1076 -0.4337
 7402SOL    HW127053   2.511   2.051   5.986 -0.7034 -0.9288  0.8414
 7402SOL    HW227054   2.606   1.999   5.880 -0.1318  1.9930 -0.1810
 7403SOL     OW27055   6.597   8.969   4.635  0.5273 -0.0276  0.2786
 7403SOL    HW127056   6.640   9.047   4.670  0.5554 -0.2546  0.7712
 7403SOL    HW227057   6.625   8.965   4.544 -0.0865  0.9579  0.0375
 7404SOL     OW27058   4.254   2.498   0.648 -0.0170  0.2853  0.0009
 7404SOL    HW127059   4.324   2.434   0.634 -0.7414 -0.5972  0.2874
 7404SOL    HW227060   4.176   2.456   0.613 -0.0876  2.1185 -2.2934
 7405SOL     OW27061   8.394   8.996   6.458 -0.2079  0.4188 -0.7286
 7405SOL    HW127062   8.461   9.051   6.499  0.5138 -0.7407 -0.3326
 7405SOL    HW227063   8.434   8.910   6.451 -1.4082 -0.1222 -1.1429
 7406SOL     OW27064   4.800   8.463   2.645  0.0028 -0.8586  0.4049
 7406SOL    HW127065   4.738   8.390   2.654 -0.8699 -0.3731 -1.2110
 7406SOL    HW227066   4.755   8.525   2.588  0.1172  1.6433  2.8214
 7407SOL     OW27067   3.143   2.986   3.851 -0.2109 -0.1485 -0.9310
 7407SOL    HW127068   3.194   3.061   3.879 -1.8305  0.2475  1.2144
 7407SOL    HW227069   3.197   2.910   3.874  0.8730  0.2926 -1.9355
 7408SOL     OW27070   7.408   3.267   7.656  0.0254 -0.0211  0.6409
 7408SOL    HW127071   7.418   3.347   7.605 -0.0653 -1.0932 -1.1235
 7408SOL    HW227072   7.497   3.245   7.684  0.4002 -0.5562 -0.8889
 7409SOL     OW27073   5.500   2.925   0.545 -0.3363  0.2350  0.0448
 7409SOL    HW127074   5.480   2.835   0.519  0.1853 -0.3095  1.4558
 7409SOL    HW227075   5.550   2.961   0.471 -1.9704 -0.0498 -1.2669
 7410SOL     OW27076   7.348   0.399   5.353  0.3281 -0.1792 -0.0816
 7410SOL    HW127077   7.282   0.344   5.395  1.2242  0.9564  3.0902
 7410SOL    HW227078   7.409   0.422   5.423 -0.2873  5.2994 -0.9392
 7411SOL     OW27079   3.183   0.059   7.587  0.1745  0.4511 -0.8046
 7411SOL    HW127080   3.261   0.016   7.551 -0.1437 -1.8043  0.9598
 7411SOL    HW227081   3.116   0.047   7.519  0.1290 -1.8877 -0.4315
 7412SOL     OW27082   9.201   6.353   3.666  0.1492  0.2889  0.4855
 7412SOL    HW127083   9.209   6.284   3.600 -0.1748  0.8701 -0.1703
 7412SOL    HW227084   9.275   6.411   3.650 -0.4309  0.9176  0.0494
 7413SOL     OW27085   2.519   7.614   1.997  0.3005  0.0161 -0.3642
 7413SOL    HW127086   2.595   7.651   1.952 -0.0752  0.1750 -0.8857
 7413SOL    HW227087   2.546   7.526   2.021  1.1480  0.5601  0.7453
 7414SOL     OW27088   7.144   6.620   9.681  0.3446  0.0369 -0.0096
 7414SOL    HW127089   7.075   6.670   9.637 -0.8563 -1.5814 -0.0556
 7414SOL    HW227090   7.097   6.562   9.741  1.7365 -0.4726  0.6260
 7415SOL     OW27091   5.793   3.280   3.334  0.6167  0.0515 -0.4709
 7415SOL    HW127092   5.738   3.226   3.277  1.4243 -0.5928 -0.6674
 7415SOL    HW227093   5.818   3.222   3.406  2.0430 -0.0765 -1.0282
 7416SOL     OW27094   0.072   0.645   2.517 -0.4356 -0.3137 -0.4828
 7416SOL    HW127095   0.021   0.573   2.480 -0.9124  0.1583 -0.7719
 7416SOL    HW227096   0.148   0.603   2.558  0.0565 -0.8470 -1.9055
 7417SOL     OW27097   8.804   6.039   8.331 -0.3376 -0.7121 -1.0729
 7417SOL    HW127098   8.750   6.113   8.301 -1.8633 -1.9119 -1.4399
 7417SOL    HW227099   8.848   6.008   8.252  0.7642  0.1374 -0.8117
 7418SOL     OW27100   4.335   0.885   6.702 -0.0894 -0.4385 -0.2872
 7418SOL    HW127101   4.244   0.915   6.698  0.1487  0.5378  1.0058
 7418SOL    HW227102   4.356   0.863   6.612 -1.8933 -1.6033 -0.4861
 7419SOL     OW27103   9.121   1.865   8.931  0.2724  0.5968  0.2372
 7419SOL    HW127104   9.035   1.850   8.892 -0.8903  1.6778  2.2340
 7419SOL    HW227105   9.108   1.849   9.025  2.1919  1.0711  0.6253
 7420SOL     OW27106   4.261   2.432   7.492  0.8339  0.1951  0.2839
 7420SOL    HW127107   4.245   2.351   7.443 -2.4314 -0.3335  1.9320
 7420SOL    HW227108   4.248   2.407   7.583  2.0928  2.1542  1.0637
 7421SOL     OW27109   2.314   0.767   1.937  0.6091  0.1977  0.1301
 7421SOL    HW127110   2.310   0.746   2.031  0.7436  0.4145  0.1851
 7421SOL    HW227111   2.392   0.820   1.928  1.5449 -1.2192 -0.3924
 7422SOL     OW27112   4.007   4.784   8.846  0.0833  0.1965  0.0225
 7422SOL    HW127113   4.015   4.870   8.805 -0.5458 -0.0968 -0.7465
 7422SOL    HW227114   4.054   4.792   8.929 -2.1928  2.0665  1.2317
 7423SOL     OW27115   7.485   4.040   0.697 -0.0144 -0.0122 -0.1180
 7423SOL    HW127116   7.536   3.959   0.705  0.3851  0.1365 -1.0857
 7423SOL    HW227117   7.486   4.060   0.604 -1.6875  0.1055 -0.1369
 7424SOL     OW27118   9.007   8.352   6.061  0.4030  0.0993 -0.0487
 7424SOL    HW127119   9.070   8.408   6.107 -0.5017 -0.7442  2.4093
 7424SOL    HW227120   8.923   8.374   6.101 -0.9899  1.2959 -3.3341
 7425SOL     OW27121   9.094   7.303   0.814  0.1360 -0.2343  0.0378
 7425SOL    HW127122   9.180   7.289   0.854  0.3368 -2.1001 -0.9068
 7425SOL    HW227123   9.063   7.214   0.794 -2.3821  0.3385  1.0650
 7426SOL     OW27124   9.049   7.220   2.097  0.4805  0.0300  0.4971
 7426SOL    HW127125   9.034   7.133   2.135 -2.0467  0.8420  1.5600
 7426SOL    HW227126   8.962   7.255   2.082  1.3593  1.0363 -3.3734
 7427SOL     OW27127   5.459   8.466   8.009 -0.2694  0.2179 -0.3240
 7427SOL    HW127128   5.545   8.471   7.969 -0.1445  0.6047 -0.0168
 7427SOL    HW227129   5.437   8.373   8.008  0.8659 -0.0988  1.0701
 7428SOL     OW27130   1.326   7.950   4.652 -0.0903 -0.1822  0.0718
 7428SOL    HW127131   1.257   8.016   4.656  0.0855  0.0629 -0.7800
 7428SOL    HW227132   1.315   7.910   4.565  0.6159 -0.3859  0.0753
 7429SOL     OW27133   5.216   9.327   4.633  0.5682  0.3893  0.3137
 7429SOL    HW127134   5.212   9.326   4.729  0.2524 -0.8757  0.3082
 7429SOL    HW227135   5.135   9.369   4.607 -0.4857 -1.3464  0.6028
 7430SOL     OW27136   5.813   7.792   4.172  0.7408 -0.0667  0.6738
 7430SOL    HW127137   5.810   7.768   4.080  0.3811 -0.4483  0.7820
 7430SOL    HW227138   5.752   7.865   4.181  2.2230  1.2911  0.2432
 7431SOL     OW27139   3.230   4.738   5.617  0.0403 -0.0446  0.1310
 7431SOL    HW127140   3.186   4.823   5.614  0.0591 -0.0736 -1.4921
 7431SOL    HW227141   3.158   4.674   5.612  0.1381 -0.1018 -0.6610
 7432SOL     OW27142   4.325   1.017   1.676 -0.4797  0.6850  0.0922
 7432SOL    HW127143   4.272   1.084   1.719 -2.1778 -0.1138 -0.6468
 7432SOL    HW227144   4.286   0.934   1.704 -0.5754  0.1095 -1.6191
 7433SOL     OW27145   4.529   3.391   7.864  0.0095 -0.5813 -0.0937
 7433SOL    HW127146   4.605   3.443   7.888 -1.3220  2.1561 -1.3865
 7433SOL    HW227147   4.460   3.419   7.925 -0.6593 -1.0708 -0.6100
 7434SOL     OW27148   0.555   2.865   5.630  0.1138 -0.4516 -0.8423
 7434SOL    HW127149   0.543   2.794   5.694 -0.0846 -0.5767 -1.0156
 7434SOL    HW227150   0.616   2.925   5.672 -1.2280  0.2821  0.1535
 7435SOL     OW27151   1.874   5.735   1.379  0.3669 -1.1588 -0.2619
 7435SOL    HW127152   1.852   5.826   1.358 -1.5849 -1.6958 -0.7382
 7435SOL    HW227153   1.966   5.726   1.354  1.5013  1.4075  2.3772
 7436SOL     OW27154   4.100   6.174   1.180 -0.1443 -0.1183  0.0038
 7436SOL    HW127155   4.176   6.209   1.135  1.2939  0.2017  2.5408
 7436SOL    HW227156   4.070   6.103   1.123  2.4627 -0.7092 -0.7667
 7437SOL     OW27157   6.098   1.437   8.925  0.2480  0.0512  0.0920
 7437SOL    HW127158   6.080   1.402   8.838 -1.4916 -0.8781  0.7953
 7437SOL    HW227159   6.109   1.531   8.911 -1.2165  0.0923 -0.9775
 7438SOL     OW27160   9.152   0.810   8.430  0.3289 -0.1334 -0.0912
 7438SOL    HW127161   9.083   0.871   8.405  1.3920  0.9663 -0.4453
 7438SOL    HW227162   9.165   0.756   8.352  1.2886  1.0595 -0.8097
 7439SOL     OW27163   6.604   5.080   6.864 -0.1782 -0.6822 -0.3341
 7439SOL    HW127164   6.558   5.149   6.817  0.0225 -0.6678 -0.5159
 7439SOL    HW227165   6.634   5.121   6.945  1.1105 -0.1624 -1.0411
 7440SOL     OW27166   1.512   3.790   9.362 -0.0197 -0.1879 -0.2169
 7440SOL    HW127167   1.490   3.875   9.325 -3.2862 -0.7186  0.2114
 7440SOL    HW227168   1.555   3.810   9.445 -1.7062  1.1334  0.3940
 7441SOL     OW27169   5.051   9.024   3.555 -0.1561 -0.2046 -0.1921
 7441SOL    HW127170   5.020   9.034   3.465 -0.7555  0.0018  0.0272
 7441SOL    HW227171   5.128   8.968   3.549  0.4913  0.7419 -0.9657
 7442SOL     OW27172   5.655   8.743   6.426  0.5011 -0.4518  0.1663
 7442SOL    HW127173   5.646   8.680   6.354 -1.6622  0.8698 -0.8128
 7442SOL    HW227174   5.625   8.695   6.503 -0.7117 -0.7860 -0.4923
 7443SOL     OW27175   8.909   1.687   0.263 -0.0827  0.1384  0.3963
 7443SOL    HW127176   9.000   1.697   0.234 -0.0178 -0.0876  0.5178
 7443SOL    HW227177   8.871   1.624   0.201 -0.0691 -0.0035  0.5322
 7444SOL     OW27178   1.909   5.929   0.809 -0.0096  0.2985  0.3198
 7444SOL    HW127179   1.963   5.869   0.757  0.0783 -1.3642  2.2160
 7444SOL    HW227180   1.930   6.016   0.775  0.6217 -0.6394 -1.8500
 7445SOL     OW27181   4.577   5.878   3.371 -0.2157 -0.2137  0.4864
 7445SOL    HW127182   4.666   5.843   3.360 -0.1025 -0.2399  1.4115
 7445SOL    HW227183   4.521   5.801   3.375 -0.6387 -0.1946 -2.5166
 7446SOL     OW27184   2.799   4.345   8.298  0.0013  0.8043 -0.0771
 7446SOL    HW127185   2.876   4.358   8.353 -0.9715  0.9825  1.3103
 7446SOL    HW227186   2.770   4.433   8.276  0.7376  0.7316 -1.4403
 7447SOL     OW27187   1.588   1.579   2.560  0.1714  0.3187  0.1833
 7447SOL    HW127188   1.548   1.664   2.544 -1.6024 -0.5240 -0.2006
 7447SOL    HW227189   1.538   1.519   2.505  0.6774 -1.1284  1.2318
 7448SOL     OW27190   3.525   5.162   1.899 -0.6505  0.1768 -0.7317
 7448SOL    HW127191   3.484   5.076   1.899  1.6505 -1.0935 -3.3419
 7448SOL    HW227192   3.556   5.174   1.988 -2.5742 -0.8332  0.1282
 7449SOL     OW27193   7.551   2.191   2.000  0.0225 -0.0400 -0.2799
 7449SOL    HW127194   7.638   2.224   2.021  0.4342 -1.0355 -0.3496
 7449SOL    HW227195   7.491   2.257   2.034  0.7050 -0.6451  2.2401
 7450SOL     OW27196   6.551   2.626   7.979 -0.2863  0.0314 -0.3624
 7450SOL    HW127197   6.600   2.586   7.906 -0.9149 -0.9607 -0.2558
 7450SOL    HW227198   6.463   2.589   7.972 -0.2294 -0.4530  1.1875
 7451SOL     OW27199   6.605   2.422   4.768 -0.0214  0.5914  0.1513
 7451SOL    HW127200   6.630   2.388   4.854  2.7745  1.6848 -0.1270
 7451SOL    HW227201   6.643   2.510   4.765 -3.6289  2.3151 -0.6793
 7452SOL     OW27202   5.021   0.970   4.103  0.3005  0.1751  0.1118
 7452SOL    HW127203   5.020   1.064   4.083  1.8803  0.3587  0.7692
 7452SOL    HW227204   4.947   0.935   4.052 -0.5033  1.7921  0.0703
 7453SOL     OW27205   5.515   9.326   4.538 -0.0107  0.4723 -0.2398
 7453SOL    HW127206   5.423   9.353   4.530 -0.4707 -1.2369 -1.3094
 7453SOL    HW227207   5.513   9.232   4.523  1.4181 -0.3547  3.7172
 7454SOL     OW27208   9.246   8.587   6.968  0.5526 -0.5974  0.1862
 7454SOL    HW127209   9.188   8.545   7.031  0.4301 -0.7145 -0.0033
 7454SOL    HW227210   9.254   8.524   6.896  0.1585 -0.1989 -0.2161
 7455SOL     OW27211   3.596   2.355   2.478 -0.0712  0.1700  0.1832
 7455SOL    HW127212   3.633   2.326   2.395 -0.8639  0.9817 -0.4888
 7455SOL    HW227213   3.537   2.427   2.454 -1.2884 -0.3966  1.3031
 7456SOL     OW27214   4.932   1.874   5.085 -0.0626  0.2761 -0.0964
 7456SOL    HW127215   5.022   1.843   5.078 -0.5056 -1.8151  2.1663
 7456SOL    HW227216   4.896   1.862   4.997  1.4645 -0.1230 -0.7067
 7457SOL     OW27217   1.410   1.997   1.240  0.3688  0.2680  0.5662
 7457SOL    HW127218   1.456   1.987   1.157 -2.3842  1.8067 -1.3028
 7457SOL    HW227219   1.452   2.072   1.282 -0.7081  2.1032 -1.4240
 7458SOL     OW27220   9.183   9.045   2.644 -0.2508 -0.7853 -0.5823
 7458SOL    HW127221   9.135   8.970   2.679  0.1972 -0.1518  1.5407
 7458SOL    HW227222   9.275   9.018   2.645 -0.2375 -0.7827 -1.3825
 7459SOL     OW27223   7.639   6.091   7.469  0.4374 -0.3151 -0.5795
 7459SOL    HW127224   7.693   6.100   7.390  0.0507 -1.2571 -0.9733
 7459SOL    HW227225   7.569   6.155   7.457  0.5233 -0.2727 -0.8821
 7460SOL     OW27226   3.953   9.150   2.981  0.0851  0.0815  0.5415
 7460SOL    HW127227   4.041   9.119   2.960 -0.1123 -0.0912 -0.0533
 7460SOL    HW227228   3.896   9.077   2.959 -0.1272 -0.1445  1.8080
 7461SOL     OW27229   9.392   0.892   7.487  0.7965  0.1687 -0.2382
 7461SOL    HW127230   9.480   0.874   7.453  0.5483 -0.7789 -0.4022
 7461SOL    HW227231   9.337   0.901   7.409  0.0707 -2.8029 -0.1708
 7462SOL     OW27232   1.307   1.168   8.255 -0.1629 -0.0312 -0.4180
 7462SOL    HW127233   1.349   1.251   8.276 -1.1686  0.4735 -0.3144
 7462SOL    HW227234   1.297   1.169   8.160  0.8051 -0.5386 -0.5401
 7463SOL     OW27235   3.739   4.699   1.825 -0.1370  0.1364 -0.0819
 7463SOL    HW127236   3.649   4.723   1.843 -0.0039  0.0916  0.6885
 7463SOL    HW227237   3.763   4.641   1.897  0.4987  0.1309 -0.2923
 7464SOL     OW27238   1.444   7.729   7.965  0.1278 -0.1132 -0.5593
 7464SOL    HW127239   1.363   7.778   7.949  0.7110  0.2483 -2.7262
 7464SOL    HW227240   1.429   7.683   8.047 -2.3796 -0.2601 -1.0369
 7465SOL     OW27241   1.119   8.178   0.836  0.1599  0.3252 -0.8076
 7465SOL    HW127242   1.154   8.134   0.758  2.1609  0.6602 -0.1545
 7465SOL    HW227243   1.195   8.192   0.892 -0.7129  2.7198 -0.0616
 7466SOL     OW27244   6.056   5.841   7.878 -0.0449  0.6457  0.2358
 7466SOL    HW127245   6.042   5.770   7.940 -1.1911  2.0774  1.7066
 7466SOL    HW227246   6.056   5.798   7.792 -2.0564 -0.9803  0.9654
 7467SOL     OW27247   8.901   7.486   1.919  0.5197  0.2230  0.1514
 7467SOL    HW127248   8.904   7.502   2.013 -1.2738 -4.4052  1.2579
 7467SOL    HW227249   8.992   7.469   1.895  0.6858 -2.1124  2.0097
 7468SOL     OW27250   6.839   1.350   5.133 -0.5143  0.1125 -0.8470
 7468SOL    HW127251   6.848   1.280   5.197  0.4614  0.8614 -0.1530
 7468SOL    HW227252   6.750   1.339   5.099  0.0296 -2.2315 -1.6848
 7469SOL     OW27253   3.157   3.768   6.920  0.3179 -0.0739 -0.1939
 7469SOL    HW127254   3.129   3.854   6.951 -1.0556 -0.6756  0.3007
 7469SOL    HW227255   3.118   3.760   6.833 -0.8392 -0.7913  0.3715
 7470SOL     OW27256   8.464   9.678   6.006  0.2651 -0.3251  0.5003
 7470SOL    HW127257   8.538   9.735   6.028  0.1646  0.1929 -0.4330
 7470SOL    HW227258   8.431   9.648   6.090  1.5345 -0.5690  0.9400
 7471SOL     OW27259   6.514   8.308   5.468  0.1986 -0.0882  0.1809
 7471SOL    HW127260   6.444   8.316   5.534 -0.2247  1.0393 -0.3645
 7471SOL    HW227261   6.592   8.288   5.519 -0.3056 -0.2150  0.9281
 7472SOL     OW27262   8.323   5.292   2.715  0.4152  0.4038 -0.2689
 7472SOL    HW127263   8.396   5.229   2.709  1.7294  1.8258  0.1101
 7472SOL    HW227264   8.363   5.377   2.696 -1.6126  0.9945 -2.3096
 7473SOL     OW27265   6.683   3.972   3.136 -0.3878 -0.0641  0.4058
 7473SOL    HW127266   6.769   4.012   3.139 -0.6812  0.5208  1.3085
 7473SOL    HW227267   6.646   4.001   3.053  0.1981 -0.1529  0.1105
 7474SOL     OW27268   7.560   2.888   7.215  0.1035 -0.6062 -0.2591
 7474SOL    HW127269   7.611   2.812   7.243  2.0040  0.7976  0.3447
 7474SOL    HW227270   7.570   2.951   7.286  0.7543  1.1402 -1.8044
 7475SOL     OW27271   0.251   0.642   4.751  0.4424  0.9216  0.2450
 7475SOL    HW127272   0.188   0.590   4.702  1.9672  0.1000 -0.9465
 7475SOL    HW227273   0.214   0.730   4.752 -0.5861  0.5178 -0.6468
 7476SOL     OW27274   0.829   2.673   9.185  0.2688 -0.6170  0.9635
 7476SOL    HW127275   0.825   2.761   9.147 -3.3357  0.0042  2.3572
 7476SOL    HW227276   0.919   2.664   9.216  1.5242  1.3984 -1.6900
 7477SOL     OW27277   1.028   9.092   3.217  0.4175  0.0616 -0.0595
 7477SOL    HW127278   0.969   9.042   3.274  0.6598  0.6568  0.7404
 7477SOL    HW227279   1.090   9.028   3.184 -0.3219 -0.4712 -0.4483
 7478SOL     OW27280   4.353   8.906   6.287  0.0258 -0.0080 -0.1183
 7478SOL    HW127281   4.304   8.910   6.205 -1.3383 -1.3575  0.5933
 7478SOL    HW227282   4.428   8.849   6.268 -2.2279 -3.4307  0.4184
 7479SOL     OW27283   2.178   6.128   2.641  0.4171 -0.6380 -0.1660
 7479SOL    HW127284   2.180   6.036   2.612  1.1893 -0.2097 -1.5648
 7479SOL    HW227285   2.130   6.174   2.572 -2.0905 -0.2988  1.6519
 7480SOL     OW27286   0.562   1.949   1.204  0.3902  0.3827 -0.0825
 7480SOL    HW127287   0.504   1.874   1.215 -0.3774  1.0906  0.9286
 7480SOL    HW227288   0.650   1.912   1.204 -0.0107 -0.5914 -0.4028
 7481SOL     OW27289   0.733   6.834   7.647 -0.5141 -0.0714 -0.3947
 7481SOL    HW127290   0.700   6.793   7.567 -2.6534  0.2803  0.2296
 7481SOL    HW227291   0.753   6.924   7.621 -0.9219 -0.0425 -0.6213
 7482SOL     OW27292   0.998   2.185   5.321  0.3201 -0.2451  0.4630
 7482SOL    HW127293   1.008   2.209   5.413 -0.5404 -1.7246  0.9764
 7482SOL    HW227294   0.903   2.186   5.307  0.4583  0.2397 -0.4897
 7483SOL     OW27295   0.761   0.211   6.645  0.0195  0.0298 -0.3372
 7483SOL    HW127296   0.744   0.118   6.663  0.3809  0.1633  0.7464
 7483SOL    HW227297   0.841   0.211   6.592  0.3609 -0.2478  0.1719
 7484SOL     OW27298   6.070   2.781   7.617 -0.0211  0.3475 -0.2051
 7484SOL    HW127299   5.998   2.827   7.574 -0.6903 -0.5940 -0.1160
 7484SOL    HW227300   6.100   2.841   7.685 -1.2375  0.4561  0.2631
 7485SOL     OW27301   9.427   4.252   1.542  0.0655  0.4555  0.2405
 7485SOL    HW127302   9.498   4.254   1.478 -1.0702  0.2201 -1.0877
 7485SOL    HW227303   9.352   4.216   1.494 -0.4384 -1.2550  2.1355
 7486SOL     OW27304   0.588   7.304   9.453 -0.0066 -0.2526  0.2388
 7486SOL    HW127305   0.655   7.355   9.408  0.2235 -1.8808 -1.4154
 7486SOL    HW227306   0.508   7.320   9.403 -0.7815  1.2463  1.8749
 7487SOL     OW27307   1.950   2.346   9.348  0.3997 -0.1881 -0.0665
 7487SOL    HW127308   1.886   2.288   9.388  0.3000  0.2930  0.4846
 7487SOL    HW227309   1.985   2.397   9.421  1.6686 -0.6777 -0.2916
 7488SOL     OW27310   6.563   1.583   7.017 -0.0750 -0.2927 -0.1149
 7488SOL    HW127311   6.498   1.629   7.069  0.9727  0.6972  0.3751
 7488SOL    HW227312   6.617   1.537   7.081  0.1138 -0.5637 -0.4655
 7489SOL     OW27313   8.493   6.780   6.378 -0.2877  0.3323 -0.0229
 7489SOL    HW127314   8.400   6.800   6.387 -0.7464 -1.8598  0.9174
 7489SOL    HW227315   8.515   6.805   6.289 -1.4645  1.9731  0.1107
 7490SOL     OW27316   7.540   3.473   2.940  0.4713  0.2201  0.0841
 7490SOL    HW127317   7.455   3.436   2.964  2.0281 -2.3785  2.1413
 7490SOL    HW227318   7.525   3.568   2.934 -2.8338 -0.2616 -1.2131
 7491SOL     OW27319   6.930   7.307   2.656 -0.2426 -0.2675  0.0968
 7491SOL    HW127320   7.011   7.286   2.702  0.5148  1.1255 -0.5233
 7491SOL    HW227321   6.957   7.323   2.566 -1.4284 -1.1107 -0.4496
 7492SOL     OW27322   8.559   9.538   7.611 -0.0840 -0.0509  0.0621
 7492SOL    HW127323   8.505   9.461   7.592 -3.1958  1.8993  0.4171
 7492SOL    HW227324   8.580   9.575   7.525  1.3227 -1.1345 -0.1037
 7493SOL     OW27325   8.312   5.192   1.321  0.2159 -0.1289  0.2691
 7493SOL    HW127326   8.386   5.179   1.262 -0.5617  1.0200 -1.0335
 7493SOL    HW227327   8.350   5.186   1.408  2.1886  1.9314 -0.3287
 7494SOL     OW27328   6.626   1.588   5.360 -0.6955  0.5038 -0.4456
 7494SOL    HW127329   6.598   1.500   5.384 -0.1960  0.4235 -0.1421
 7494SOL    HW227330   6.722   1.585   5.365 -0.6696  1.0126 -0.6054
 7495SOL     OW27331   3.830   9.525   4.828 -0.2553  0.7105  0.0294
 7495SOL    HW127332   3.861   9.443   4.791 -0.9214  0.8444 -0.8737
 7495SOL    HW227333   3.884   9.593   4.787 -0.8351  0.8428 -0.5268
 7496SOL     OW27334   3.609   1.196   6.536  0.1835 -0.0590 -0.3729
 7496SOL    HW127335   3.619   1.233   6.449  1.7906 -1.1933 -0.7228
 7496SOL    HW227336   3.597   1.103   6.521  1.9037 -0.4886  0.6097
 7497SOL     OW27337   8.714   1.810   5.038 -0.1840 -0.3926  0.2468
 7497SOL    HW127338   8.628   1.782   5.070  1.2784 -2.6243  2.5939
 7497SOL    HW227339   8.716   1.904   5.053 -1.7712 -0.4842  1.2485
 7498SOL     OW27340   8.541   1.282   5.151  0.4682 -0.2061 -0.3578
 7498SOL    HW127341   8.609   1.257   5.214  1.1994  0.7284 -0.7665
 7498SOL    HW227342   8.506   1.364   5.185  0.3470 -0.0847 -0.7734
 7499SOL     OW27343   8.372   0.830   5.696  0.2561 -0.1537  0.0182
 7499SOL    HW127344   8.439   0.849   5.762 -0.5322 -0.3216  0.8687
 7499SOL    HW227345   8.331   0.749   5.725 -1.9431  1.1641  0.8245
 7500SOL     OW27346   2.845   7.591   3.038  0.5261  0.7430  0.9272
 7500SOL    HW127347   2.865   7.532   3.111 -0.7064  2.0978  2.4255
 7500SOL    HW227348   2.914   7.573   2.974  0.8281 -1.4992  1.7928
 7501SOL     OW27349   7.241   1.927   7.284 -0.3654 -0.4175 -0.1404
 7501SOL    HW127350   7.219   2.010   7.241  0.1320 -0.4339 -0.4379
 7501SOL    HW227351   7.229   1.943   7.377  1.7344  0.6358 -0.0065
 7502SOL     OW27352   6.764   4.474   3.460 -0.2311  0.0260 -0.1470
 7502SOL    HW127353   6.696   4.539   3.440 -0.2705  0.0650  0.1167
 7502SOL    HW227354   6.752   4.406   3.394 -1.7330 -0.8825  1.0069
 7503SOL     OW27355   2.270   8.319   6.298  0.5802  0.2234  0.5649
 7503SOL    HW127356   2.200   8.371   6.258  0.1006  0.2952  1.4677
 7503SOL    HW227357   2.235   8.295   6.384  0.6776 -1.8044  0.0862
 7504SOL     OW27358   6.244   1.008   1.684 -0.2097 -0.1359  0.2785
 7504SOL    HW127359   6.207   1.054   1.760  0.4660  0.2901  0.3578
 7504SOL    HW227360   6.199   0.923   1.683 -0.9105  0.2217  0.5917
 7505SOL     OW27361   6.245   0.536   4.316  0.1143  0.0687  0.4455
 7505SOL    HW127362   6.190   0.579   4.251  0.2178 -0.4333  0.0200
 7505SOL    HW227363   6.296   0.607   4.355 -0.3100  0.4402  0.3389
 7506SOL     OW27364   2.108   8.121   5.741 -0.1182  0.0450  0.0675
 7506SOL    HW127365   2.078   8.208   5.766 -0.4417  0.1395 -0.6316
 7506SOL    HW227366   2.031   8.080   5.700 -0.2811 -0.9535  1.3252
 7507SOL     OW27367   1.290   5.079   0.682  0.1567  0.4939 -0.2608
 7507SOL    HW127368   1.367   5.094   0.736  0.5867  2.7406 -1.3907
 7507SOL    HW227369   1.241   5.161   0.685 -2.7537 -1.1252  1.1630
 7508SOL     OW27370   9.068   3.887   0.576 -0.8355 -0.0259 -0.2238
 7508SOL    HW127371   9.138   3.947   0.600  0.0864 -0.7511 -1.0584
 7508SOL    HW227372   8.999   3.943   0.539  0.0057  0.5248 -0.9826
 7509SOL     OW27373   0.439   0.507   7.088  0.4498  0.1726 -0.6313
 7509SOL    HW127374   0.471   0.596   7.071  0.6928  0.3422  0.6298
 7509SOL    HW227375   0.452   0.494   7.182 -0.9094 -0.6738 -0.5300
 7510SOL     OW27376   1.332   8.410   0.291  0.1336  0.7047  0.2366
 7510SOL    HW127377   1.241   8.403   0.322 -0.1888  1.7682 -0.4356
 7510SOL    HW227378   1.325   8.441   0.201  1.1620  0.3467  0.0150
 7511SOL     OW27379   7.763   4.114   6.289  0.2437 -0.0180 -0.3468
 7511SOL    HW127380   7.824   4.080   6.354  2.0467  1.9583 -0.8993
 7511SOL    HW227381   7.754   4.207   6.310 -3.0448 -0.3025 -0.0014
 7512SOL     OW27382   8.508   2.783   6.847 -0.1232 -0.2668 -0.6470
 7512SOL    HW127383   8.427   2.733   6.856  0.7980 -2.2521 -2.5888
 7512SOL    HW227384   8.544   2.787   6.936 -2.2794  0.6246  0.2422
 7513SOL     OW27385   4.522   9.028   2.956  0.5548  0.0542  0.1716
 7513SOL    HW127386   4.494   8.972   2.883  0.1914  0.7216 -0.2205
 7513SOL    HW227387   4.471   8.998   3.031  0.6704 -0.4101  0.0646
 7514SOL     OW27388   7.649   7.789   8.279  0.0730 -0.5654  0.1740
 7514SOL    HW127389   7.712   7.761   8.213  1.0586  1.0261  0.3773
 7514SOL    HW227390   7.702   7.808   8.357 -0.4588  1.7728  0.0530
 7515SOL     OW27391   6.342   8.703   9.587 -0.3300 -0.0721  0.3130
 7515SOL    HW127392   6.413   8.732   9.645  1.1374 -1.8586 -0.5051
 7515SOL    HW227393   6.355   8.753   9.506 -0.4878  0.1678  0.4349
 7516SOL     OW27394   1.334   2.136   0.859  0.1759 -0.1291 -0.9597
 7516SOL    HW127395   1.331   2.151   0.765  1.3798 -1.1504 -1.1907
 7516SOL    HW227396   1.344   2.223   0.897 -0.1635  0.2782 -1.7745
 7517SOL     OW27397   5.380   2.679   1.658  0.2169  0.5043 -0.7393
 7517SOL    HW127398   5.417   2.670   1.571 -0.5472 -0.5600 -0.9832
 7517SOL    HW227399   5.396   2.770   1.682  2.6902  0.1798 -0.9243
 7518SOL     OW27400   8.817   4.721   6.006  0.2999 -0.1411 -0.0859
 7518SOL    HW127401   8.729   4.745   6.036  0.0244  0.3479 -1.2310
 7518SOL    HW227402   8.828   4.631   6.035  0.5532  0.6481  2.5239
 7519SOL     OW27403   2.475   5.223   7.600  0.3784 -0.3321 -0.2477
 7519SOL    HW127404   2.413   5.176   7.657 -0.8825  0.9141 -0.5464
 7519SOL    HW227405   2.516   5.288   7.658 -1.8484  1.8249 -0.9268
 7520SOL     OW27406   0.924   5.396   9.139  0.3985 -0.2162 -0.3564
 7520SOL    HW127407   0.892   5.485   9.152 -0.0196 -0.4506  0.2276
 7520SOL    HW227408   0.855   5.352   9.089  0.0824 -0.5322  0.3383
 7521SOL     OW27409   3.917   6.459   8.709  0.2711  0.5134  0.0252
 7521SOL    HW127410   3.964   6.385   8.747  0.1024  0.6521  0.5049
 7521SOL    HW227411   3.829   6.453   8.744  0.5510  1.6017  0.9980
 7522SOL     OW27412   0.681   4.340   8.702  0.4315  0.1760 -0.1176
 7522SOL    HW127413   0.650   4.255   8.733 -0.1828 -0.1892 -1.6196
 7522SOL    HW227414   0.633   4.354   8.620  1.2627  1.5144 -0.4019
 7523SOL     OW27415   6.496   0.138   4.697 -0.1278 -0.4353 -0.0248
 7523SOL    HW127416   6.472   0.226   4.727 -0.6076 -0.6338  0.1729
 7523SOL    HW227417   6.485   0.082   4.774  0.1510 -0.6762 -0.1563
 7524SOL     OW27418   2.879   6.482   8.267 -0.5428 -0.0298  0.0149
 7524SOL    HW127419   2.805   6.516   8.218  0.5935  1.8126 -0.5341
 7524SOL    HW227420   2.956   6.512   8.218  0.6311  1.2460  2.4560
 7525SOL     OW27421   5.353   5.400   6.629 -0.1208  0.6355 -0.2228
 7525SOL    HW127422   5.439   5.411   6.590  0.4792 -1.2264  0.4446
 7525SOL    HW227423   5.300   5.362   6.559  0.9255 -2.5998  0.5498
 7526SOL     OW27424   8.680   0.647   2.192 -0.4013 -0.6760  0.3644
 7526SOL    HW127425   8.586   0.663   2.199 -0.2297  0.1363  0.9566
 7526SOL    HW227426   8.687   0.572   2.133 -1.3442  0.1922 -0.9042
 7527SOL     OW27427   0.200   7.568   8.339  0.1520 -0.4858 -0.1841
 7527SOL    HW127428   0.118   7.567   8.289 -0.5623  1.4377  0.8160
 7527SOL    HW227429   0.208   7.658   8.370  2.8093 -0.5545 -0.4390
 7528SOL     OW27430   1.468   9.469   4.513 -0.0977 -0.5438 -0.0105
 7528SOL    HW127431   1.554   9.457   4.474 -1.0573 -1.1037 -2.1164
 7528SOL    HW227432   1.474   9.552   4.561  1.9665 -1.2451  1.0736
 7529SOL     OW27433   5.805   5.178   7.459  0.1120  0.4063  0.4212
 7529SOL    HW127434   5.889   5.147   7.491  1.1039  0.9969 -1.4471
 7529SOL    HW227435   5.814   5.175   7.363 -1.0627  2.9101  0.1723
 7530SOL     OW27436   8.540   5.887   3.177 -0.1326  0.8206  0.0203
 7530SOL    HW127437   8.635   5.899   3.179 -0.2816  2.0819  0.0377
 7530SOL    HW227438   8.506   5.961   3.226 -1.0560 -0.6989  1.7797
 7531SOL     OW27439   8.508   6.105   3.371 -0.3443  0.5614  0.1142
 7531SOL    HW127440   8.574   6.157   3.416 -0.2987  0.2942  0.3582
 7531SOL    HW227441   8.447   6.078   3.440  0.1262 -0.4611  0.1447
 7532SOL     OW27442   4.477   2.219   0.687  0.0153 -0.0256  0.0712
 7532SOL    HW127443   4.562   2.188   0.719  0.4372  0.8523 -0.1841
 7532SOL    HW227444   4.429   2.242   0.766 -0.0251 -0.5904  0.2201
 7533SOL     OW27445   5.178   1.256   4.152 -0.0345 -0.3804  0.2843
 7533SOL    HW127446   5.174   1.345   4.187 -0.0468  0.1359 -0.9512
 7533SOL    HW227447   5.087   1.235   4.129  0.1062 -0.2714 -0.4167
 7534SOL     OW27448   5.441   8.241   6.044  0.3537  0.4486 -0.0795
 7534SOL    HW127449   5.401   8.291   6.115  1.4912  0.0443  0.8807
 7534SOL    HW227450   5.517   8.294   6.017  0.8726 -0.1837  0.1272
 7535SOL     OW27451   3.640   5.233   5.690 -0.0516 -0.1486  0.0069
 7535SOL    HW127452   3.673   5.289   5.619  1.9958  0.0402  1.0215
 7535SOL    HW227453   3.575   5.288   5.735  0.3578  0.6157 -0.3064
 7536SOL     OW27454   9.027   9.209   4.489 -0.4033  0.4073  0.1238
 7536SOL    HW127455   9.064   9.207   4.400 -0.9182  0.2912 -0.0900
 7536SOL    HW227456   9.004   9.118   4.507  2.0795 -0.0642  1.4045
 7537SOL     OW27457   7.379   6.051   6.186  0.0067  0.1143  0.3842
 7537SOL    HW127458   7.292   6.018   6.207  0.9828 -1.8504  1.5758
 7537SOL    HW227459   7.416   5.987   6.126  0.9503  0.4636  0.5764
 7538SOL     OW27460   2.903   7.959   5.776  0.5211  0.3890 -0.5847
 7538SOL    HW127461   2.840   7.978   5.846 -0.2964 -1.0935 -0.8741
 7538SOL    HW227462   2.849   7.948   5.698  0.9516 -2.0812 -0.6117
 7539SOL     OW27463   7.652   2.794   6.978 -0.4242 -0.2918 -0.4151
 7539SOL    HW127464   7.646   2.699   6.991  0.7117 -0.3871 -0.5465
 7539SOL    HW227465   7.596   2.830   7.047 -2.4952 -1.0843 -1.5771
 7540SOL     OW27466   8.169   1.561   5.704 -0.4365 -0.2900  0.2340
 7540SOL    HW127467   8.078   1.590   5.714 -0.2472  0.6722 -0.6007
 7540SOL    HW227468   8.177   1.487   5.764 -2.4558 -1.9694 -1.3823
 7541SOL     OW27469   4.247   3.986   7.427 -0.2254  0.4541  0.3356
 7541SOL    HW127470   4.260   3.895   7.453  1.6291  0.0413 -1.7170
 7541SOL    HW227471   4.299   4.037   7.489 -1.3070  0.1412  1.5226
 7542SOL     OW27472   5.472   0.223   0.584 -0.5169 -0.6923 -0.3894
 7542SOL    HW127473   5.454   0.129   0.579 -2.6950 -0.2660 -1.2964
 7542SOL    HW227474   5.413   0.255   0.652 -0.7974  0.2369 -1.0587
 7543SOL     OW27475   2.673   4.074   0.293  0.1775  0.5071  0.5154
 7543SOL    HW127476   2.689   3.984   0.264  2.2882  0.1149  2.5872
 7543SOL    HW227477   2.599   4.067   0.353 -0.6978  0.4351 -0.5588
 7544SOL     OW27478   8.951   4.469   3.413  0.2166 -0.4234  0.3859
 7544SOL    HW127479   8.866   4.493   3.451  0.1389  0.0171 -0.0564
 7544SOL    HW227480   8.936   4.383   3.373  0.3943 -1.0575  1.6493
 7545SOL     OW27481   3.221   8.985   6.147 -0.4369  0.0484  0.0253
 7545SOL    HW127482   3.229   9.071   6.188  0.3786 -0.3852  0.8116
 7545SOL    HW227483   3.225   8.923   6.219  0.7319 -0.7262 -0.6751
 7546SOL     OW27484   0.945   4.421   9.297  0.4210  0.3860  0.3936
 7546SOL    HW127485   0.881   4.353   9.274  0.2557  0.4502  0.6691
 7546SOL    HW227486   0.934   4.488   9.229  1.3658 -0.3721 -0.5419
 7547SOL     OW27487   9.742   9.490   6.858 -0.5644  0.0739 -0.1726
 7547SOL    HW127488   9.693   9.548   6.917  0.3548  1.3202 -0.6060
 7547SOL    HW227489   9.675   9.432   6.822 -1.7212  1.5521 -0.5389
 7548SOL     OW27490   5.623   6.636   9.217 -0.0069 -0.3868 -0.2636
 7548SOL    HW127491   5.577   6.553   9.232  0.2852 -0.2673  1.5931
 7548SOL    HW227492   5.713   6.610   9.199  0.1541 -0.4925  0.6313
 7549SOL     OW27493   1.255   7.155   2.785 -0.1900 -0.0808  0.1586
 7549SOL    HW127494   1.264   7.133   2.878  0.1796 -0.7669 -0.0393
 7549SOL    HW227495   1.204   7.083   2.747  0.2731 -0.1669 -0.3128
 7550SOL     OW27496   9.584   8.767   4.044 -0.9128 -0.2485  0.0997
 7550SOL    HW127497   9.590   8.764   4.139 -0.8651 -1.6156  0.0797
 7550SOL    HW227498   9.653   8.708   4.013 -0.9218  0.1824 -0.7778
 7551SOL     OW27499   2.104   1.576   3.512 -0.4168  0.0653 -0.2149
 7551SOL    HW127500   2.148   1.535   3.438  1.7058 -0.2971  1.1700
 7551SOL    HW227501   2.079   1.503   3.568  0.6918  0.4675  0.8337
 7552SOL     OW27502   4.311   5.375   4.317 -0.3979 -0.4798 -0.1843
 7552SOL    HW127503   4.280   5.349   4.231  2.2630 -0.1899 -1.3468
 7552SOL    HW227504   4.346   5.463   4.304 -1.8093  0.4463  1.7362
 7553SOL     OW27505   9.086   5.339   7.735  0.1150  0.2272 -0.3120
 7553SOL    HW127506   9.043   5.266   7.689  0.9288 -0.4503 -0.0394
 7553SOL    HW227507   9.015   5.392   7.769 -0.6352 -2.1639  2.2137
 7554SOL     OW27508   5.538   1.601   0.337 -0.2976 -0.0443 -0.1700
 7554SOL    HW127509   5.622   1.642   0.357 -0.8265  1.4924 -0.9289
 7554SOL    HW227510   5.476   1.645   0.397 -0.4694 -1.6711  0.8961
 7555SOL     OW27511   5.373   3.654   8.727 -0.1929  0.2763  0.1141
 7555SOL    HW127512   5.434   3.633   8.657 -0.7804  0.3454 -0.4250
 7555SOL    HW227513   5.328   3.733   8.698 -2.0041 -0.8993 -0.4742
 7556SOL     OW27514   7.640   8.695   6.038  0.7332 -0.0826 -0.2475
 7556SOL    HW127515   7.726   8.658   6.018  1.2556  0.4758  0.8817
 7556SOL    HW227516   7.640   8.781   5.996  0.5038 -0.3090 -0.7168
 7557SOL     OW27517   6.635   4.738   2.648 -0.3280  0.2118 -0.2638
 7557SOL    HW127518   6.688   4.800   2.697  1.3169 -1.0023 -0.4044
 7557SOL    HW227519   6.637   4.658   2.700 -1.2819 -0.1284 -0.7241
 7558SOL     OW27520   8.952   8.468   8.807  0.1385  0.2580 -0.1518
 7558SOL    HW127521   8.862   8.496   8.790 -0.2386  0.7537  2.2592
 7558SOL    HW227522   8.948   8.373   8.805  0.4693  0.1789 -3.8987
 7559SOL     OW27523   6.262   3.754   6.823  0.2689 -0.6522  0.2800
 7559SOL    HW127524   6.204   3.810   6.771 -0.8053 -2.1861 -0.2466
 7559SOL    HW227525   6.228   3.666   6.810  1.8648 -1.4399  1.1391
 7560SOL     OW27526   4.242   0.543   0.652  0.3535 -0.4598 -0.7424
 7560SOL    HW127527   4.193   0.469   0.616  1.7117 -2.7246  1.6830
 7560SOL    HW227528   4.178   0.594   0.702 -0.1243 -1.6804 -0.0695
 7561SOL     OW27529   1.370   4.101   8.713 -0.2129 -0.0859 -0.4515
 7561SOL    HW127530   1.304   4.045   8.672  0.0257 -0.7815  0.0913
 7561SOL    HW227531   1.326   4.135   8.791  0.3432 -1.3288  0.4553
 7562SOL     OW27532   7.251   7.612   4.342 -0.2329 -0.0749  0.1967
 7562SOL    HW127533   7.296   7.568   4.269  2.6219  1.7362  0.6855
 7562SOL    HW227534   7.171   7.647   4.302  0.9530  0.3766 -2.0053
 7563SOL     OW27535   3.515   7.631   2.299  0.8133 -0.3035 -0.2080
 7563SOL    HW127536   3.458   7.694   2.342  0.9088 -0.7646  0.6084
 7563SOL    HW227537   3.599   7.639   2.343  1.4699  0.5048 -1.5332
 7564SOL     OW27538   8.355   9.177   6.216  0.0993 -0.3684 -0.7545
 7564SOL    HW127539   8.318   9.127   6.289  1.9861 -1.3900 -0.4360
 7564SOL    HW227540   8.399   9.251   6.257  0.5699 -0.5614 -0.9078
 7565SOL     OW27541   2.315   6.635   9.128  0.0525 -0.7866  0.0749
 7565SOL    HW127542   2.316   6.565   9.194 -1.2588 -1.5428 -0.6528
 7565SOL    HW227543   2.325   6.588   9.045 -3.1258 -0.4677 -0.6385
 7566SOL     OW27544   1.476   4.011   1.549 -0.0615  0.0081 -0.2840
 7566SOL    HW127545   1.516   3.959   1.618  1.3444  1.7721  0.3263
 7566SOL    HW227546   1.402   4.055   1.591 -0.2354 -0.2103 -0.3591
 7567SOL     OW27547   7.789   0.045   5.102 -0.3913  0.6192  0.0295
 7567SOL    HW127548   7.776   0.127   5.055 -0.9540  0.5118 -0.0052
 7567SOL    HW227549   7.843  -0.009   5.043 -0.2733  0.8480 -0.0718
 7568SOL     OW27550   8.492   7.241   2.190  0.1194 -0.4182 -0.0420
 7568SOL    HW127551   8.501   7.259   2.283  1.0377 -2.0700  0.2246
 7568SOL    HW227552   8.399   7.252   2.172  0.2116  1.7997  0.6157
 7569SOL     OW27553   6.454   2.290   5.901  0.5277  0.4324  0.2863
 7569SOL    HW127554   6.364   2.260   5.898  0.1418  1.3155 -4.1282
 7569SOL    HW227555   6.506   2.211   5.915 -0.8400 -0.6210 -0.3670
 7570SOL     OW27556   2.499   2.313   0.911 -0.4674  0.0357 -0.1263
 7570SOL    HW127557   2.584   2.280   0.942 -1.1715 -0.7347  1.0429
 7570SOL    HW227558   2.437   2.289   0.979 -1.9934 -1.1085 -1.8095
 7571SOL     OW27559   5.401   6.452   9.101  0.4071  0.0948  0.3401
 7571SOL    HW127560   5.434   6.394   9.170 -0.9401 -0.3926  0.5925
 7571SOL    HW227561   5.355   6.393   9.040  0.1826  0.7310 -0.1147
 7572SOL     OW27562   1.540   8.661   7.120 -0.4331  0.6318  0.0692
 7572SOL    HW127563   1.520   8.732   7.181 -3.6130 -0.2404  0.1764
 7572SOL    HW227564   1.534   8.582   7.173 -0.3425  0.0425 -0.7898
 7573SOL     OW27565   4.288   4.445   8.198 -0.2058  0.5126  0.3658
 7573SOL    HW127566   4.316   4.357   8.224  3.7691  1.9826  1.7799
 7573SOL    HW227567   4.271   4.490   8.280 -1.1117  1.3959 -0.2893
 7574SOL     OW27568   5.459   9.245   0.673 -0.6289  0.5125  0.0678
 7574SOL    HW127569   5.412   9.230   0.755 -1.4884 -2.8886 -0.8797
 7574SOL    HW227570   5.551   9.253   0.699 -0.9012 -0.4066  1.4109
 7575SOL     OW27571   2.759   6.225   6.267  0.0453 -0.3998 -0.4455
 7575SOL    HW127572   2.803   6.150   6.305  1.2243  0.0189 -0.9264
 7575SOL    HW227573   2.725   6.274   6.342  0.6993 -0.5563 -0.0404
 7576SOL     OW27574   6.278   3.555   3.038  0.2030  0.4513 -0.2301
 7576SOL    HW127575   6.367   3.526   3.059  0.5362  0.3315 -1.6922
 7576SOL    HW227576   6.290   3.617   2.966 -0.9612 -0.2477 -1.0480
 7577SOL     OW27577   2.639   7.417   4.307 -0.2905  0.7539 -0.3622
 7577SOL    HW127578   2.675   7.506   4.309  2.4613 -0.2175 -1.1755
 7577SOL    HW227579   2.598   7.409   4.221  1.2774  0.6638 -1.1423
 7578SOL     OW27580   8.833   8.288   7.278  0.0382 -0.4893 -0.2923
 7578SOL    HW127581   8.826   8.234   7.356 -1.8466 -0.9010 -0.7093
 7578SOL    HW227582   8.813   8.377   7.309 -0.4653 -0.6127 -0.2632
 7579SOL     OW27583   3.321   7.634   0.490 -0.2925 -0.8142 -0.5132
 7579SOL    HW127584   3.360   7.587   0.416 -0.5155 -0.8157 -0.6299
 7579SOL    HW227585   3.230   7.606   0.491 -0.3320 -0.6801 -0.3441
 7580SOL     OW27586   1.008   4.806   4.263 -0.1801 -0.2450  0.0784
 7580SOL    HW127587   1.060   4.726   4.267  0.1452 -0.0463 -0.1219
 7580SOL    HW227588   1.069   4.873   4.233 -0.3125  0.1945  0.7624
 7581SOL     OW27589   7.536   2.144   5.892  0.0348 -1.0658  0.4150
 7581SOL    HW127590   7.617   2.186   5.922 -1.4825  1.3758  1.3490
 7581SOL    HW227591   7.563   2.094   5.815  2.3419  0.0461  0.4009
 7582SOL     OW27592   2.903   1.277   4.284 -0.3639  0.2380  0.2709
 7582SOL    HW127593   2.903   1.182   4.274  0.0968  0.1987  0.5990
 7582SOL    HW227594   2.817   1.298   4.318 -0.7963  0.0357 -0.6766
 7583SOL     OW27595   2.703   5.618   7.093 -0.0038 -0.3882 -0.3299
 7583SOL    HW127596   2.710   5.667   7.174 -0.7491 -0.5873 -0.1388
 7583SOL    HW227597   2.610   5.596   7.085  0.5237 -3.4777  0.6087
 7584SOL     OW27598   7.783   3.532   0.909  0.5896  0.0590  0.1110
 7584SOL    HW127599   7.866   3.571   0.882  0.9243 -0.6791  0.0423
 7584SOL    HW227600   7.803   3.486   0.990  0.7511 -1.7704 -0.8963
 7585SOL     OW27601   3.493   4.707   7.207 -0.1817 -0.0241 -0.3593
 7585SOL    HW127602   3.456   4.619   7.217  0.5091 -0.2337  0.5479
 7585SOL    HW227603   3.458   4.739   7.124 -1.8177 -0.4665  0.1376
 7586SOL     OW27604   2.072   4.838   5.866 -0.3347  0.1026  0.1802
 7586SOL    HW127605   2.090   4.746   5.885 -1.3517 -0.5333 -1.7321
 7586SOL    HW227606   2.003   4.837   5.800 -0.8006  2.2633  0.5378
 7587SOL     OW27607   0.660   9.068   0.121 -0.0520 -0.2077  0.5487
 7587SOL    HW127608   0.654   8.975   0.098 -1.1724 -0.1146  0.4350
 7587SOL    HW227609   0.595   9.079   0.190  0.7062  0.3116  1.1969
 7588SOL     OW27610   4.244   3.826   0.793  0.1000 -0.2807 -0.4448
 7588SOL    HW127611   4.332   3.802   0.821  0.4275 -0.2564 -1.4228
 7588SOL    HW227612   4.190   3.750   0.817 -0.1683  0.6985  2.5203
 7589SOL     OW27613   7.479   1.530   7.947  0.4023  1.1392 -0.2296
 7589SOL    HW127614   7.492   1.482   7.865 -2.9693 -0.2309 -0.1228
 7589SOL    HW227615   7.439   1.612   7.919  0.6339  1.3277 -0.0148
 7590SOL     OW27616   6.061   6.274   2.004 -0.3426 -0.5710  0.1611
 7590SOL    HW127617   6.104   6.353   1.972 -1.9205  0.2775  0.0227
 7590SOL    HW227618   6.004   6.248   1.932  1.0957 -2.6289 -0.3132
 7591SOL     OW27619   3.962   5.994   1.666  0.7301  0.4149 -0.0238
 7591SOL    HW127620   3.963   6.006   1.571 -0.1327  2.7618  0.2072
 7591SOL    HW227621   3.887   5.937   1.682  0.1878  0.9374 -0.6631
 7592SOL     OW27622   9.650   8.362   1.611  0.4499  0.4741 -0.1597
 7592SOL    HW127623   9.626   8.314   1.690  0.0773  1.1082  0.1084
 7592SOL    HW227624   9.670   8.450   1.641  0.3877  0.6967 -0.7628
 7593SOL     OW27625   2.018   0.418   6.423 -0.8831  0.4000 -0.2330
 7593SOL    HW127626   2.101   0.436   6.466  0.2080  0.9367 -2.4435
 7593SOL    HW227627   1.962   0.491   6.448 -0.3403  0.6156  0.3816
 7594SOL     OW27628   7.024   2.921   9.242 -0.0153  0.4580 -0.1188
 7594SOL    HW127629   7.114   2.946   9.263 -0.8554  1.8610  2.2438
 7594SOL    HW227630   6.982   3.001   9.210 -0.2025 -0.4373 -2.2863
 7595SOL     OW27631   0.228   1.615   6.927 -0.8156  0.5379 -0.0283
 7595SOL    HW127632   0.173   1.563   6.869  1.5879 -1.2933 -0.8103
 7595SOL    HW227633   0.197   1.594   7.015 -1.4447 -0.3814 -0.4578
 7596SOL     OW27634   4.390   6.110   7.009  0.4109  0.6450 -0.1073
 7596SOL    HW127635   4.330   6.155   6.951 -0.4601  0.6134  0.7511
 7596SOL    HW227636   4.461   6.080   6.952  0.4234  2.0595 -0.8761
 7597SOL     OW27637   5.354   5.751   4.106  0.1750  0.0567  0.5668
 7597SOL    HW127638   5.378   5.830   4.058  2.0751 -0.9924 -0.3187
 7597SOL    HW227639   5.275   5.775   4.155 -1.0578  1.5987 -1.9958
 7598SOL     OW27640   8.852   2.845   2.230  0.4112  0.2398  0.5738
 7598SOL    HW127641   8.803   2.763   2.225 -2.9736  1.9431  1.9938
 7598SOL    HW227642   8.851   2.869   2.323  2.4837  1.2864  0.3893
 7599SOL     OW27643   6.746   7.005   3.464 -0.3104 -0.3586  0.3686
 7599SOL    HW127644   6.792   6.931   3.425 -0.9026 -0.8839  0.6535
 7599SOL    HW227645   6.764   7.078   3.405 -2.0773 -1.3518 -1.5621
 7600SOL     OW27646   2.930   3.696   0.828  0.1075 -0.3181 -0.1788
 7600SOL    HW127647   2.962   3.752   0.757  0.1612 -0.4943 -0.2948
 7600SOL    HW227648   2.996   3.627   0.835  1.0507  0.6862  1.2626
 7601SOL     OW27649   2.361   6.987   2.438  0.1175 -0.0411 -0.4166
 7601SOL    HW127650   2.447   6.994   2.397  0.3836  0.3876  0.1925
 7601SOL    HW227651   2.374   6.930   2.513  0.0355  0.5810  0.0824
 7602SOL     OW27652   2.920   5.555   0.163  0.1637  0.0734  0.4078
 7602SOL    HW127653   3.003   5.533   0.206  0.9575  1.3327 -0.4056
 7602SOL    HW227654   2.924   5.650   0.150 -1.7676  0.3002  1.0662
 7603SOL     OW27655   3.537   3.638   7.891  0.5311  0.2947  0.2472
 7603SOL    HW127656   3.625   3.625   7.857  0.6382 -1.3858  1.0616
 7603SOL    HW227657   3.480   3.626   7.815  0.9888  2.1327 -0.4432
 7604SOL     OW27658   5.685   4.546   5.429 -0.2172 -0.3872 -0.2067
 7604SOL    HW127659   5.613   4.609   5.432  0.0045 -0.1425 -0.0084
 7604SOL    HW227660   5.759   4.596   5.396  0.1191 -0.3874  0.5400
 7605SOL     OW27661   1.300   1.696   2.183  0.1689  0.0687 -0.1090
 7605SOL    HW127662   1.315   1.789   2.201 -0.0011  0.0070  0.3466
 7605SOL    HW227663   1.387   1.657   2.184  0.3256  0.3541 -1.0742
 7606SOL     OW27664   8.980   5.348   9.095 -0.0297  0.2006 -0.0719
 7606SOL    HW127665   9.069   5.331   9.064 -0.3079 -0.5133 -0.4813
 7606SOL    HW227666   8.985   5.335   9.190  0.2826  0.1017 -0.0998
 7607SOL     OW27667   7.126   3.110   0.053  0.2625  0.3077 -0.0350
 7607SOL    HW127668   7.057   3.175   0.062 -0.8112 -0.6640 -0.8113
 7607SOL    HW227669   7.167   3.105   0.139  2.3198  3.9892 -0.6097
 7608SOL     OW27670   5.270   6.234   7.209 -0.1263 -0.2619 -0.5520
 7608SOL    HW127671   5.349   6.218   7.158  1.2536 -0.4507  1.5605
 7608SOL    HW227672   5.283   6.321   7.247  1.1138 -1.8672  3.1583
 7609SOL     OW27673   0.263   6.142   5.078  0.3813  0.0425 -0.7300
 7609SOL    HW127674   0.351   6.150   5.112  0.3428  0.0861 -0.6407
 7609SOL    HW227675   0.240   6.231   5.051 -0.0944  0.2694  0.3734
 7610SOL     OW27676   0.918   8.925   1.502 -0.3679 -0.1106 -0.6242
 7610SOL    HW127677   0.925   8.897   1.593 -2.3046  2.1646  0.3261
 7610SOL    HW227678   1.005   8.908   1.465  1.1776  0.8879  2.2754
 7611SOL     OW27679   0.805   9.436   0.150 -0.1255  0.6880  0.1286
 7611SOL    HW127680   0.745   9.472   0.084 -1.3467 -2.1001 -0.4161
 7611SOL    HW227681   0.849   9.513   0.186 -0.9669  2.5163 -2.4188
 7612SOL     OW27682   6.221   1.536   4.524 -0.2198  0.1235  0.2580
 7612SOL    HW127683   6.265   1.480   4.589 -1.9944 -0.5139  0.9780
 7612SOL    HW227684   6.166   1.594   4.577 -1.4109 -0.1420 -0.6758
 7613SOL     OW27685   8.655   3.451   4.844  0.2384 -0.2055 -0.8033
 7613SOL    HW127686   8.644   3.407   4.760 -0.5922 -0.0273 -0.7974
 7613SOL    HW227687   8.628   3.542   4.827  0.5199 -0.0548 -0.4592
 7614SOL     OW27688   6.310   6.631   1.498 -0.1585 -0.0140 -0.2274
 7614SOL    HW127689   6.370   6.567   1.461 -0.8547 -0.8487  0.0564
 7614SOL    HW227690   6.365   6.689   1.550  0.4863 -0.3766 -0.5056
 7615SOL     OW27691   0.194   0.462   6.749 -0.7441  0.1133 -0.0808
 7615SOL    HW127692   0.230   0.415   6.824 -0.1265  1.7878  0.7082
 7615SOL    HW227693   0.265   0.518   6.719 -0.6430 -1.1981 -2.5802
 7616SOL     OW27694   6.878   3.007   2.622 -0.1863 -0.5211 -0.1008
 7616SOL    HW127695   6.861   3.077   2.685 -0.5570 -0.5205 -0.2022
 7616SOL    HW227696   6.791   2.981   2.591  0.0381  0.2963 -1.5098
 7617SOL     OW27697   7.267   6.823   2.584  0.6368  1.0909  0.1331
 7617SOL    HW127698   7.308   6.820   2.670 -0.1355  0.8014  0.4921
 7617SOL    HW227699   7.180   6.858   2.599 -0.0755 -0.4015 -0.3000
 7618SOL     OW27700   4.882   8.391   8.737  0.2111 -0.5554  1.0023
 7618SOL    HW127701   4.862   8.481   8.762 -0.7004 -0.9267  1.6774
 7618SOL    HW227702   4.954   8.398   8.674  0.5441  0.5991  1.4932
 7619SOL     OW27703   2.495   2.386   2.334 -0.3588 -0.9905  0.2212
 7619SOL    HW127704   2.542   2.304   2.317  0.5216 -0.1292 -1.9950
 7619SOL    HW227705   2.527   2.414   2.420  1.2701 -1.7274 -0.0917
 7620SOL     OW27706   1.205   1.811   4.203  0.6943  0.1998 -0.3723
 7620SOL    HW127707   1.296   1.840   4.194  0.0878  1.7774 -2.0610
 7620SOL    HW227708   1.209   1.716   4.196  2.2881  0.2043  0.2901
 7621SOL     OW27709   5.658   6.725   4.663  0.0929  0.0725  0.2122
 7621SOL    HW127710   5.753   6.732   4.660 -0.0093  1.9984  0.2993
 7621SOL    HW227711   5.639   6.637   4.631  1.8886 -0.2803  0.0455
 7622SOL     OW27712   2.528   6.523   5.016  0.0251 -0.3836  0.0042
 7622SOL    HW127713   2.615   6.495   5.043 -0.2560 -1.3487 -0.0229
 7622SOL    HW227714   2.514   6.606   5.060  1.8445  0.9397 -1.7524
 7623SOL     OW27715   7.025   5.340   4.242 -0.2498 -0.7430 -0.6241
 7623SOL    HW127716   7.056   5.320   4.330  2.2203  2.7981 -0.4693
 7623SOL    HW227717   6.930   5.333   4.248 -0.1127 -1.5590  2.0383
 7624SOL     OW27718   0.846   1.292   3.342  0.1077  0.1186 -0.4366
 7624SOL    HW127719   0.898   1.346   3.282 -1.4746  0.0483 -1.9598
 7624SOL    HW227720   0.882   1.204   3.332  0.7587  0.3531 -0.2099
 7625SOL     OW27721   4.387   7.853   7.376  0.4927 -0.9085  0.4332
 7625SOL    HW127722   4.385   7.849   7.280 -0.6998 -1.3613  0.4665
 7625SOL    HW227723   4.299   7.880   7.401  0.0884 -3.0228  1.4853
 7626SOL     OW27724   7.715   7.426   6.660 -0.0915 -0.1979 -0.6859
 7626SOL    HW127725   7.669   7.374   6.726 -0.3433  1.1920  0.2854
 7626SOL    HW227726   7.753   7.361   6.601  1.5914 -1.6131  1.7512
 7627SOL     OW27727   5.761   1.438   1.177  0.3353 -0.3225  0.1843
 7627SOL    HW127728   5.687   1.405   1.126 -0.7020  1.7938  0.2282
 7627SOL    HW227729   5.789   1.516   1.130  0.6018  0.5904  1.8080
 7628SOL     OW27730   5.412   1.613   9.085  0.2243  0.8303 -0.2066
 7628SOL    HW127731   5.351   1.555   9.040 -0.1579 -0.5067  1.8790
 7628SOL    HW227732   5.498   1.590   9.051 -0.0837  0.1053 -0.5008
 7629SOL     OW27733   2.661   3.962   9.458  0.9169 -1.2983  0.3054
 7629SOL    HW127734   2.627   3.999   9.540 -0.9792 -0.3791 -0.8187
 7629SOL    HW227735   2.585   3.923   9.415  1.7078 -1.1333 -1.3476
 7630SOL     OW27736   8.624   2.867   8.328  0.4534 -0.0458 -0.4511
 7630SOL    HW127737   8.666   2.940   8.282 -0.9421  2.9080  2.5626
 7630SOL    HW227738   8.695   2.824   8.376  1.4188 -1.3524 -2.8613
 7631SOL     OW27739   9.248   5.469   0.530  0.0597  0.3141 -0.1852
 7631SOL    HW127740   9.269   5.379   0.553 -0.1230  0.5198  0.8353
 7631SOL    HW227741   9.229   5.466   0.436 -0.9930 -0.9066  0.0291
 7632SOL     OW27742   0.668   3.970   8.259 -0.6425 -0.0140  0.2637
 7632SOL    HW127743   0.629   4.019   8.331 -0.0040  0.8028  0.0673
 7632SOL    HW227744   0.611   3.894   8.248 -0.9872  0.0798  1.3379
 7633SOL     OW27745   8.621   9.026   7.205 -0.3006  0.8200 -0.0227
 7633SOL    HW127746   8.686   9.095   7.194  0.1102  0.3059 -0.9672
 7633SOL    HW227747   8.604   8.994   7.117  1.2710 -1.8538  0.5094
 7634SOL     OW27748   7.314   2.022   6.002  0.5210 -0.8263  0.0918
 7634SOL    HW127749   7.365   2.077   6.061 -1.9232  1.9118 -0.1341
 7634SOL    HW227750   7.347   2.043   5.915 -2.8111  3.6576 -0.4641
 7635SOL     OW27751   6.883   0.838   1.268  0.5156  1.1190  0.3555
 7635SOL    HW127752   6.847   0.753   1.289  1.2830  0.5716 -0.4545
 7635SOL    HW227753   6.844   0.862   1.184  1.6175  0.7338 -0.2969
 7636SOL     OW27754   0.923   6.240   1.497  0.4599  0.3032 -0.4383
 7636SOL    HW127755   0.832   6.211   1.489  0.4025  0.4405 -0.2866
 7636SOL    HW227756   0.974   6.159   1.492  0.4240  0.3318 -1.9025
 7637SOL     OW27757   9.252   0.837   9.694 -0.6083  0.1836  0.1495
 7637SOL    HW127758   9.207   0.891   9.629 -1.8550 -1.2953 -0.2587
 7637SOL    HW227759   9.215   0.865   9.778  0.1600  1.2789  0.1472
 7638SOL     OW27760   7.011   2.027   9.367  0.0940 -0.5009  0.0375
 7638SOL    HW127761   6.992   2.057   9.456  1.5549 -1.6568  0.7963
 7638SOL    HW227762   7.090   1.973   9.377  1.3958  0.8242 -2.2447
 7639SOL     OW27763   5.666   6.588   8.033 -0.3251 -0.5589 -0.4185
 7639SOL    HW127764   5.734   6.654   8.043 -0.2891 -0.5154 -0.9709
 7639SOL    HW227765   5.629   6.579   8.121 -0.0480 -0.1129 -0.2537
 7640SOL     OW27766   1.790   9.446   8.128 -0.0614 -0.2237 -0.1156
 7640SOL    HW127767   1.860   9.382   8.118  0.6622  0.2423  1.5062
 7640SOL    HW227768   1.722   9.399   8.175  0.2287  0.0074  0.5532
 7641SOL     OW27769   9.257   4.334   1.794 -0.2854 -0.2691  0.5690
 7641SOL    HW127770   9.305   4.314   1.714 -0.3379 -0.4330  0.5781
 7641SOL    HW227771   9.322   4.325   1.863 -0.5886 -1.6417  0.7083
 7642SOL     OW27772   2.879   1.695   8.041  0.0772 -0.0228  0.1928
 7642SOL    HW127773   2.900   1.605   8.016  1.2424 -0.0206  1.0880
 7642SOL    HW227774   2.960   1.729   8.079 -0.5775  1.1556  0.5904
 7643SOL     OW27775   3.843   7.857   3.914 -0.2648 -0.5476  0.5921
 7643SOL    HW127776   3.933   7.882   3.891  0.0368  0.7729  2.8955
 7643SOL    HW227777   3.852   7.772   3.957 -0.5788 -1.9720 -1.9573
 7644SOL     OW27778   6.874   4.395   6.824  0.7738 -0.6438 -0.0779
 7644SOL    HW127779   6.845   4.484   6.841  0.0360 -1.1874  1.7079
 7644SOL    HW227780   6.918   4.400   6.739 -0.9339  1.0226 -0.9273
 7645SOL     OW27781   1.633   0.475   0.803  0.5526 -0.3418  0.0905
 7645SOL    HW127782   1.643   0.473   0.898  0.1236 -0.0477  0.1417
 7645SOL    HW227783   1.723   0.476   0.770  0.7036  0.2958  0.5114
 7646SOL     OW27784   3.895   8.811   0.213 -0.3111 -0.5935 -0.0566
 7646SOL    HW127785   3.816   8.855   0.181 -0.3827 -0.9700 -0.4075
 7646SOL    HW227786   3.875   8.718   0.205 -0.1823 -0.6967  0.7339
 7647SOL     OW27787   2.633   8.721   4.451  0.5236  0.1916  0.2499
 7647SOL    HW127788   2.586   8.802   4.470 -1.0853 -0.7342  0.4275
 7647SOL    HW227789   2.635   8.674   4.534  0.5408 -0.3902 -0.0733
 7648SOL     OW27790   1.303   7.264   5.226 -0.4471 -0.3931 -0.0290
 7648SOL    HW127791   1.224   7.318   5.226 -0.1193  0.2457 -2.5712
 7648SOL    HW227792   1.300   7.217   5.142  1.6872 -0.5727 -0.0637
 7649SOL     OW27793   9.144   5.319   1.299  0.1236  0.2083  0.8733
 7649SOL    HW127794   9.158   5.247   1.360 -3.3205 -0.4989  1.0483
 7649SOL    HW227795   9.180   5.288   1.216 -0.5002 -1.3747  1.1632
 7650SOL     OW27796   6.768   3.721   1.950 -0.0421 -0.2587 -0.2807
 7650SOL    HW127797   6.741   3.811   1.929  0.5065 -0.3716 -1.5338
 7650SOL    HW227798   6.736   3.708   2.039  0.4658  1.4165  0.1942
 7651SOL     OW27799   0.373   1.380   4.575 -0.2320  0.6194  0.3806
 7651SOL    HW127800   0.462   1.370   4.541 -0.0542 -1.2624  1.2761
 7651SOL    HW227801   0.316   1.370   4.499  0.3002  1.6173 -0.1621
 7652SOL     OW27802   2.809   4.139   8.498  0.1428 -0.3337 -0.6680
 7652SOL    HW127803   2.812   4.046   8.472 -1.3877 -0.1514 -1.6261
 7652SOL    HW227804   2.778   4.184   8.420  0.2109  0.9163  0.0064
 7653SOL     OW27805   1.345   3.836   2.399 -0.1936 -0.3027  0.2077
 7653SOL    HW127806   1.436   3.807   2.390 -0.1071  0.2481 -0.8196
 7653SOL    HW227807   1.352   3.928   2.427 -0.3798  0.3024 -1.5777
 7654SOL     OW27808   5.842   1.513   3.147 -0.1294 -0.4404 -0.3756
 7654SOL    HW127809   5.930   1.550   3.155 -0.0856 -0.5413 -0.3872
 7654SOL    HW227810   5.783   1.586   3.165 -0.0410 -0.4168 -0.1835
 7655SOL     OW27811   3.769   3.356   8.702  0.1941 -0.1172  0.2837
 7655SOL    HW127812   3.709   3.423   8.669  0.6828 -0.7648 -2.0847
 7655SOL    HW227813   3.853   3.377   8.663  0.6943 -1.2573  0.7098
 7656SOL     OW27814   3.372   6.211   7.488 -0.0661 -0.0753  0.2948
 7656SOL    HW127815   3.366   6.229   7.395 -1.3549 -1.1971  0.1283
 7656SOL    HW227816   3.381   6.297   7.529 -1.3774  0.6001 -0.7461
 7657SOL     OW27817   9.520   9.613   7.266 -0.6865  0.4340 -0.5534
 7657SOL    HW127818   9.523   9.527   7.308  1.2926  0.9397  0.4894
 7657SOL    HW227819   9.451   9.660   7.312  0.1274  0.3113  0.8514
 7658SOL     OW27820   2.049   9.496   2.555 -0.0463 -0.2864  0.2427
 7658SOL    HW127821   2.128   9.441   2.558 -0.4340 -0.8383  0.5499
 7658SOL    HW227822   2.010   9.486   2.642 -0.5194 -0.1103  0.0528
 7659SOL     OW27823   5.361   5.258   5.919  0.1179 -0.4189 -0.0357
 7659SOL    HW127824   5.412   5.320   5.868  0.7395 -2.0151 -1.4760
 7659SOL    HW227825   5.315   5.311   5.984  0.2228  1.5719 -1.5103
 7660SOL     OW27826   2.306   0.949   1.282 -0.3771 -0.5388  0.5060
 7660SOL    HW127827   2.213   0.973   1.284  0.2218  1.9846  1.2749
 7660SOL    HW227828   2.332   0.964   1.191  0.0714  2.5590  1.0227
 7661SOL     OW27829   2.414   1.804   6.850 -0.0552 -0.6567 -0.1063
 7661SOL    HW127830   2.387   1.879   6.798  1.1099 -0.8514 -1.0491
 7661SOL    HW227831   2.334   1.752   6.861 -0.2873 -0.7889 -2.0361
 7662SOL     OW27832   1.356   7.153   9.588  0.1417  0.4689  0.0336
 7662SOL    HW127833   1.333   7.095   9.515 -0.7685 -0.6811  1.1842
 7662SOL    HW227834   1.447   7.130   9.608  0.1191  0.1696 -0.1913
 7663SOL     OW27835   5.562   5.840   5.049  0.3298 -0.2438 -0.5398
 7663SOL    HW127836   5.599   5.908   5.105  1.6108 -1.2103 -0.1616
 7663SOL    HW227837   5.585   5.758   5.092 -1.5966 -0.9471 -0.7260
 7664SOL     OW27838   6.888   1.302   6.917 -0.3096  0.0563  0.1939
 7664SOL    HW127839   6.931   1.385   6.940  0.3718 -0.6110  1.3687
 7664SOL    HW227840   6.907   1.243   6.989 -0.9243 -1.1008 -0.5515
 7665SOL     OW27841   2.213   6.904   9.062 -0.1352 -0.6765  1.3012
 7665SOL    HW127842   2.182   6.983   9.106 -0.3810 -0.6917  1.1559
 7665SOL    HW227843   2.180   6.832   9.117 -2.3991 -0.7995 -0.0781
 7666SOL     OW27844   3.711   1.733   5.186 -0.1789  0.3772 -0.2517
 7666SOL    HW127845   3.654   1.801   5.223 -1.0419 -0.7156  0.4956
 7666SOL    HW227846   3.673   1.715   5.100 -0.3869  0.3353 -0.1523
 7667SOL     OW27847   7.057   6.641   2.791  0.3081  0.3273 -0.4506
 7667SOL    HW127848   7.072   6.571   2.727  1.3769  0.3897 -0.2929
 7667SOL    HW227849   6.962   6.649   2.796  0.1857  0.8707 -2.6388
 7668SOL     OW27850   5.401   2.526   7.404  0.5031  0.0352  0.1022
 7668SOL    HW127851   5.364   2.458   7.348  1.1251 -1.8151  1.8604
 7668SOL    HW227852   5.479   2.556   7.356 -0.3916  0.3465 -1.2064
 7669SOL     OW27853   2.698   5.437   0.110  0.4005 -0.5368  0.4698
 7669SOL    HW127854   2.767   5.489   0.152  1.4659 -1.6745  0.1980
 7669SOL    HW227855   2.728   5.347   0.119 -0.4257 -0.9577 -0.8254
 7670SOL     OW27856   3.529   5.536   5.422 -0.5185  0.7807  0.3275
 7670SOL    HW127857   3.575   5.456   5.395 -1.6429  0.1670  0.1665
 7670SOL    HW227858   3.529   5.591   5.344 -0.4918  0.5674  0.1757
 7671SOL     OW27859   4.274   5.327   4.765  0.4033 -0.0646  0.2802
 7671SOL    HW127860   4.320   5.284   4.838 -1.6504  0.1417  1.7846
 7671SOL    HW227861   4.182   5.308   4.781 -0.1287  0.1496 -2.2142
 7672SOL     OW27862   6.372   5.442   8.218 -0.2021  0.1864 -0.0479
 7672SOL    HW127863   6.400   5.440   8.126  1.9362  1.7816  0.4939
 7672SOL    HW227864   6.388   5.354   8.250  2.2588  0.4531 -0.3794
 7673SOL     OW27865   5.487   2.609   3.157 -0.0840 -0.6457  0.1339
 7673SOL    HW127866   5.581   2.612   3.178  0.2193 -0.0731 -1.1931
 7673SOL    HW227867   5.444   2.639   3.237  0.8768 -0.7497  0.7079
 7674SOL     OW27868   5.783   5.591   1.527  0.1968  0.2453 -0.7256
 7674SOL    HW127869   5.690   5.606   1.542  0.6791  3.1525  0.0439
 7674SOL    HW227870   5.802   5.640   1.446  1.0903 -0.1372 -0.7567
 7675SOL     OW27871   6.257   7.465   5.698 -0.2073 -0.3830  0.2401
 7675SOL    HW127872   6.257   7.561   5.696 -2.2039 -0.3475 -2.3035
 7675SOL    HW227873   6.319   7.439   5.630 -1.3592 -0.8163 -0.6785
 7676SOL     OW27874   6.191   6.100   0.245  0.3912  0.1240  0.2117
 7676SOL    HW127875   6.157   6.150   0.171  2.2388 -1.8006 -2.1264
 7676SOL    HW227876   6.248   6.161   0.291 -2.0147  1.8350  1.1357
 7677SOL     OW27877   4.178   9.742   9.365  0.4221 -0.1637 -0.1430
 7677SOL    HW127878   4.135   9.661   9.339  0.2931  0.0050 -0.4655
 7677SOL    HW227879   4.130   9.772   9.442 -0.6753  0.5366 -1.0777
 7678SOL     OW27880   3.779   6.249   6.173  0.0277  0.4003  0.2351
 7678SOL    HW127881   3.710   6.254   6.240 -0.0035  0.0622  0.2290
 7678SOL    HW227882   3.807   6.340   6.161 -1.8268  0.8543 -1.2191
 7679SOL     OW27883   3.553   4.729   2.744  0.2265 -0.2709 -0.4867
 7679SOL    HW127884   3.553   4.801   2.808 -0.4806 -0.8989  0.2499
 7679SOL    HW227885   3.500   4.762   2.671 -1.6474 -0.6589  0.6233
 7680SOL     OW27886   1.346   8.656   9.443 -0.1877  0.7330  0.1905
 7680SOL    HW127887   1.300   8.726   9.489 -0.6801  0.7341 -0.2900
 7680SOL    HW227888   1.284   8.583   9.443  0.5884  0.0427  1.3169
 7681SOL     OW27889   4.808   9.534   8.217  0.0751  0.4615  0.6180
 7681SOL    HW127890   4.814   9.448   8.174 -0.4210 -0.0701  1.5873
 7681SOL    HW227891   4.891   9.544   8.262 -0.7248 -0.6114  2.4649
 7682SOL     OW27892   4.416   3.974   9.671  0.1747 -0.5920  0.2340
 7682SOL    HW127893   4.417   4.049   9.612  0.8246 -0.6081  0.2172
 7682SOL    HW227894   4.478   3.912   9.632  0.2622 -0.7904  0.6851
 7683SOL     OW27895   8.699   8.040   8.177 -0.1793 -0.0596 -0.4094
 7683SOL    HW127896   8.637   8.100   8.216 -1.4825 -3.0868  2.6336
 7683SOL    HW227897   8.782   8.057   8.222 -0.5025 -0.3536  0.3156
 7684SOL     OW27898   0.331   0.441   1.269  0.0294  0.0410 -0.4735
 7684SOL    HW127899   0.246   0.463   1.230  0.8931  0.7861 -2.0495
 7684SOL    HW227900   0.372   0.526   1.285  0.7665 -0.3174 -0.4361
 7685SOL     OW27901   1.197   0.188   2.252 -0.1785 -0.3684  0.3192
 7685SOL    HW127902   1.238   0.164   2.169 -0.0157  1.5400 -0.1988
 7685SOL    HW227903   1.259   0.159   2.319  2.3498  2.7857 -0.4492
 7686SOL     OW27904   2.757   6.466   9.734 -0.3636  0.1172 -0.2326
 7686SOL    HW127905   2.791   6.377   9.736  0.4208  0.4209  0.4383
 7686SOL    HW227906   2.665   6.456   9.708  0.2308 -0.7158 -2.1748
 7687SOL     OW27907   3.088   9.072   3.003  0.2340  0.1933 -0.0312
 7687SOL    HW127908   3.052   9.042   3.086  0.4873  1.0978  0.4207
 7687SOL    HW227909   3.019   9.054   2.939  0.2419 -0.9884  0.2728
 7688SOL     OW27910   1.564   0.734   0.075 -0.7397  0.4080  0.5517
 7688SOL    HW127911   1.645   0.690   0.097 -0.1584  1.7396  1.1994
 7688SOL    HW227912   1.501   0.704   0.141 -0.7755 -0.6074  0.0611
 7689SOL     OW27913   3.810   3.687   5.576 -0.1699 -0.0628  0.6097
 7689SOL    HW127914   3.752   3.676   5.500 -1.1099  0.9346  1.1558
 7689SOL    HW227915   3.752   3.678   5.651  0.6479 -0.4282  1.2039
 7690SOL     OW27916   6.778   3.100   8.744  0.5604  0.2064  0.3573
 7690SOL    HW127917   6.856   3.154   8.726 -0.1376  1.6200  1.3566
 7690SOL    HW227918   6.758   3.058   8.661  1.9893  0.3659 -0.0891
 7691SOL     OW27919   9.478   9.587   1.018  0.0257 -0.1198  0.5545
 7691SOL    HW127920   9.471   9.491   1.012 -1.1585 -0.0139 -0.2129
 7691SOL    HW227921   9.387   9.616   1.030  0.4163  0.8914  1.1325
 7692SOL     OW27922   0.212   3.492   0.811 -0.2474  0.8872 -0.0216
 7692SOL    HW127923   0.233   3.544   0.888  1.8094 -0.5112  0.4367
 7692SOL    HW227924   0.122   3.517   0.789 -0.0163  3.1449  1.3078
 7693SOL     OW27925   5.706   7.463   5.339  0.1831 -0.8143  0.1923
 7693SOL    HW127926   5.793   7.442   5.304 -0.0490 -0.5550 -0.5558
 7693SOL    HW227927   5.645   7.417   5.283 -0.3457  1.7970 -1.5706
 7694SOL     OW27928   8.310   1.526   7.610 -0.1726 -0.0333 -0.5005
 7694SOL    HW127929   8.237   1.505   7.552  0.3259 -3.2092 -0.1820
 7694SOL    HW227930   8.388   1.504   7.559  0.5052  1.4841 -0.1649
 7695SOL     OW27931   6.315   8.419   4.717  0.4346 -0.4763 -0.3600
 7695SOL    HW127932   6.287   8.375   4.636 -1.9395  2.3139 -1.1996
 7695SOL    HW227933   6.307   8.351   4.784 -1.3230 -1.8559 -1.8449
 7696SOL     OW27934   0.606   8.582   8.828  0.8925 -0.6653  0.4725
 7696SOL    HW127935   0.663   8.621   8.894 -0.4436 -0.6175  1.6411
 7696SOL    HW227936   0.523   8.629   8.837  0.2435 -1.6265 -0.2662
 7697SOL     OW27937   4.739   3.345   1.265 -0.0471 -0.1218  0.1021
 7697SOL    HW127938   4.644   3.336   1.269 -0.1560  1.2107  1.5191
 7697SOL    HW227939   4.756   3.373   1.175 -1.1327  0.7361  0.1407
 7698SOL     OW27940   5.618   9.623   0.049 -0.0967 -0.3231 -0.3051
 7698SOL    HW127941   5.707   9.628   0.015  0.0933  1.6173  0.3620
 7698SOL    HW227942   5.627   9.633   0.143 -1.0539  0.7271 -0.3018
 7699SOL     OW27943   7.337   2.525   7.816  0.0528  0.0537 -0.0233
 7699SOL    HW127944   7.257   2.511   7.765  0.6813 -2.5617 -0.4458
 7699SOL    HW227945   7.325   2.470   7.893  1.5383 -0.6106 -0.2399
 7700SOL     OW27946   0.572   3.678   4.068  0.1250  0.1325  0.8426
 7700SOL    HW127947   0.644   3.689   4.007 -0.9778  3.3958 -0.0783
 7700SOL    HW227948   0.580   3.751   4.129 -2.4256  0.7581  0.5754
 7701SOL     OW27949   1.011   0.623   8.167  0.0287 -0.1748  0.2276
 7701SOL    HW127950   1.038   0.567   8.240  0.2938 -0.2904  0.0455
 7701SOL    HW227951   1.037   0.711   8.194  1.0424 -0.3446 -0.1429
 7702SOL     OW27952   5.574   2.270   7.613 -0.5153 -0.4908 -0.0505
 7702SOL    HW127953   5.487   2.229   7.616 -0.6099 -0.3515 -0.7089
 7702SOL    HW227954   5.562   2.355   7.655 -0.5429 -0.7381  0.4470
 7703SOL     OW27955   1.429   0.456   5.909  0.2282  1.0094  0.3942
 7703SOL    HW127956   1.345   0.462   5.863  0.0624  1.0445  0.7017
 7703SOL    HW227957   1.407   0.419   5.994  0.7207 -0.4132 -0.0656
 7704SOL     OW27958   8.503   2.854   5.172 -0.2130 -0.0696 -0.8732
 7704SOL    HW127959   8.535   2.827   5.258  0.0813 -1.3165 -1.3446
 7704SOL    HW227960   8.413   2.882   5.187  0.7345  2.6558  0.3312
 7705SOL     OW27961   3.897   9.301   7.698  0.1083  0.0249 -0.0303
 7705SOL    HW127962   3.804   9.326   7.695  0.3605  0.9313 -0.8379
 7705SOL    HW227963   3.931   9.323   7.611  0.9981 -0.6508  0.1326
 7706SOL     OW27964   6.939   3.539   3.346 -0.1575 -0.5465  0.0558
 7706SOL    HW127965   6.929   3.568   3.436  1.4124 -2.0150  0.7322
 7706SOL    HW227966   6.997   3.604   3.306 -1.6804  0.6987 -0.2567
 7707SOL     OW27967   2.846   8.261   7.878  0.5568  0.5477  0.5370
 7707SOL    HW127968   2.886   8.332   7.928  1.1078  0.3162  0.4348
 7707SOL    HW227969   2.917   8.228   7.822  0.4684 -0.4664  1.0063
 7708SOL     OW27970   1.077   6.760   4.083  0.2482  0.1408 -0.0095
 7708SOL    HW127971   1.115   6.744   4.169 -0.5675  2.9069  0.9818
 7708SOL    HW227972   1.081   6.855   4.073 -1.2357  0.0424 -2.3016
 7709SOL     OW27973   4.683   4.658   1.108  0.5483 -0.2874 -0.3046
 7709SOL    HW127974   4.691   4.749   1.079 -1.4372  0.2587  0.6921
 7709SOL    HW227975   4.708   4.660   1.200 -0.8633 -0.4394  0.1035
 7710SOL     OW27976   7.470   4.446   4.230  0.1216  1.1355 -0.2774
 7710SOL    HW127977   7.478   4.386   4.156 -1.9269  0.5019 -0.0477
 7710SOL    HW227978   7.491   4.532   4.193  2.7174  0.4039 -0.7043
 7711SOL     OW27979   2.216   1.327   0.479 -0.3670  0.4049 -0.0027
 7711SOL    HW127980   2.280   1.307   0.410 -0.1718  0.2428  0.2222
 7711SOL    HW227981   2.131   1.325   0.435 -0.2288  0.4449 -0.2680
 7712SOL     OW27982   2.471   2.841   7.582  0.5125  0.2387 -0.0969
 7712SOL    HW127983   2.432   2.926   7.600  0.3377 -0.0030  0.7297
 7712SOL    HW227984   2.411   2.800   7.520  0.1460  0.3901  0.1515
 7713SOL     OW27985   5.746   7.554   3.399  0.6439  0.2265 -0.3947
 7713SOL    HW127986   5.739   7.640   3.441  1.4897  0.1275 -0.0245
 7713SOL    HW227987   5.821   7.563   3.340  0.4322 -0.1132 -0.7199
 7714SOL     OW27988   6.232   6.130   2.466 -0.8326 -0.4138  0.1918
 7714SOL    HW127989   6.204   6.178   2.388 -1.1567 -3.1377 -1.4949
 7714SOL    HW227990   6.156   6.075   2.488  0.1488 -1.5414  0.8654
 7715SOL     OW27991   1.520   7.098   3.001  0.2848  0.0958  0.1363
 7715SOL    HW127992   1.535   7.059   2.915 -0.4054 -0.8260  0.4173
 7715SOL    HW227993   1.427   7.084   3.018 -0.1989  2.5475 -0.0647
 7716SOL     OW27994   2.641   1.243   1.451  0.0680  0.2631  0.6244
 7716SOL    HW127995   2.726   1.229   1.492  0.7463  1.3479 -0.3321
 7716SOL    HW227996   2.652   1.209   1.362 -1.0971 -1.2576  1.0311
 7717SOL     OW27997   1.114   8.277   7.864  0.3602 -0.0396  0.0636
 7717SOL    HW127998   1.189   8.237   7.909 -0.7489 -3.0381 -0.5227
 7717SOL    HW227999   1.139   8.278   7.772 -0.3429 -1.2977 -0.1684
 7718SOL     OW28000   1.931   3.183   1.069  0.3934 -0.0953  0.1103
 7718SOL    HW128001   1.996   3.221   1.009 -0.5715  0.5075 -0.5735
 7718SOL    HW228002   1.916   3.095   1.035  0.0395  0.1546 -0.3967
 7719SOL     OW28003   2.888   1.454   3.341 -0.1147  0.0064  0.4300
 7719SOL    HW128004   2.919   1.468   3.252  0.2046  1.4171  0.7421
 7719SOL    HW228005   2.866   1.541   3.373 -0.4655 -0.5072  1.6530
 7720SOL     OW28006   3.280   4.985   1.909 -0.3483 -0.2148  0.0573
 7720SOL    HW128007   3.255   5.066   1.865  0.8557  0.3444  0.3573
 7720SOL    HW228008   3.269   5.004   2.002 -0.3786 -0.5059  0.1136
 7721SOL     OW28009   8.677   1.522   0.930  0.2658  0.1724 -0.3860
 7721SOL    HW128010   8.658   1.456   0.863 -0.2394 -0.5194  0.4206
 7721SOL    HW228011   8.629   1.492   1.007 -1.5603  2.4519 -0.5127
 7722SOL     OW28012   0.930   2.559   6.318 -0.5162  0.2501 -0.4966
 7722SOL    HW128013   0.880   2.570   6.399  1.1760 -0.1025  0.6356
 7722SOL    HW228014   0.933   2.647   6.280 -1.2634  0.4339 -0.1597
 7723SOL     OW28015   3.033   1.889   8.655  0.0306 -0.1116  0.0728
 7723SOL    HW128016   2.952   1.916   8.698  0.1588 -0.2319  0.3945
 7723SOL    HW228017   3.101   1.902   8.721  0.4741  1.1942 -0.6007
 7724SOL     OW28018   0.110   8.946   6.805 -0.3485  0.0323  0.0897
 7724SOL    HW128019   0.139   8.946   6.714  0.3408  0.2073  0.3029
 7724SOL    HW228020   0.095   8.854   6.825 -0.9887  0.0377 -0.3494
 7725SOL     OW28021   8.826   5.326   4.989 -0.2536 -1.0632  0.0906
 7725SOL    HW128022   8.830   5.392   4.920 -1.3674  0.4155  1.3718
 7725SOL    HW228023   8.784   5.250   4.947 -1.9378  0.1892 -0.6233
 7726SOL     OW28024   1.518   0.153   7.072 -0.6217 -0.4348 -0.5650
 7726SOL    HW128025   1.583   0.088   7.100 -1.4117 -0.5985  0.9834
 7726SOL    HW228026   1.436   0.104   7.069 -0.8905  0.0528 -1.3165
 7727SOL     OW28027   0.317   4.950   5.837  0.3863 -0.1913  0.0446
 7727SOL    HW128028   0.352   4.976   5.922  0.2293 -0.0291  0.0603
 7727SOL    HW228029   0.243   5.009   5.823  0.6124  0.0004 -0.3515
 7728SOL     OW28030   4.276   6.387   0.853 -0.0860 -0.3508 -0.7607
 7728SOL    HW128031   4.333   6.363   0.926  0.1982  1.3885 -0.3614
 7728SOL    HW228032   4.188   6.374   0.886  0.0070  1.3792  0.3163
 7729SOL     OW28033   8.042   1.450   1.173 -0.0630  0.5689 -0.2957
 7729SOL    HW128034   8.096   1.374   1.194 -1.0715 -0.7624 -2.1625
 7729SOL    HW228035   7.992   1.467   1.253 -1.9150 -2.6427 -0.5906
 7730SOL     OW28036   8.243   7.744   5.109  0.3125 -0.2494 -0.2365
 7730SOL    HW128037   8.321   7.788   5.076  0.5968 -0.4634  0.1420
 7730SOL    HW228038   8.274   7.659   5.141  0.0735 -0.0131  0.6717
 7731SOL     OW28039   2.642   3.640   2.663 -0.1318 -0.3960 -0.2916
 7731SOL    HW128040   2.549   3.661   2.671  0.0697 -0.0034  1.4373
 7731SOL    HW228041   2.651   3.603   2.575 -1.8483 -0.1167 -0.6174
 7732SOL     OW28042   7.942   9.320   4.329 -0.6360 -0.1884 -0.2507
 7732SOL    HW128043   7.914   9.276   4.410  0.6797 -0.9163 -0.1773
 7732SOL    HW228044   7.953   9.412   4.355  0.4042 -0.5214  0.5834
 7733SOL     OW28045   9.432   3.862   0.093 -0.0528 -0.2216 -0.4849
 7733SOL    HW128046   9.354   3.917   0.100 -0.0622 -0.3958  1.0215
 7733SOL    HW228047   9.479   3.896   0.017 -0.5278  1.2479 -0.1454
 7734SOL     OW28048   0.142   4.427   5.695 -0.7569  0.2293  0.1626
 7734SOL    HW128049   0.074   4.361   5.711 -1.5980  0.8240 -0.8382
 7734SOL    HW228050   0.196   4.425   5.774 -3.0529  1.0679  1.8620
 7735SOL     OW28051   5.454   6.272   0.249 -0.0352 -0.9830  0.3844
 7735SOL    HW128052   5.440   6.297   0.340 -0.8488 -0.8512  0.2283
 7735SOL    HW228053   5.373   6.228   0.223 -0.1913 -0.1731 -0.5621
 7736SOL     OW28054   0.141   0.560   1.001 -0.1566 -0.0232  0.8376
 7736SOL    HW128055   0.200   0.633   1.020  2.7462 -2.5954  2.5697
 7736SOL    HW228056   0.198   0.490   0.971 -2.7746 -1.7877 -0.4462
 7737SOL     OW28057   7.330   7.924   0.668  0.0709 -0.3130 -0.2043
 7737SOL    HW128058   7.258   7.891   0.722 -1.5960  3.0527 -0.1317
 7737SOL    HW228059   7.287   7.976   0.600  2.3969  0.6931 -0.9918
 7738SOL     OW28060   9.505   1.594   2.598  0.5714 -0.4670 -0.1482
 7738SOL    HW128061   9.465   1.552   2.674  0.2984 -0.8066 -0.4732
 7738SOL    HW228062   9.581   1.640   2.633  0.2668 -0.3594  0.3762
 7739SOL     OW28063   2.319   9.147   3.092  0.2746  0.3880 -0.7182
 7739SOL    HW128064   2.357   9.233   3.075  0.2333 -0.1401 -4.0186
 7739SOL    HW228065   2.234   9.150   3.049 -0.6384 -0.6891  0.8967
 7740SOL     OW28066   4.067   8.155   7.372 -0.0000  0.0999 -0.2665
 7740SOL    HW128067   4.080   8.060   7.372  0.9529  0.2247  0.1848
 7740SOL    HW228068   4.155   8.192   7.368 -0.3468  0.9760 -0.0739
 7741SOL     OW28069   2.496   8.184   6.181  0.2348  0.0849 -0.8794
 7741SOL    HW128070   2.561   8.247   6.211 -0.3761  0.2393  0.1664
 7741SOL    HW228071   2.412   8.224   6.200 -0.1670 -0.9858 -0.2896
 7742SOL     OW28072   0.856   8.035   1.073  0.4634  0.1096  0.1962
 7742SOL    HW128073   0.919   7.963   1.070  0.7429  0.3483  0.3297
 7742SOL    HW228074   0.886   8.090   1.145  1.1779  1.1989 -0.8827
 7743SOL     OW28075   0.250   7.222   8.093 -0.0181 -0.5088  0.1548
 7743SOL    HW128076   0.317   7.175   8.143 -0.1184  0.0578  0.8451
 7743SOL    HW228077   0.298   7.287   8.042 -0.1209  0.9713  1.8446
 7744SOL     OW28078   3.345   7.364   7.656  0.3746  0.1032 -0.3794
 7744SOL    HW128079   3.367   7.419   7.580 -1.4263  0.5771 -0.5991
 7744SOL    HW228080   3.366   7.419   7.732  0.7002  0.2258 -0.5548
 7745SOL     OW28081   7.566   7.945   1.961  0.3562  0.3262 -0.4049
 7745SOL    HW128082   7.609   7.872   1.916  0.7145  0.2859 -0.0002
 7745SOL    HW228083   7.481   7.954   1.917  0.0559 -0.7305 -0.0604
 7746SOL     OW28084   7.842   8.557   4.659  0.0952  0.0914  0.1408
 7746SOL    HW128085   7.764   8.588   4.705 -0.1343  0.2738 -0.3629
 7746SOL    HW228086   7.894   8.513   4.726 -1.1754 -1.4224  0.1796
 7747SOL     OW28087   5.322   1.064   2.713 -0.2634 -0.0194  0.0380
 7747SOL    HW128088   5.321   1.158   2.730 -0.8413 -0.0708  0.3251
 7747SOL    HW228089   5.413   1.038   2.729  0.4006  0.8163 -1.9991
 7748SOL     OW28090   4.344   4.422   9.240  0.0846  0.0870 -0.2267
 7748SOL    HW128091   4.252   4.434   9.266 -0.2203  1.2615 -1.7367
 7748SOL    HW228092   4.350   4.329   9.217 -0.4359 -0.2438  0.9096
 7749SOL     OW28093   8.007   0.353   2.668  0.3175 -0.5753  0.1623
 7749SOL    HW128094   7.983   0.265   2.700 -0.7314  0.0528  1.2138
 7749SOL    HW228095   8.036   0.339   2.578  0.6669 -2.0650  0.4727
 7750SOL     OW28096   3.264   4.113   5.810 -0.2055  0.1521 -0.2657
 7750SOL    HW128097   3.244   4.029   5.850 -2.3343  0.1231 -1.2556
 7750SOL    HW228098   3.327   4.092   5.740  0.4127 -0.3776  0.4380
 7751SOL     OW28099   9.692   7.087   0.367  0.4907  0.0923 -0.1220
 7751SOL    HW128100   9.640   7.106   0.289  0.1266  0.2454  0.1569
 7751SOL    HW228101   9.742   7.166   0.382 -0.0024  0.3411  0.2375
 7752SOL     OW28102   2.795   6.683   4.528 -0.1233  0.2756  0.5449
 7752SOL    HW128103   2.702   6.686   4.551  0.2163 -1.2629  2.4146
 7752SOL    HW228104   2.833   6.757   4.574 -0.3968  0.9753 -0.3118
 7753SOL     OW28105   1.597   7.337   7.776 -0.0627 -0.3746 -0.6593
 7753SOL    HW128106   1.577   7.424   7.743  1.4681 -0.9714 -3.5206
 7753SOL    HW228107   1.663   7.351   7.844 -0.2807  0.7196 -0.6561
 7754SOL     OW28108   7.143   5.888   2.894  0.2362  0.5649 -0.0347
 7754SOL    HW128109   7.058   5.906   2.854 -0.1906 -1.0887  0.0597
 7754SOL    HW228110   7.124   5.880   2.988 -0.1834 -2.9235 -0.2677
 7755SOL     OW28111   8.621   1.156   0.262  0.0367 -0.0725 -0.0284
 7755SOL    HW128112   8.638   1.165   0.168 -1.2633 -0.6462 -0.3398
 7755SOL    HW228113   8.679   1.221   0.303  0.0521  0.7438 -1.2765
 7756SOL     OW28114   0.800   6.414   1.689 -0.2822  0.4266  0.4735
 7756SOL    HW128115   0.738   6.359   1.738  0.4460 -0.1219  0.8013
 7756SOL    HW228116   0.841   6.354   1.627 -0.4910  0.9142 -0.1461
 7757SOL     OW28117   0.435   4.770   5.437 -0.5434 -0.0108 -0.4100
 7757SOL    HW128118   0.379   4.715   5.492  1.0798 -1.4811 -0.1703
 7757SOL    HW228119   0.490   4.708   5.389  1.0721  1.3814 -0.4409
 7758SOL     OW28120   7.061   2.389   3.603  0.5823 -0.4609 -0.2691
 7758SOL    HW128121   7.081   2.307   3.558  0.0455  0.0419 -1.4661
 7758SOL    HW228122   7.127   2.395   3.672  1.2186 -1.4327 -0.7689
 7759SOL     OW28123   1.268   3.231   8.041  0.6293 -0.3888  0.2293
 7759SOL    HW128124   1.222   3.166   8.094  1.4397 -1.2842 -0.1401
 7759SOL    HW228125   1.323   3.180   7.982  0.0110  0.5990 -1.2536
 7760SOL     OW28126   6.118   7.334   5.457  0.1771  0.6246 -0.1966
 7760SOL    HW128127   6.198   7.387   5.457  0.1674  0.7228  2.2198
 7760SOL    HW228128   6.066   7.368   5.530 -1.3860 -0.4675 -0.7398
 7761SOL     OW28129   6.512   7.839   5.889  0.3573  0.4413 -0.7198
 7761SOL    HW128130   6.443   7.846   5.956  0.8572 -0.2683 -0.1125
 7761SOL    HW228131   6.580   7.900   5.919  1.0504 -0.6584  0.0272
 7762SOL     OW28132   7.879   3.771   9.594  0.1924 -0.1419  0.0528
 7762SOL    HW128133   7.959   3.787   9.543  0.0090  1.6703  0.2609
 7762SOL    HW228134   7.810   3.761   9.529  0.3365 -0.0879 -0.1091
 7763SOL     OW28135   1.114   7.561   9.075  0.3914  0.4727 -0.4040
 7763SOL    HW128136   1.163   7.508   9.139 -0.2531  2.7723  2.1638
 7763SOL    HW228137   1.038   7.507   9.053  1.8622 -1.4079 -1.2586
 7764SOL     OW28138   8.445   5.675   8.598 -0.4232  0.0152 -0.6987
 7764SOL    HW128139   8.369   5.706   8.647  1.3410  1.7976  1.1159
 7764SOL    HW228140   8.418   5.681   8.506 -3.2623 -1.8203 -0.1090
 7765SOL     OW28141   4.862   6.210   9.478  0.1637 -0.2497 -0.1096
 7765SOL    HW128142   4.784   6.223   9.425  0.9653  1.4976 -0.9258
 7765SOL    HW228143   4.868   6.288   9.533  0.6869 -0.9137  0.8141
 7766SOL     OW28144   2.394   4.881   0.009 -0.0767  0.2356  0.1442
 7766SOL    HW128145   2.412   4.857   0.100  0.2911  1.1356  0.3177
 7766SOL    HW228146   2.431   4.808  -0.043 -1.3839 -0.8957  0.7359
 7767SOL     OW28147   7.104   3.273   6.582 -0.0802  0.2272 -0.0555
 7767SOL    HW128148   7.122   3.200   6.523  0.1568 -1.2679  1.7934
 7767SOL    HW228149   7.172   3.337   6.562  0.2471 -0.4216 -1.0931
 7768SOL     OW28150   5.139   1.976   2.459 -0.5650 -0.0978  0.8693
 7768SOL    HW128151   5.091   1.902   2.421 -1.3521 -0.1712  1.9723
 7768SOL    HW228152   5.214   1.935   2.503 -0.6564 -0.1811  0.9478
 7769SOL     OW28153   9.444   8.123   7.162 -0.7705  0.0891 -0.2220
 7769SOL    HW128154   9.537   8.145   7.157 -0.6037 -0.5850 -0.1874
 7769SOL    HW228155   9.433   8.051   7.100 -0.5696 -2.0884  2.0944
 7770SOL     OW28156   5.445   1.541   8.662  0.6051  0.5235  0.3138
 7770SOL    HW128157   5.435   1.449   8.686 -0.1219  0.3866 -0.4681
 7770SOL    HW228158   5.398   1.589   8.730  0.2865  0.2644  0.2758
 7771SOL     OW28159   1.937   2.831   6.359 -0.2018  0.2064 -0.3236
 7771SOL    HW128160   1.869   2.865   6.301  0.0791  0.6902 -0.3771
 7771SOL    HW228161   2.013   2.886   6.341  0.3973 -0.7431 -0.7280
 7772SOL     OW28162   2.314   7.748   2.242 -0.3310  0.3100 -0.5188
 7772SOL    HW128163   2.382   7.808   2.210 -0.4511  0.9823  0.4499
 7772SOL    HW228164   2.351   7.711   2.322 -0.1124 -1.2118 -1.2902
 7773SOL     OW28165   6.295   1.891   5.395  0.5950 -0.3164  0.0573
 7773SOL    HW128166   6.281   1.819   5.456  0.1644  0.1230  0.4939
 7773SOL    HW228167   6.244   1.867   5.317  0.3280 -0.4172  0.2583
 7774SOL     OW28168   5.110   0.246   6.330 -0.3057 -0.2456  0.4846
 7774SOL    HW128169   5.056   0.262   6.252 -0.7035  0.0115  0.8063
 7774SOL    HW228170   5.048   0.210   6.394  0.2163 -1.4319  0.3514
 7775SOL     OW28171   8.345   7.566   4.635 -0.7859 -0.1528 -0.4275
 7775SOL    HW128172   8.259   7.532   4.662  0.1100 -2.5188 -0.2886
 7775SOL    HW228173   8.407   7.511   4.682  0.8289  1.4279 -0.6398
 7776SOL     OW28174   5.208   4.506   4.152 -0.0855 -1.4165  0.0808
 7776SOL    HW128175   5.134   4.502   4.091  0.0143 -2.5821  0.0149
 7776SOL    HW228176   5.179   4.565   4.222  0.4058  1.3512 -1.8533
 7777SOL     OW28177   1.582   7.389   3.290 -0.0217 -0.2150 -0.0975
 7777SOL    HW128178   1.502   7.434   3.318  0.5700  0.3483  0.7726
 7777SOL    HW228179   1.638   7.460   3.258  0.1551 -0.5976 -0.6403
 7778SOL     OW28180   5.262   9.551   5.303  0.3158  0.0292 -0.0514
 7778SOL    HW128181   5.316   9.547   5.223 -0.2412 -0.4501 -0.4124
 7778SOL    HW228182   5.201   9.478   5.294  0.6359 -0.3922  1.1032
 7779SOL     OW28183   5.450   0.690   2.669  0.4856  0.1003  0.0830
 7779SOL    HW128184   5.474   0.662   2.581  0.8418 -0.5414  0.3764
 7779SOL    HW228185   5.354   0.689   2.669  0.4899 -0.5022 -0.1053
 7780SOL     OW28186   2.458   3.561   6.272  0.0228  0.3538  0.0852
 7780SOL    HW128187   2.496   3.480   6.235  2.0452  0.6516  1.3483
 7780SOL    HW228188   2.397   3.531   6.339 -1.3145 -0.1262 -1.2837
 7781SOL     OW28189   1.621   0.204   3.001 -0.2531  0.6745  0.3150
 7781SOL    HW128190   1.583   0.232   2.917 -1.4419  0.1833  0.6605
 7781SOL    HW228191   1.567   0.247   3.067 -1.1978 -1.1958  0.8477
 7782SOL     OW28192   5.691   0.386   5.367 -0.2499  0.7162 -0.2579
 7782SOL    HW128193   5.671   0.385   5.460  0.3858 -1.7030 -0.0714
 7782SOL    HW228194   5.623   0.331   5.328  0.8455 -0.2372 -0.8656
 7783SOL     OW28195   8.553   2.283   0.767  0.2782  0.2342 -0.0997
 7783SOL    HW128196   8.647   2.297   0.774  0.1770  0.8314  0.2063
 7783SOL    HW228197   8.515   2.364   0.801 -0.3363  0.5428 -1.4693
 7784SOL     OW28198   6.207   1.438   1.553  0.3484  0.0877 -0.1922
 7784SOL    HW128199   6.143   1.434   1.624  1.1005  1.4265  0.5963
 7784SOL    HW228200   6.287   1.469   1.594  1.5887 -1.6613 -1.1437
 7785SOL     OW28201   7.084   7.785   5.569  0.1120 -0.1586 -0.1240
 7785SOL    HW128202   7.168   7.790   5.524  1.0215 -1.8701  1.2637
 7785SOL    HW228203   7.057   7.876   5.579  3.1717  0.7001  1.7791
 7786SOL     OW28204   0.827   5.502   1.014 -0.1352  0.3054 -0.0237
 7786SOL    HW128205   0.744   5.533   1.049 -0.5182 -0.5787 -0.1360
 7786SOL    HW228206   0.811   5.490   0.920  0.2655  0.6184 -0.1332
 7787SOL     OW28207   0.840   9.717   4.550 -0.3282 -0.3737 -0.6775
 7787SOL    HW128208   0.822   9.641   4.495 -0.0357  0.5562 -2.1154
 7787SOL    HW228209   0.766   9.776   4.534  0.6086  0.6352 -1.4288
 7788SOL     OW28210   6.505   2.182   7.668 -0.2096  0.1698  0.2809
 7788SOL    HW128211   6.414   2.196   7.640 -0.2606 -0.7615 -0.0513
 7788SOL    HW228212   6.543   2.270   7.670 -1.3038  0.6540  1.1046
 7789SOL     OW28213   4.714   4.470   8.635  0.2660 -0.0404  0.4212
 7789SOL    HW128214   4.729   4.546   8.691 -0.4629 -1.3798  2.5967
 7789SOL    HW228215   4.620   4.470   8.619  0.0876 -1.0127  1.3336
 7790SOL     OW28216   8.463   9.400   6.333 -0.4012  0.1014 -0.3910
 7790SOL    HW128217   8.528   9.347   6.379 -1.4298 -2.7335 -1.9726
 7790SOL    HW228218   8.390   9.407   6.395 -0.2150 -0.2315 -0.1258
 7791SOL     OW28219   5.073   6.558   6.360 -0.2971  0.3378 -0.3785
 7791SOL    HW128220   5.088   6.465   6.339 -0.8523  0.1539  0.0211
 7791SOL    HW228221   5.161   6.595   6.366  0.0217 -0.5547  1.1954
 7792SOL     OW28222   4.968   5.332   2.452 -0.0140  0.3732  0.0230
 7792SOL    HW128223   4.963   5.394   2.525  1.7170  2.5701 -1.5635
 7792SOL    HW228224   5.054   5.292   2.460  1.0502  2.1008 -1.7769
 7793SOL     OW28225   3.784   8.739   9.657  0.1223  0.0815  0.0252
 7793SOL    HW128226   3.758   8.824   9.692  0.2760 -0.2113  0.8820
 7793SOL    HW228227   3.869   8.755   9.616  0.0682  0.3805  0.0283
 7794SOL     OW28228   0.663   6.287   3.089  0.1890  0.1222 -0.6068
 7794SOL    HW128229   0.579   6.297   3.043 -1.2848 -0.4174  1.8252
 7794SOL    HW228230   0.702   6.208   3.051 -1.2709 -0.6727 -0.5126
 7795SOL     OW28231   4.787   4.272   9.323  0.5012  0.0497  0.3506
 7795SOL    HW128232   4.882   4.262   9.331  0.8745  2.4114 -0.2650
 7795SOL    HW228233   4.754   4.265   9.412  1.3004 -0.3108  0.6282
 7796SOL     OW28234   4.648   0.529   7.926  0.6771 -0.0128  0.4916
 7796SOL    HW128235   4.575   0.565   7.876  0.8251  1.3699  1.1917
 7796SOL    HW228236   4.716   0.511   7.861  0.4102  0.5485  0.0490
 7797SOL     OW28237   6.672   9.656   1.942  0.1774 -0.9431 -0.2296
 7797SOL    HW128238   6.619   9.607   2.006 -0.0618 -0.6725 -0.2181
 7797SOL    HW228239   6.752   9.605   1.934  0.4973 -0.6258  0.8007
 7798SOL     OW28240   3.059   7.229   7.451  0.1625 -0.4624 -0.3848
 7798SOL    HW128241   3.011   7.311   7.439  1.4639  0.4070  0.1092
 7798SOL    HW228242   3.151   7.253   7.437  0.6987 -1.5687  0.9835
 7799SOL     OW28243   7.494   6.895   4.177  0.5907  0.1340 -0.4217
 7799SOL    HW128244   7.401   6.906   4.159 -0.0590 -3.5222 -0.0733
 7799SOL    HW228245   7.508   6.937   4.262 -0.6689  0.8608 -0.5591
 7800SOL     OW28246   5.087   1.049   4.384 -0.2503  0.3744  0.0126
 7800SOL    HW128247   5.009   1.055   4.329 -1.2285 -0.0119  1.3367
 7800SOL    HW228248   5.156   1.019   4.323 -1.2043  0.3458 -1.0878
 7801SOL     OW28249   0.101   6.834   4.815 -0.1784  0.2442 -0.1819
 7801SOL    HW128250   0.191   6.802   4.826 -0.9462 -2.1462 -0.3570
 7801SOL    HW228251   0.062   6.825   4.902 -0.6488 -0.0675 -0.4233
 7802SOL     OW28252   0.200   8.186   7.896 -0.2445  0.3804  0.1900
 7802SOL    HW128253   0.263   8.155   7.830  0.6942 -0.2693  1.3542
 7802SOL    HW228254   0.115   8.176   7.854  0.2160 -1.3504 -0.4428
 7803SOL     OW28255   4.494   4.885   2.186 -0.4424 -0.5571 -0.1671
 7803SOL    HW128256   4.443   4.943   2.243 -1.2434 -0.0996 -1.3027
 7803SOL    HW228257   4.554   4.839   2.245 -1.3868 -0.2586  1.0618
 7804SOL     OW28258   0.625   8.189   7.172 -0.0804  0.3103  0.0515
 7804SOL    HW128259   0.692   8.204   7.106  0.5388 -0.9907  0.3465
 7804SOL    HW228260   0.628   8.094   7.189 -0.1026  0.6105  2.0458
 7805SOL     OW28261   0.793   8.959   5.460  0.0339 -0.8893 -0.2574
 7805SOL    HW128262   0.726   8.946   5.393 -1.4756 -1.2751  1.2590
 7805SOL    HW228263   0.744   8.967   5.542  1.8141 -0.4582  0.8203
 7806SOL     OW28264   8.604   0.553   9.693 -0.1838  0.1359  1.0455
 7806SOL    HW128265   8.538   0.598   9.640  1.0652  0.5773 -0.2090
 7806SOL    HW228266   8.686   0.566   9.645  0.4246 -2.6124  1.1880
 7807SOL     OW28267   6.373   3.954   0.806  0.5731 -0.4105 -0.3175
 7807SOL    HW128268   6.299   3.930   0.751  1.0873 -0.1096 -1.1538
 7807SOL    HW228269   6.343   4.030   0.855 -0.0454 -0.9586  0.1782
 7808SOL     OW28270   3.592   5.305   3.560 -0.3981 -0.3051 -0.1437
 7808SOL    HW128271   3.586   5.391   3.602  0.0684 -0.0166 -0.6483
 7808SOL    HW228272   3.676   5.307   3.513 -0.6343 -0.8341 -0.6018
 7809SOL     OW28273   9.106   2.399   5.710  0.0965  0.6912 -0.3884
 7809SOL    HW128274   9.121   2.325   5.651  1.9110  1.0922 -0.5029
 7809SOL    HW228275   9.024   2.438   5.680  0.7564  0.6398 -2.3932
 7810SOL     OW28276   0.718   2.320   3.165  0.6172 -0.5926  0.8215
 7810SOL    HW128277   0.776   2.384   3.123 -0.4179 -0.7546 -0.9839
 7810SOL    HW228278   0.714   2.347   3.257  0.2578  1.9261  0.1416
 7811SOL     OW28279   4.966   6.917   2.007  0.0636 -0.6012 -0.2655
 7811SOL    HW128280   4.990   6.828   2.033  0.3176 -0.5412 -0.3003
 7811SOL    HW228281   4.965   6.915   1.911  3.7551  0.3839 -0.4646
 7812SOL     OW28282   6.594   9.705   3.870 -0.2050  0.6045 -0.1007
 7812SOL    HW128283   6.570   9.687   3.961 -1.1444 -0.1004 -0.4665
 7812SOL    HW228284   6.555   9.791   3.853 -0.5066  0.4930  0.0041
 7813SOL     OW28285   0.809   0.124   1.213 -0.6066  0.1418 -0.0841
 7813SOL    HW128286   0.896   0.145   1.246 -1.5496  2.0602  1.4174
 7813SOL    HW228287   0.813   0.031   1.191  1.5830  0.0138  0.6265
 7814SOL     OW28288   6.230   8.800   2.953  0.3158  0.3112 -0.2071
 7814SOL    HW128289   6.216   8.895   2.946 -2.3374 -0.0177 -0.1892
 7814SOL    HW228290   6.183   8.764   2.878 -0.8665 -1.1316  1.1681
 7815SOL     OW28291   7.039   9.219   0.830 -0.0391  0.9125  0.0869
 7815SOL    HW128292   7.053   9.251   0.919 -2.0404  1.6334  0.1966
 7815SOL    HW228293   7.023   9.125   0.839  3.5588  0.1219  0.0017
 7816SOL     OW28294   2.958   1.118   9.327 -0.6589 -0.4634 -0.7338
 7816SOL    HW128295   2.980   1.075   9.410 -1.2165 -0.6398 -0.6755
 7816SOL    HW228296   2.976   1.210   9.343 -0.9373 -0.4726 -0.3569
 7817SOL     OW28297   7.440   1.754   1.813  0.3961 -0.4631  0.7328
 7817SOL    HW128298   7.387   1.826   1.847  0.8749  0.1256  0.2547
 7817SOL    HW228299   7.495   1.794   1.746  0.9841 -1.1878  0.7628
 7818SOL     OW28300   9.566   8.910   0.966 -0.6747 -0.3245 -0.1522
 7818SOL    HW128301   9.480   8.883   0.932 -0.2794  1.3536 -2.8133
 7818SOL    HW228302   9.626   8.895   0.893  1.3879 -1.5809  1.7009
 7819SOL     OW28303   9.235   0.654   5.240 -0.0947  0.2876 -0.8137
 7819SOL    HW128304   9.151   0.623   5.271  0.7477 -1.4655 -0.1734
 7819SOL    HW228305   9.223   0.666   5.145 -1.3559  1.1813 -0.5573
 7820SOL     OW28306   8.861   8.408   2.145 -0.1970  0.1657 -0.5387
 7820SOL    HW128307   8.945   8.365   2.160  0.1253  0.2792 -1.9032
 7820SOL    HW228308   8.877   8.499   2.168 -0.3086 -0.0407  0.3988
 7821SOL     OW28309   9.073   4.145   3.196 -0.2655 -0.3031 -0.2283
 7821SOL    HW128310   9.014   4.093   3.141  1.4694 -0.8488 -1.6738
 7821SOL    HW228311   9.049   4.122   3.286 -0.1868 -2.9407 -0.8083
 7822SOL     OW28312   0.841   8.159   5.822  0.4067  0.6866  0.0610
 7822SOL    HW128313   0.769   8.116   5.867  0.7884 -0.8415 -0.7351
 7822SOL    HW228314   0.821   8.253   5.829 -2.3618  0.3040 -1.2949
 7823SOL     OW28315   8.187   5.898   2.278 -0.1181  0.0027  0.1364
 7823SOL    HW128316   8.123   5.845   2.325  1.2057 -1.6790  0.1383
 7823SOL    HW228317   8.154   5.902   2.188  0.1851 -1.6003 -0.0655
 7824SOL     OW28318   5.477   8.589   4.171  0.1631  0.2498 -0.7480
 7824SOL    HW128319   5.561   8.566   4.132  0.6815  0.6535  0.1062
 7824SOL    HW228320   5.499   8.624   4.258 -1.0042 -1.6224  0.3943
 7825SOL     OW28321   8.353   5.223   4.682  0.1713 -0.6663 -0.0091
 7825SOL    HW128322   8.275   5.188   4.641 -1.5736  2.6324  0.2019
 7825SOL    HW228323   8.422   5.213   4.617 -1.4466  0.2179 -1.9398
 7826SOL     OW28324   6.298   1.532   8.137  0.2626  0.0655 -0.3706
 7826SOL    HW128325   6.296   1.482   8.055  2.5341  0.9887 -1.0601
 7826SOL    HW228326   6.325   1.619   8.110  0.3860  0.5649  1.3156
 7827SOL     OW28327   7.833   7.012   1.681  0.3326  0.2790 -0.0542
 7827SOL    HW128328   7.774   7.058   1.742  0.6119 -0.3679  0.7245
 7827SOL    HW228329   7.914   7.063   1.683 -0.7570  2.3677 -2.6714
 7828SOL     OW28330   6.347   1.427   4.749  0.1520 -0.6884 -0.5336
 7828SOL    HW128331   6.285   1.417   4.821 -2.0486  1.0202 -2.0547
 7828SOL    HW228332   6.400   1.502   4.773 -1.1841  0.4519 -1.0356
 7829SOL     OW28333   6.253   8.434   2.625 -0.3927 -0.0527  0.0174
 7829SOL    HW128334   6.210   8.472   2.549  0.9130  1.6734  0.1034
 7829SOL    HW228335   6.342   8.415   2.596 -0.7914 -2.5783  0.1615
 7830SOL     OW28336   1.145   4.456   6.327  0.2676 -0.3587  0.7036
 7830SOL    HW128337   1.116   4.369   6.353 -1.7944 -0.2473 -0.9106
 7830SOL    HW228338   1.064   4.506   6.315  1.2833  1.1156 -0.5221
 7831SOL     OW28339   9.656   5.267   2.288  0.1929 -0.3230 -0.0261
 7831SOL    HW128340   9.652   5.351   2.335  2.9129  0.7230 -1.4001
 7831SOL    HW228341   9.692   5.290   2.202  1.9707 -2.9825 -0.1253
 7832SOL     OW28342   6.083   3.542   8.171  0.0042  0.0286 -0.2623
 7832SOL    HW128343   6.128   3.484   8.232  0.3202  1.2914  0.7384
 7832SOL    HW228344   6.005   3.492   8.144 -0.3929 -0.3893  1.5234
 7833SOL     OW28345   8.994   8.996   1.577 -0.3359  0.1808 -0.5163
 7833SOL    HW128346   9.032   8.924   1.627 -1.4458 -0.4824 -0.5778
 7833SOL    HW228347   8.910   8.962   1.546 -0.3661  1.1098 -1.5343
 7834SOL     OW28348   6.674   5.262   6.016 -0.1417  0.0078  0.1438
 7834SOL    HW128349   6.720   5.283   5.935 -0.6182 -1.9184 -0.6567
 7834SOL    HW228350   6.598   5.211   5.989  0.4850 -1.9654  1.8914
 7835SOL     OW28351   2.969   2.693   7.902 -0.0099  0.0517 -0.0918
 7835SOL    HW128352   2.908   2.640   7.850  2.2438 -2.2601 -0.5666
 7835SOL    HW228353   2.975   2.647   7.986  1.7215 -0.2781 -0.3762
 7836SOL     OW28354   9.167   5.177   6.611 -0.0127 -0.1322  0.3458
 7836SOL    HW128355   9.095   5.114   6.607  0.2330 -0.3937 -0.2168
 7836SOL    HW228356   9.125   5.260   6.631 -0.4061 -0.3785  0.5695
 7837SOL     OW28357   4.046   7.229   2.307 -0.3730  0.2546  0.5132
 7837SOL    HW128358   4.032   7.258   2.397  2.0643  1.3095  0.6113
 7837SOL    HW228359   3.993   7.289   2.253 -1.2927  0.0479  1.1639
 7838SOL     OW28360   1.990   1.504   1.028  0.0850 -0.2168 -0.4339
 7838SOL    HW128361   1.907   1.530   0.987  0.5123  2.0036 -0.0293
 7838SOL    HW228362   2.008   1.573   1.091  1.8860 -1.0403  0.0148
 7839SOL     OW28363   0.745   8.042   4.139  0.0666 -0.4406 -0.7537
 7839SOL    HW128364   0.769   8.085   4.057 -1.2138  0.1494 -0.8447
 7839SOL    HW228365   0.705   7.960   4.113 -2.0783  0.5721 -0.8718
 7840SOL     OW28366   3.011   4.616   0.361 -0.2373  0.3159 -0.0819
 7840SOL    HW128367   3.103   4.638   0.352 -0.9571  3.5025 -0.9409
 7840SOL    HW228368   2.985   4.653   0.446 -1.2700  2.0698 -1.0869
 7841SOL     OW28369   9.508   7.536   9.341  0.3505  0.5679  0.2184
 7841SOL    HW128370   9.432   7.555   9.286  0.6274  2.5197  0.4395
 7841SOL    HW228371   9.496   7.444   9.367 -1.3959  0.5248 -0.5635
 7842SOL     OW28372   6.814   1.270   6.242 -0.4880  0.3439  0.1919
 7842SOL    HW128373   6.788   1.190   6.288  1.2784 -0.9311 -0.9053
 7842SOL    HW228374   6.825   1.243   6.151 -2.4792  2.4798 -0.7903
 7843SOL     OW28375   2.613   6.266   3.700  0.3226 -0.2310 -0.0321
 7843SOL    HW128376   2.598   6.219   3.782 -2.1218  0.8639  0.2166
 7843SOL    HW228377   2.587   6.204   3.632 -0.2504 -0.2023  0.1592
 7844SOL     OW28378   9.702   3.625   9.366  0.0352  0.2895 -0.1191
 7844SOL    HW128379   9.669   3.559   9.306 -0.0249  0.1541  0.0634
 7844SOL    HW228380   9.789   3.593   9.392 -0.3280 -0.1269  0.6033
 7845SOL     OW28381   2.482   9.270   1.147 -0.2725  0.1602  0.4180
 7845SOL    HW128382   2.454   9.291   1.058 -0.3756  0.2456  0.4702
 7845SOL    HW228383   2.407   9.292   1.202 -0.1290  0.3266  0.5510
 7846SOL     OW28384   7.456   6.485   6.839 -0.1135  0.3205  0.4425
 7846SOL    HW128385   7.454   6.579   6.820 -0.6652  0.2169 -0.0335
 7846SOL    HW228386   7.481   6.444   6.755 -0.2865  0.0130  0.5402
 7847SOL     OW28387   9.144   5.786   5.750 -0.0439 -0.2377  0.4480
 7847SOL    HW128388   9.185   5.732   5.818  0.4480 -0.0689  0.2914
 7847SOL    HW228389   9.056   5.750   5.740 -0.1753 -0.1649  1.2833
 7848SOL     OW28390   0.623   3.147   0.882 -0.0224 -0.3390 -0.5056
 7848SOL    HW128391   0.706   3.192   0.865 -0.1173  0.4354  0.9634
 7848SOL    HW228392   0.556   3.209   0.855 -0.1372 -0.1820  0.1252
 7849SOL     OW28393   0.686   2.057   6.518  0.7908  0.1113  0.6493
 7849SOL    HW128394   0.737   2.005   6.456  0.1298 -0.8515  0.8813
 7849SOL    HW228395   0.651   1.992   6.580 -0.9954  0.6793  0.2834
 7850SOL     OW28396   1.413   2.250   6.079 -0.0493 -0.1030  0.0524
 7850SOL    HW128397   1.352   2.297   6.021  0.0549  0.7939  0.6506
 7850SOL    HW228398   1.379   2.161   6.083  0.0652 -0.2564 -1.5694
 7851SOL     OW28399   1.580   7.807   0.967  0.5296 -0.7062  0.7585
 7851SOL    HW128400   1.626   7.733   0.928  0.5675 -1.2608  1.8377
 7851SOL    HW228401   1.499   7.814   0.917  0.8257 -1.0408  0.2190
 7852SOL     OW28402   7.936   4.254   6.089  0.0663 -0.6995 -0.1286
 7852SOL    HW128403   7.979   4.198   6.024 -0.4571 -1.7482  0.4079
 7852SOL    HW228404   7.846   4.221   6.093 -0.0325 -0.3454  0.7937
 7853SOL     OW28405   3.752   1.423   0.367 -0.1340  0.3971 -0.3768
 7853SOL    HW128406   3.718   1.487   0.305 -2.0450  0.0898  0.2653
 7853SOL    HW228407   3.716   1.340   0.338  0.8270 -0.1122 -0.1522
 7854SOL     OW28408   4.174   7.117   6.735  0.6766  0.5099  0.5846
 7854SOL    HW128409   4.158   7.132   6.641  2.7097 -0.1200  0.0989
 7854SOL    HW228410   4.192   7.204   6.770 -0.1984  0.7646  0.4474
 7855SOL     OW28411   3.831   6.905   1.432 -0.0206 -0.5795  0.2706
 7855SOL    HW128412   3.910   6.858   1.405  0.9743  0.6849  0.9122
 7855SOL    HW228413   3.807   6.956   1.355  1.2042  0.8755  0.8077
 7856SOL     OW28414   3.268   1.287   7.296  0.2027 -0.0165  0.3089
 7856SOL    HW128415   3.200   1.348   7.267 -1.2307 -1.1654  1.1759
 7856SOL    HW228416   3.343   1.308   7.240 -1.3658  0.1808 -1.8575
 7857SOL     OW28417   6.273   0.611   7.023 -0.2998  0.4382  0.1471
 7857SOL    HW128418   6.344   0.662   6.985  0.6645  0.5180  1.9127
 7857SOL    HW228419   6.195   0.637   6.975  0.5374  1.9097 -0.4649
 7858SOL     OW28420   0.885   1.154   5.122  0.0699 -0.1830  0.1732
 7858SOL    HW128421   0.847   1.121   5.041 -0.0964  0.1216  0.1252
 7858SOL    HW228422   0.826   1.224   5.150  0.6583  0.3756  0.0327
 7859SOL     OW28423   5.841   1.305   6.486  0.1123  0.0139  0.8738
 7859SOL    HW128424   5.909   1.372   6.494  0.2703 -0.2952  2.2957
 7859SOL    HW228425   5.761   1.347   6.517 -0.1104  0.0011  0.3336
 7860SOL     OW28426   5.495   9.317   4.813  0.2152  0.4867 -0.5170
 7860SOL    HW128427   5.501   9.391   4.872  2.2080 -0.5399  0.6679
 7860SOL    HW228428   5.527   9.350   4.729 -0.7371  1.4382 -0.5207
 7861SOL     OW28429   2.556   4.811   3.952  0.8670 -0.3027 -0.8412
 7861SOL    HW128430   2.594   4.728   3.925  0.0235 -0.8358 -0.4316
 7861SOL    HW228431   2.584   4.823   4.043 -1.0629 -1.4209 -0.0399
 7862SOL     OW28432   1.353   2.408   8.261 -0.0769  0.7510  0.4611
 7862SOL    HW128433   1.401   2.460   8.325  1.7874  0.2396 -0.4623
 7862SOL    HW228434   1.371   2.450   8.177 -0.0634 -0.2957 -0.0760
 7863SOL     OW28435   1.729   4.892   8.968 -0.1489  0.2307  0.1185
 7863SOL    HW128436   1.809   4.935   8.998  0.6953 -1.5139  0.4750
 7863SOL    HW228437   1.663   4.915   9.033  0.2849  0.9075  0.3292
 7864SOL     OW28438   8.850   6.971   8.482  0.2260  0.6828  0.4766
 7864SOL    HW128439   8.786   7.034   8.515 -1.2073 -0.4191 -0.0688
 7864SOL    HW228440   8.799   6.911   8.427  1.6595 -0.4996  0.3510
 7865SOL     OW28441   0.408   9.157   3.817  0.4323 -0.4556 -0.1658
 7865SOL    HW128442   0.454   9.133   3.737  0.1798  1.0228 -0.7923
 7865SOL    HW228443   0.402   9.252   3.813  0.1698 -0.3736  1.4868
 7866SOL     OW28444   0.759   8.224   1.911  0.5467  0.2295  0.7242
 7866SOL    HW128445   0.717   8.142   1.936  0.4616  0.1703  0.3941
 7866SOL    HW228446   0.832   8.233   1.971  0.9815 -0.4497  0.3091
 7867SOL     OW28447   9.420   3.645   5.901  0.5811  0.2334  0.4064
 7867SOL    HW128448   9.330   3.649   5.870  1.0441  0.2624 -1.0210
 7867SOL    HW228449   9.454   3.564   5.863  1.6413  1.0781 -0.5330
 7868SOL     OW28450   3.335   5.231   9.198  0.4927 -0.4473  0.2423
 7868SOL    HW128451   3.325   5.237   9.293  1.2662 -1.6513  0.4250
 7868SOL    HW228452   3.295   5.147   9.175  0.5831 -0.3063 -0.4636
 7869SOL     OW28453   6.458   2.536   1.675 -0.5828 -0.0966 -0.2695
 7869SOL    HW128454   6.407   2.502   1.602  0.5818  0.7624 -1.5209
 7869SOL    HW228455   6.483   2.458   1.725 -0.4779 -0.8034 -1.3982
 7870SOL     OW28456   6.278   3.908   3.123 -0.4109 -0.3327  0.3455
 7870SOL    HW128457   6.309   3.995   3.101 -0.0685 -0.1030  1.6649
 7870SOL    HW228458   6.307   3.853   3.050 -0.0655  0.5269 -0.1806
 7871SOL     OW28459   1.063   4.660   7.747  0.1171  0.5049  0.5360
 7871SOL    HW128460   0.999   4.731   7.740  1.3244  1.4556 -1.6462
 7871SOL    HW228461   1.041   4.601   7.674 -0.1530 -0.8214  1.6356
 7872SOL     OW28462   7.233   4.089   6.349  0.5582  0.1711  0.6512
 7872SOL    HW128463   7.194   4.157   6.293  0.7114 -0.7054 -0.5598
 7872SOL    HW228464   7.316   4.067   6.306  0.3770 -0.9835  0.8493
 7873SOL     OW28465   6.767   7.611   2.500 -0.0516  0.6495 -0.5278
 7873SOL    HW128466   6.729   7.527   2.475 -0.8829  1.0564 -0.6644
 7873SOL    HW228467   6.724   7.675   2.443 -1.8836  1.5747  1.7267
 7874SOL     OW28468   6.043   2.277   5.750 -0.2401 -0.2887 -0.0290
 7874SOL    HW128469   6.080   2.207   5.804 -2.2975 -0.3685  1.4143
 7874SOL    HW228470   6.113   2.301   5.689  1.7050 -1.2057  1.7298
 7875SOL     OW28471   0.487   7.675   7.347  0.0282  0.3536  0.3846
 7875SOL    HW128472   0.418   7.653   7.408 -0.3816 -0.3562 -0.3185
 7875SOL    HW228473   0.441   7.715   7.272  0.5127  1.1735  0.5105
 7876SOL     OW28474   8.161   2.974   6.636  0.3148  0.1276  0.4507
 7876SOL    HW128475   8.071   2.963   6.668  0.2717 -0.5516  0.1129
 7876SOL    HW228476   8.175   3.069   6.638 -0.3081  0.2204  0.7827
 7877SOL     OW28477   3.492   2.466   7.844 -0.6248 -0.3787 -0.3401
 7877SOL    HW128478   3.467   2.374   7.834 -2.2686  0.1777 -2.1808
 7877SOL    HW228479   3.451   2.494   7.926  0.1909 -1.3577  0.4170
 7878SOL     OW28480   4.115   1.006   9.618 -0.5277  0.1539  0.2940
 7878SOL    HW128481   4.196   0.958   9.602  0.3590  1.1813  1.4857
 7878SOL    HW228482   4.055   0.974   9.551  0.7665 -0.8458 -0.4454
 7879SOL     OW28483   8.007   6.901   6.001  0.3183 -0.8084 -0.7176
 7879SOL    HW128484   8.101   6.881   6.003  0.2364 -1.1643 -0.3339
 7879SOL    HW228485   8.002   6.991   5.970  0.8200 -0.5855 -0.1655
 7880SOL     OW28486   7.002   8.449   3.639  0.0053  0.6961 -0.0430
 7880SOL    HW128487   6.966   8.529   3.678 -0.9638 -0.0004  0.5221
 7880SOL    HW228488   6.932   8.416   3.583 -0.0624 -0.3819  0.6464
 7881SOL     OW28489   4.246   9.698   6.792 -0.0499 -0.1691  0.3691
 7881SOL    HW128490   4.178   9.663   6.734  0.0123 -1.1562  0.8665
 7881SOL    HW228491   4.308   9.741   6.734 -1.0506  0.6600 -0.1056
 7882SOL     OW28492   9.455   7.478   3.911 -0.4541 -0.4817  0.4716
 7882SOL    HW128493   9.440   7.567   3.878 -1.8727 -0.9589 -0.2346
 7882SOL    HW228494   9.393   7.423   3.863  0.2446 -1.8387  1.0507
 7883SOL     OW28495   2.585   8.745   4.103  0.4197  0.5324  0.2119
 7883SOL    HW128496   2.514   8.703   4.055 -0.6218  1.2395  1.0811
 7883SOL    HW228497   2.605   8.824   4.053  1.6381 -0.3989 -0.8341
 7884SOL     OW28498   4.557   4.288   8.019  0.0549  0.2094  0.1198
 7884SOL    HW128499   4.600   4.253   7.941  0.2297  1.8640 -0.5653
 7884SOL    HW228500   4.572   4.382   8.015  0.0098  0.3632  2.1249
 7885SOL     OW28501   7.904   8.526   0.030 -0.0733  0.4418 -0.1571
 7885SOL    HW128502   7.826   8.523  -0.026 -0.4213  1.1181  0.2798
 7885SOL    HW228503   7.918   8.619   0.046  0.1662  0.2672  0.6792
 7886SOL     OW28504   8.724   3.297   6.921  0.0238 -0.2196  0.6962
 7886SOL    HW128505   8.793   3.270   6.861 -1.5611  0.1992 -1.4632
 7886SOL    HW228506   8.767   3.304   7.006  2.2531 -1.4794 -0.2292
 7887SOL     OW28507   6.450   3.553   5.903 -0.2170 -0.4356 -0.3345
 7887SOL    HW128508   6.442   3.458   5.905  2.1686 -0.6996 -0.3070
 7887SOL    HW228509   6.536   3.570   5.940 -0.7078  1.7731 -0.0845
 7888SOL     OW28510   5.417   8.715   8.401 -0.5706 -1.0613 -0.2916
 7888SOL    HW128511   5.503   8.724   8.361 -0.7285 -1.7940 -0.8107
 7888SOL    HW228512   5.435   8.688   8.491 -0.2775 -1.9726 -0.6207
 7889SOL     OW28513   4.202   5.739   9.567  0.4486 -0.3292 -0.3870
 7889SOL    HW128514   4.134   5.722   9.632 -0.0640 -1.9810 -1.3031
 7889SOL    HW228515   4.172   5.817   9.520  0.2379  0.1686  0.5365
 7890SOL     OW28516   8.502   1.360   8.715  0.0206 -0.4401 -0.1253
 7890SOL    HW128517   8.508   1.267   8.734 -2.4793 -1.3790 -3.2009
 7890SOL    HW228518   8.447   1.395   8.786 -0.8510 -1.7730 -0.1016
 7891SOL     OW28519   3.755   7.107   0.902 -0.0032 -0.0756  0.3364
 7891SOL    HW128520   3.790   7.195   0.884 -0.0395 -0.4385 -1.7783
 7891SOL    HW228521   3.781   7.055   0.826 -2.4899 -1.1521  0.1297
 7892SOL     OW28522   5.707   8.997   1.942 -0.1862  0.1172  0.5131
 7892SOL    HW128523   5.682   9.057   1.871 -0.5273 -0.1057  0.4427
 7892SOL    HW228524   5.789   8.959   1.913 -0.4362 -0.1414  0.1288
 7893SOL     OW28525   0.043   2.750   6.506 -0.5512  0.0239  0.6038
 7893SOL    HW128526   0.094   2.817   6.461 -1.7672  1.4507  1.2859
 7893SOL    HW228527   0.032   2.680   6.441  0.8099  0.4237 -0.0832
 7894SOL     OW28528   6.409   6.348   5.541  0.0413  0.5182  0.2935
 7894SOL    HW128529   6.444   6.261   5.562 -0.3277  0.4327  0.5670
 7894SOL    HW228530   6.456   6.374   5.462  0.2036  0.0971  0.2466
 7895SOL     OW28531   7.812   9.699   5.912 -0.4332 -0.1934  0.4482
 7895SOL    HW128532   7.822   9.622   5.968 -1.5060 -1.1748 -0.6512
 7895SOL    HW228533   7.718   9.702   5.893 -0.6096  2.0870  1.4129
 7896SOL     OW28534   1.957   1.897   0.459 -0.4416 -0.0103  0.1508
 7896SOL    HW128535   1.960   1.804   0.437 -1.6111 -0.9539  3.3526
 7896SOL    HW228536   2.019   1.907   0.531 -1.4241  1.3254  0.8704
 7897SOL     OW28537   2.989   4.771   5.839 -0.4094  0.5220 -0.0414
 7897SOL    HW128538   3.055   4.713   5.876 -0.5707  0.5961  0.3590
 7897SOL    HW228539   3.038   4.850   5.814 -0.4705  0.8708  0.9331
 7898SOL     OW28540   9.357   8.990   6.104  0.7846  0.1344  0.5056
 7898SOL    HW128541   9.352   9.022   6.194 -0.0280  1.2315  0.0893
 7898SOL    HW228542   9.291   9.040   6.057 -0.5825 -2.1551 -0.2167
 7899SOL     OW28543   8.437   1.533   0.282  0.1771  0.8076 -0.0884
 7899SOL    HW128544   8.369   1.567   0.340 -0.6477  0.2574 -0.7097
 7899SOL    HW228545   8.519   1.563   0.321 -0.4202  1.5374  0.6384
 7900SOL     OW28546   8.365   2.170   7.871 -0.1267 -0.2157 -0.0446
 7900SOL    HW128547   8.447   2.126   7.852  0.1407  0.0933  0.3717
 7900SOL    HW228548   8.360   2.240   7.806  0.2821  0.1982  0.3639
 7901SOL     OW28549   1.141   7.995   7.444 -0.3619  0.1500  0.2785
 7901SOL    HW128550   1.225   8.035   7.464  0.3036 -1.0432 -0.0364
 7901SOL    HW228551   1.117   7.948   7.525 -1.5888  1.8578  0.9769
 7902SOL     OW28552   2.649   6.735   2.636  0.8660 -0.0766  0.0461
 7902SOL    HW128553   2.569   6.762   2.680  0.7402 -1.1677  0.5261
 7902SOL    HW228554   2.633   6.644   2.611  0.2292  0.9306 -3.8802
 7903SOL     OW28555   7.417   8.570   6.171 -0.3420 -0.1740 -0.0579
 7903SOL    HW128556   7.374   8.512   6.108  0.2629 -0.1491 -0.5037
 7903SOL    HW228557   7.494   8.604   6.124 -1.7530  2.6272 -0.5663
 7904SOL     OW28558   2.245   3.387   5.228  0.0247 -0.1247 -0.0283
 7904SOL    HW128559   2.306   3.365   5.156  0.9902 -0.5375  0.8891
 7904SOL    HW228560   2.302   3.396   5.305 -0.8127  1.7337  0.4237
 7905SOL     OW28561   5.543   5.691   8.127  0.2125  0.2206  0.1125
 7905SOL    HW128562   5.566   5.601   8.108  0.4500  0.5255 -1.1208
 7905SOL    HW228563   5.548   5.698   8.223 -2.9220 -1.9153  0.5761
 7906SOL     OW28564   9.260   4.799   0.790 -0.2565 -0.3319  0.2655
 7906SOL    HW128565   9.295   4.713   0.812 -1.9243 -1.2500 -0.5706
 7906SOL    HW228566   9.282   4.853   0.867 -0.8849 -1.9856  1.6708
 7907SOL     OW28567   5.940   1.217   3.065 -0.3086  0.1635  0.2247
 7907SOL    HW128568   6.035   1.215   3.073 -0.2156  2.0309  0.1184
 7907SOL    HW228569   5.910   1.148   3.124  1.0596  1.0180  2.0332
 7908SOL     OW28570   0.022   2.157   3.788  0.8737  0.1665  0.0295
 7908SOL    HW128571  -0.003   2.077   3.741  1.5500 -0.2415  0.3477
 7908SOL    HW228572   0.053   2.216   3.719 -1.2279  0.8202 -0.4215
 7909SOL     OW28573   7.098   3.705   1.768  0.5988  0.7334 -0.1998
 7909SOL    HW128574   7.172   3.709   1.708  1.1521  1.9105  0.5238
 7909SOL    HW228575   7.081   3.796   1.791 -0.2607  0.3779  0.6256
 7910SOL     OW28576   2.541   9.509   3.400 -0.4669  0.0090 -0.0394
 7910SOL    HW128577   2.463   9.464   3.433 -1.2745  1.6130  0.3687
 7910SOL    HW228578   2.592   9.441   3.357 -2.5622 -0.9323 -1.1784
 7911SOL     OW28579   5.836   7.278   8.289 -0.0605 -0.4127  0.2169
 7911SOL    HW128580   5.812   7.232   8.209  1.0298 -0.7629  0.0861
 7911SOL    HW228581   5.825   7.214   8.359 -0.3157 -0.3197  0.2639
 7912SOL     OW28582   2.299   4.217   7.520 -0.4584  0.2143  0.1955
 7912SOL    HW128583   2.324   4.128   7.544  0.9343  0.7400  0.8110
 7912SOL    HW228584   2.220   4.234   7.571 -0.8876 -0.7548 -0.1326
 7913SOL     OW28585   0.808   1.928   7.204  0.5350  0.0555 -0.0471
 7913SOL    HW128586   0.854   1.995   7.255 -0.4335 -0.8106  2.0760
 7913SOL    HW228587   0.754   1.882   7.268 -1.7356 -0.3012 -2.0796
 7914SOL     OW28588   3.095   5.431   8.417 -0.4800  0.0805  0.3830
 7914SOL    HW128589   3.140   5.472   8.491  0.9427  0.4872 -0.6555
 7914SOL    HW228590   3.015   5.395   8.455 -0.3276  1.2148  1.9057
 7915SOL     OW28591   1.996   7.312   5.195  0.1223  0.2445 -0.6588
 7915SOL    HW128592   2.062   7.362   5.149 -0.0138  0.6963 -0.3712
 7915SOL    HW228593   1.921   7.372   5.202 -0.6005 -0.4983 -1.6348
 7916SOL     OW28594   5.624   1.852   7.103  0.3180 -0.1136 -0.8155
 7916SOL    HW128595   5.715   1.862   7.073  0.0195  0.6891 -1.4953
 7916SOL    HW228596   5.605   1.760   7.087  1.2006 -0.4400 -0.0998
 7917SOL     OW28597   1.644   6.618   5.577 -0.7748 -0.0638  0.4294
 7917SOL    HW128598   1.626   6.559   5.649 -2.2253  0.8844  0.8837
 7917SOL    HW228599   1.717   6.672   5.608 -0.2350 -0.7952  0.4732
 7918SOL     OW28600   4.239   5.126   1.106 -0.2904  0.1607  0.1414
 7918SOL    HW128601   4.261   5.123   1.012 -2.4880 -0.5324 -0.3972
 7918SOL    HW228602   4.306   5.184   1.143  1.6904 -0.8902 -1.5196
 7919SOL     OW28603   5.898   2.508   0.963  0.1182  0.4290 -0.0702
 7919SOL    HW128604   5.857   2.496   0.878  1.4968  1.4326 -0.9219
 7919SOL    HW228605   5.850   2.580   1.004 -1.0385 -0.5484  0.3708
 7920SOL     OW28606   0.759   2.500   3.728 -0.3768 -0.5582 -0.0637
 7920SOL    HW128607   0.674   2.518   3.688  0.4358  1.6147 -0.9972
 7920SOL    HW228608   0.776   2.576   3.784  0.7392 -1.1744  0.4700
 7921SOL     OW28609   7.158   2.259   6.211  0.1296  0.4057 -0.3279
 7921SOL    HW128610   7.109   2.178   6.225  1.1868 -0.0719  0.7637
 7921SOL    HW228611   7.093   2.320   6.176 -0.8335 -0.7136 -0.5656
 7922SOL     OW28612   4.549   4.409   4.886  0.2904  0.1475  0.7335
 7922SOL    HW128613   4.639   4.432   4.906  0.2811  2.2825 -1.2686
 7922SOL    HW228614   4.497   4.475   4.932 -0.1938 -0.2703  0.7971
 7923SOL     OW28615   0.972   2.068   5.596  0.0795 -0.1363 -0.2663
 7923SOL    HW128616   1.055   2.029   5.625 -0.7116 -1.6866 -0.0381
 7923SOL    HW228617   0.918   1.994   5.569 -1.5761  0.7532  0.4468
 7924SOL     OW28618   5.666   7.116   6.153 -0.1989  0.4672  0.4274
 7924SOL    HW128619   5.608   7.189   6.174 -3.4132 -1.6131 -0.5393
 7924SOL    HW228620   5.685   7.075   6.238  0.0759  1.2862  0.7733
 7925SOL     OW28621   1.021   0.644   6.064  0.0433  0.4376 -0.1351
 7925SOL    HW128622   1.083   0.707   6.100 -0.1405  0.4399  0.1756
 7925SOL    HW228623   1.075   0.583   6.013  0.1553  1.1946 -0.9389
 7926SOL     OW28624   4.072   7.412   6.344 -0.0187  0.4750  0.1811
 7926SOL    HW128625   4.155   7.449   6.313 -0.1363  0.0487 -0.6670
 7926SOL    HW228626   4.042   7.475   6.410  0.7547  0.8651  0.1851
 7927SOL     OW28627   0.083   8.274   7.341  0.6131 -0.3009  0.2125
 7927SOL    HW128628   0.058   8.268   7.249  1.2009 -0.9659  0.0828
 7927SOL    HW228629   0.018   8.332   7.380  0.9073  0.7429 -0.8120
 7928SOL     OW28630   7.568   3.767   1.528 -0.0056  0.3029 -0.1387
 7928SOL    HW128631   7.573   3.862   1.518  0.4335  0.0514 -3.7384
 7928SOL    HW228632   7.659   3.737   1.524 -0.2130 -0.3203 -0.4372
 7929SOL     OW28633   8.495   0.464   2.906 -0.2935 -0.0826 -0.3342
 7929SOL    HW128634   8.572   0.517   2.881 -0.4712 -0.0306 -0.7930
 7929SOL    HW228635   8.474   0.415   2.826 -1.1134  0.3641 -0.3973
 7930SOL     OW28636   4.793   1.341   5.407  0.6475  0.8721 -0.3090
 7930SOL    HW128637   4.816   1.250   5.426 -1.5750  0.4652  0.7695
 7930SOL    HW228638   4.787   1.383   5.492 -0.7283  1.3558 -0.6076
 7931SOL     OW28639   2.894   5.294   7.836 -0.3385  0.8365 -0.3400
 7931SOL    HW128640   2.855   5.254   7.914  0.2828 -0.3723 -0.6320
 7931SOL    HW228641   2.974   5.335   7.867  0.4794 -0.5903 -0.5099
 7932SOL     OW28642   2.369   9.173   5.676 -0.2351 -0.9426 -0.0971
 7932SOL    HW128643   2.303   9.147   5.611 -0.5057 -3.0479  0.9330
 7932SOL    HW228644   2.339   9.259   5.707 -1.3427 -0.9202 -1.1224
 7933SOL     OW28645   0.497   9.510   4.361  0.4306  0.2345  0.1711
 7933SOL    HW128646   0.427   9.557   4.315 -0.0161 -1.0974 -0.5820
 7933SOL    HW228647   0.578   9.545   4.325  0.2245  2.1980  1.4485
 7934SOL     OW28648   0.069   4.269   2.701 -0.0607 -0.0006  0.2659
 7934SOL    HW128649   0.066   4.364   2.694 -0.8397  0.1853  2.3093
 7934SOL    HW228650   0.148   4.251   2.753  0.7595 -0.5850 -1.1304
 7935SOL     OW28651   5.597   1.757   7.632 -0.0715  0.7661  0.4877
 7935SOL    HW128652   5.628   1.745   7.543  2.1775 -0.3905  1.3483
 7935SOL    HW228653   5.627   1.845   7.657  3.3646 -0.5581  1.5132
 7936SOL     OW28654   4.166   2.826   0.692 -0.3479 -0.1966 -0.2704
 7936SOL    HW128655   4.258   2.803   0.683 -0.4780 -0.7127 -0.3446
 7936SOL    HW228656   4.142   2.868   0.610  0.4278  2.1654  0.6312
 7937SOL     OW28657   2.802   0.794   6.224 -0.6560 -0.2951 -0.2196
 7937SOL    HW128658   2.879   0.779   6.279  0.5516  0.8101 -1.5574
 7937SOL    HW228659   2.794   0.889   6.218 -1.1321 -0.3958 -1.4434
 7938SOL     OW28660   1.884   8.407   8.628 -0.5827  0.1977  0.4284
 7938SOL    HW128661   1.821   8.456   8.575  0.0615  0.1018 -0.4496
 7938SOL    HW228662   1.867   8.315   8.606  1.5906  0.2388 -1.9315
 7939SOL     OW28663   2.337   4.237   8.569  0.3666  0.0458  0.6519
 7939SOL    HW128664   2.287   4.203   8.643 -2.7741  0.5242 -1.0818
 7939SOL    HW228665   2.380   4.315   8.602 -1.9602  0.9472  1.7384
 7940SOL     OW28666   6.829   4.793   3.334 -0.2804 -0.5232  0.4999
 7940SOL    HW128667   6.871   4.719   3.288  0.4739 -0.1355  0.5452
 7940SOL    HW228668   6.842   4.868   3.275  1.4344  0.1646  1.6659
 7941SOL     OW28669   9.461   9.655   8.769 -0.1528 -0.2100  0.6721
 7941SOL    HW128670   9.508   9.591   8.715 -0.8510 -0.2115  0.0518
 7941SOL    HW228671   9.517   9.667   8.845  0.5978 -0.6118  0.1996
 7942SOL     OW28672   9.235   5.088   4.548 -0.3208 -0.3347 -0.3490
 7942SOL    HW128673   9.224   5.150   4.476  0.9883  1.2604  0.7513
 7942SOL    HW228674   9.146   5.066   4.575 -0.8640  1.7622 -0.2330
 7943SOL     OW28675   4.041   0.647   4.552 -0.4911  0.3379 -0.5029
 7943SOL    HW128676   3.983   0.694   4.612 -1.3734 -0.4859 -0.6902
 7943SOL    HW228677   4.050   0.560   4.590 -0.9721 -0.1609 -1.4909
 7944SOL     OW28678   6.489   1.207   7.500  0.1257  0.0707 -0.1364
 7944SOL    HW128679   6.492   1.194   7.595 -0.3822 -0.4889 -0.1920
 7944SOL    HW228680   6.417   1.268   7.487  1.2776  1.5169 -0.0381
 7945SOL     OW28681   7.902   3.329   8.643 -0.0253  0.2150  0.0143
 7945SOL    HW128682   7.952   3.254   8.678  1.0387  0.7625 -0.2767
 7945SOL    HW228683   7.947   3.406   8.678  0.4301  0.7522 -1.6821
 7946SOL     OW28684   1.090   6.873   1.603  0.1434 -0.2820 -1.0373
 7946SOL    HW128685   1.113   6.785   1.571 -1.0713 -0.7722 -0.5968
 7946SOL    HW228686   1.034   6.909   1.534 -0.2396 -0.2806 -0.7295
 7947SOL     OW28687   1.104   0.833   7.546  0.1586  0.4244  0.9151
 7947SOL    HW128688   1.167   0.764   7.525 -0.9779 -0.7484  1.1714
 7947SOL    HW228689   1.056   0.799   7.622  0.5551  2.1873  2.0142
 7948SOL     OW28690   9.595   7.382   2.866 -0.1666  0.5760  0.8634
 7948SOL    HW128691   9.605   7.477   2.859  0.0504  0.4940 -0.0879
 7948SOL    HW228692   9.617   7.362   2.957  0.6451  1.3332  0.8474
 7949SOL     OW28693   1.978   3.604   7.302 -0.0030  0.2513 -0.1236
 7949SOL    HW128694   2.009   3.514   7.316  0.8066 -0.1198 -3.3976
 7949SOL    HW228695   2.054   3.650   7.267 -0.6603  2.0142  0.6606
 7950SOL     OW28696   9.031   4.113   4.649 -0.0293 -0.4169 -0.1343
 7950SOL    HW128697   9.039   4.173   4.575  0.7395 -0.1091  0.1899
 7950SOL    HW228698   8.958   4.147   4.700  1.2493  1.0820  0.7853
 7951SOL     OW28699   1.234   3.729   8.861 -0.2240  0.3042  0.3391
 7951SOL    HW128700   1.246   3.761   8.772 -1.9049  2.2723  0.7547
 7951SOL    HW228701   1.311   3.760   8.908  0.3024 -0.1005 -0.2373
 7952SOL     OW28702   9.563   0.569   0.533  0.1241 -0.1556  0.4015
 7952SOL    HW128703   9.478   0.597   0.568  0.8695  0.7815  1.5374
 7952SOL    HW228704   9.543   0.488   0.485 -1.5044  0.3975  0.0759
 7953SOL     OW28705   5.313   2.353   7.202 -0.4258 -0.2805  0.2039
 7953SOL    HW128706   5.277   2.336   7.115  1.3781 -0.6474 -0.5171
 7953SOL    HW228707   5.302   2.270   7.249  0.5456 -0.7630 -0.4086
 7954SOL     OW28708   2.822   0.965   3.329  0.2311  0.0952  0.6413
 7954SOL    HW128709   2.820   0.925   3.242  1.1241  0.9342  0.2114
 7954SOL    HW228710   2.738   1.009   3.338  0.7841  1.4851 -0.5492
 7955SOL     OW28711   5.479   6.734   9.635 -0.0169 -0.2691  0.3317
 7955SOL    HW128712   5.406   6.794   9.649 -1.5382 -1.9188 -0.0383
 7955SOL    HW228713   5.437   6.652   9.609  2.0947 -0.7128 -1.9889
 7956SOL     OW28714   4.165   7.956   2.347  0.1031 -0.3315  0.2137
 7956SOL    HW128715   4.224   7.938   2.274  0.9968  0.1675  0.7992
 7956SOL    HW228716   4.222   7.982   2.419 -0.8254  0.1245  0.8135
 7957SOL     OW28717   2.140   4.838   4.213 -0.4708  0.1267  0.7092
 7957SOL    HW128718   2.197   4.912   4.194  0.0569 -0.4797 -0.1360
 7957SOL    HW228719   2.183   4.792   4.286  0.3541 -0.5438 -0.1728
 7958SOL     OW28720   3.614   4.343   7.969  0.4123  0.0654  0.2557
 7958SOL    HW128721   3.535   4.290   7.982  1.6996 -2.0909 -0.2001
 7958SOL    HW228722   3.651   4.311   7.887  1.5560  1.2962  0.2673
 7959SOL     OW28723   1.711   7.026   1.259  0.0154  0.1291 -0.0047
 7959SOL    HW128724   1.710   7.116   1.290 -0.9070 -0.3304  1.3586
 7959SOL    HW228725   1.622   6.995   1.272  0.9215 -1.8526  2.2464
 7960SOL     OW28726   0.037   0.879   6.280 -0.1251 -0.5860 -0.1723
 7960SOL    HW128727  -0.014   0.911   6.355  1.0167  0.6555  0.1042
 7960SOL    HW228728   0.010   0.787   6.271 -3.4504  0.3467 -0.9371
 7961SOL     OW28729   0.818   0.944   6.029  0.1276 -1.0324  0.4322
 7961SOL    HW128730   0.812   0.870   5.968 -0.4808 -1.1750  0.6531
 7961SOL    HW228731   0.750   0.926   6.095  1.1730 -1.2106  1.5125
 7962SOL     OW28732   9.194   3.507   0.898  0.1279  0.2639 -0.6042
 7962SOL    HW128733   9.215   3.494   0.805  1.4523 -0.3378 -0.2524
 7962SOL    HW228734   9.140   3.431   0.921  0.4908 -0.0339 -0.7039
 7963SOL     OW28735   8.424   0.404   2.547 -0.4152  0.2363 -0.3145
 7963SOL    HW128736   8.437   0.331   2.607  2.9715  0.4828 -0.5665
 7963SOL    HW228737   8.402   0.363   2.463 -0.1952 -0.3925 -0.0696
 7964SOL     OW28738   6.883   3.167   6.262 -0.1644 -0.4204  0.0071
 7964SOL    HW128739   6.906   3.195   6.173 -1.4550  0.5497 -0.0423
 7964SOL    HW228740   6.909   3.075   6.265  0.5054 -0.2922 -1.1535
 7965SOL     OW28741   8.385   0.318   6.260 -0.4716  0.7562  0.2437
 7965SOL    HW128742   8.466   0.342   6.304 -1.2723  1.8068  1.2068
 7965SOL    HW228743   8.321   0.307   6.330 -0.9617 -1.0015 -0.4205
 7966SOL     OW28744   2.195   1.497   6.300 -0.3870  0.0901  0.5569
 7966SOL    HW128745   2.135   1.572   6.300 -0.5350 -0.0102 -0.7166
 7966SOL    HW228746   2.269   1.526   6.247 -1.1475 -1.1824 -1.2919
 7967SOL     OW28747   4.424   8.673   5.997 -0.2952  0.2505 -0.1538
 7967SOL    HW128748   4.397   8.583   5.977  0.2060 -0.1580  0.9358
 7967SOL    HW228749   4.409   8.721   5.915 -0.6113 -0.8058 -0.7383
 7968SOL     OW28750   2.329   9.621   2.416 -0.7854  0.3787  0.3170
 7968SOL    HW128751   2.385   9.565   2.471 -0.5919  0.0214 -0.2322
 7968SOL    HW228752   2.297   9.689   2.475 -1.3121 -0.5187  1.0910
 7969SOL     OW28753   6.180   3.909   4.618  0.4336 -0.0060  0.4209
 7969SOL    HW128754   6.126   3.906   4.539 -1.7366  0.4147  1.8058
 7969SOL    HW228755   6.188   3.818   4.645 -0.2265 -0.0094  0.6134
 7970SOL     OW28756   0.241   0.679   7.398 -0.1162  0.1731  0.9553
 7970SOL    HW128757   0.295   0.612   7.356 -0.0171 -1.5918  3.6437
 7970SOL    HW228758   0.152   0.660   7.368  0.1334 -0.0360  0.3282
 7971SOL     OW28759   2.820   1.769   9.599 -0.5300 -0.3018 -0.2930
 7971SOL    HW128760   2.808   1.675   9.584  0.4543 -0.5514  0.3914
 7971SOL    HW228761   2.886   1.774   9.668  0.6907  0.9181 -1.4916
 7972SOL     OW28762   0.510   4.011   1.322  0.1383 -0.2795  0.1008
 7972SOL    HW128763   0.597   3.991   1.357 -0.3142 -2.8783 -0.0711
 7972SOL    HW228764   0.523   4.026   1.229  0.4988  0.1886  0.2253
 7973SOL     OW28765   9.720   2.888   7.377  0.1658 -0.1185 -0.6543
 7973SOL    HW128766   9.733   2.966   7.430 -0.8996  0.2107 -0.8414
 7973SOL    HW228767   9.767   2.819   7.422 -2.5504 -0.3980  2.0759
 7974SOL     OW28768   8.178   4.835   7.152 -0.1882 -0.5228 -0.5645
 7974SOL    HW128769   8.160   4.804   7.241 -1.1076  0.3753 -0.4206
 7974SOL    HW228770   8.182   4.930   7.160  0.2639 -0.4574 -1.3980
 7975SOL     OW28771   5.588   0.210   6.821  0.0780  0.4674 -0.3016
 7975SOL    HW128772   5.492   0.218   6.822 -0.1158 -1.2148 -1.2944
 7975SOL    HW228773   5.615   0.243   6.906 -1.5458 -0.4410  0.6327
 7976SOL     OW28774   0.672   8.006   0.430  0.3029  0.4518 -0.0276
 7976SOL    HW128775   0.652   7.935   0.369  0.2838  0.2533  0.2081
 7976SOL    HW228776   0.597   8.065   0.423  0.3923  0.5312 -0.3412
 7977SOL     OW28777   9.167   7.718   2.547 -0.0734 -0.4961  0.3752
 7977SOL    HW128778   9.209   7.735   2.631 -0.2180  0.7201  0.2194
 7977SOL    HW228779   9.076   7.744   2.559 -1.0402 -3.6823  0.9001
 7978SOL     OW28780   2.278   4.390   9.127  0.1668  0.3500 -0.1210
 7978SOL    HW128781   2.253   4.302   9.100 -0.2112  0.6209 -0.6594
 7978SOL    HW228782   2.360   4.407   9.080  1.3658 -0.5033  1.5720
 7979SOL     OW28783   4.287   2.478   5.253 -0.3713  0.0552 -0.3686
 7979SOL    HW128784   4.210   2.524   5.285 -0.6604 -0.4546 -0.3114
 7979SOL    HW228785   4.307   2.413   5.320  1.0854  1.2243  0.3762
 7980SOL     OW28786   9.327   3.965   2.954  0.1459 -0.3835 -0.2416
 7980SOL    HW128787   9.422   3.970   2.958  0.0778  0.0411  1.6046
 7980SOL    HW228788   9.310   3.889   2.898  1.5336 -0.0481 -1.1883
 7981SOL     OW28789   4.834   2.442   0.428 -0.0040 -0.3079  0.3311
 7981SOL    HW128790   4.899   2.511   0.427  0.8319 -1.0858  0.0172
 7981SOL    HW228791   4.839   2.405   0.517  0.4431 -0.7880  0.1100
 7982SOL     OW28792   2.541   0.135   3.113 -0.4526  0.2096 -0.4083
 7982SOL    HW128793   2.550   0.077   3.188  1.7619 -0.8045 -1.3463
 7982SOL    HW228794   2.530   0.077   3.038  3.0818  0.7362 -1.5445
 7983SOL     OW28795   8.130   1.593   9.699  0.0452  0.3504 -0.3563
 7983SOL    HW128796   8.086   1.671   9.732  1.6434  0.6703  1.1966
 7983SOL    HW228797   8.087   1.520   9.744  0.0879  0.5300 -0.0210
 7984SOL     OW28798   7.924   1.983   1.322  0.3202  0.2252  0.1132
 7984SOL    HW128799   7.919   1.927   1.399  1.2646  0.5605  0.4437
 7984SOL    HW228800   8.009   1.961   1.282 -0.5384 -0.5847 -1.3460
 7985SOL     OW28801   3.320   5.098   0.504  0.3251 -0.1802  0.6759
 7985SOL    HW128802   3.358   5.011   0.519 -1.8168 -1.5559 -1.2695
 7985SOL    HW228803   3.325   5.111   0.409 -2.8725  0.0431  0.4398
 7986SOL     OW28804   9.079   8.893   8.925 -0.7389 -0.2726  0.1206
 7986SOL    HW128805   9.108   8.983   8.911 -1.4083 -0.1431 -0.4553
 7986SOL    HW228806   8.991   8.901   8.960 -0.3062 -0.6839  1.3789
 7987SOL     OW28807   7.070   0.675   5.434  0.0508 -0.0512  0.5879
 7987SOL    HW128808   7.053   0.599   5.379 -0.4784  0.0217  0.6463
 7987SOL    HW228809   6.990   0.728   5.428  0.6984  0.8766 -0.0657
 7988SOL     OW28810   5.855   5.619   2.435 -0.0916 -0.0314  0.5093
 7988SOL    HW128811   5.918   5.691   2.436  1.3666 -1.2490  0.3392
 7988SOL    HW228812   5.772   5.659   2.461  0.5194  1.8261 -0.2586
 7989SOL     OW28813   0.623   0.759   5.492 -0.2041 -0.3946 -0.5099
 7989SOL    HW128814   0.583   0.746   5.578 -0.2639  1.5181 -0.2209
 7989SOL    HW228815   0.548   0.758   5.431 -0.4412  0.7402 -0.2469
 7990SOL     OW28816   0.494   4.824   7.887  0.2107  0.7043  0.2136
 7990SOL    HW128817   0.434   4.862   7.824 -0.9643 -0.0710  0.8314
 7990SOL    HW228818   0.575   4.874   7.876  0.8150 -0.7545 -3.3963
 7991SOL     OW28819   3.480   7.154   2.709 -0.4189 -0.1110 -0.0757
 7991SOL    HW128820   3.468   7.209   2.786  0.6894 -0.1207  0.1200
 7991SOL    HW228821   3.399   7.104   2.703 -0.5102 -0.1426  1.1135
 7992SOL     OW28822   5.116   8.530   3.402 -0.5688 -1.0458 -0.4569
 7992SOL    HW128823   5.165   8.565   3.476 -0.0869 -2.4053 -0.0949
 7992SOL    HW228824   5.079   8.448   3.434 -2.4542 -0.4548 -0.9693
 7993SOL     OW28825   6.665   8.783   7.900 -0.0831 -0.0731  0.1583
 7993SOL    HW128826   6.586   8.746   7.861  0.3135  0.0620 -0.8012
 7993SOL    HW228827   6.701   8.839   7.831  1.2806 -0.7562  0.2993
 7994SOL     OW28828   4.696   5.312   0.542  0.1513 -0.0376 -0.3074
 7994SOL    HW128829   4.693   5.407   0.559  2.2066  0.3202 -1.6159
 7994SOL    HW228830   4.781   5.284   0.578  0.6089 -0.9120 -1.9876
 7995SOL     OW28831   1.598   9.574   0.758  0.2903  0.0039  0.1772
 7995SOL    HW128832   1.658   9.646   0.740  1.2722  0.0001  3.0076
 7995SOL    HW228833   1.516   9.616   0.786 -0.0202 -0.0129 -0.6640
 7996SOL     OW28834   5.599   4.889   9.326 -0.1533 -0.6205  0.1627
 7996SOL    HW128835   5.581   4.983   9.326  0.1638 -0.5615  0.4247
 7996SOL    HW228836   5.601   4.864   9.418 -0.1604 -0.8711  0.0965
 7997SOL     OW28837   0.041   3.269   3.820  0.1204  0.2729  0.6396
 7997SOL    HW128838   0.115   3.297   3.766 -0.3385 -2.0509 -1.3598
 7997SOL    HW228839   0.074   3.194   3.868 -0.8238 -0.6608 -0.1159
 7998SOL     OW28840   3.599   8.740   5.070 -0.6783  0.7849 -0.1145
 7998SOL    HW128841   3.563   8.804   5.010 -0.8600  1.7684  0.9995
 7998SOL    HW228842   3.527   8.718   5.129 -0.8312 -1.0201 -0.9075
 7999SOL     OW28843   6.599   5.742   2.038 -0.1048  0.3046  0.2585
 7999SOL    HW128844   6.544   5.750   2.116 -0.0035  2.3833  0.1677
 7999SOL    HW228845   6.686   5.768   2.067  0.8438 -2.6161  0.3119
 8000SOL     OW28846   6.023   0.806   5.361 -0.2259 -0.4541  0.1719
 8000SOL    HW128847   5.931   0.830   5.349 -0.8330 -2.1700  1.0770
 8000SOL    HW228848   6.055   0.789   5.272 -0.5777  0.7863 -0.2106
 8001SOL     OW28849   8.169   0.798   8.723  0.1052  0.8295  0.0865
 8001SOL    HW128850   8.255   0.816   8.686  1.3003 -2.2854  0.9838
 8001SOL    HW228851   8.136   0.725   8.672 -0.4999 -0.1531  1.8043
 8002SOL     OW28852   4.992   9.717   4.189  0.4023 -0.1743 -0.0546
 8002SOL    HW128853   5.003   9.635   4.141 -0.7572 -0.2122 -0.2935
 8002SOL    HW228854   5.080   9.739   4.219  1.2788  0.1105 -2.5996
 8003SOL     OW28855   2.269   8.787   4.711 -0.5481 -0.5022 -0.4267
 8003SOL    HW128856   2.274   8.826   4.623 -0.2425  2.4751  0.7728
 8003SOL    HW228857   2.198   8.835   4.754 -0.9291 -2.1465  0.8652
 8004SOL     OW28858   4.434   4.116   3.131  0.1125  0.1569 -0.0234
 8004SOL    HW128859   4.529   4.110   3.115  0.3940  1.2029  1.1191
 8004SOL    HW228860   4.417   4.210   3.136 -0.4972 -0.0134  2.4415
 8005SOL     OW28861   9.110   1.279   3.704  0.0603 -0.5736  0.4877
 8005SOL    HW128862   9.024   1.240   3.721  1.0648 -2.6147  1.2520
 8005SOL    HW228863   9.152   1.281   3.790  0.5244  1.1283  0.2542
 8006SOL     OW28864   4.531   6.003   8.295 -0.3292 -0.1944  0.2816
 8006SOL    HW128865   4.589   5.995   8.219 -1.4385 -0.8063 -0.5221
 8006SOL    HW228866   4.584   5.972   8.369  0.9859  1.0119 -0.1043
 8007SOL     OW28867   8.173   5.922   9.453 -0.2962  0.1329  0.0571
 8007SOL    HW128868   8.110   5.993   9.461 -1.7852 -1.1208 -0.0529
 8007SOL    HW228869   8.178   5.884   9.540 -2.8013 -2.2484 -0.7035
 8008SOL     OW28870   2.470   5.223   6.203 -0.4095 -0.0498 -0.0523
 8008SOL    HW128871   2.387   5.180   6.182  0.2582 -1.9202  0.8459
 8008SOL    HW228872   2.526   5.205   6.128 -0.5354  0.4248 -0.2616
 8009SOL     OW28873   2.794   9.546   8.598 -0.6310 -0.1578 -0.6909
 8009SOL    HW128874   2.791   9.571   8.690  0.2540  1.4173 -1.0682
 8009SOL    HW228875   2.877   9.501   8.588 -0.0961  0.8774 -0.9956
 8010SOL     OW28876   7.696   5.294   4.706 -0.1120 -0.0761 -0.2890
 8010SOL    HW128877   7.612   5.264   4.672  0.5943 -0.6984 -1.5534
 8010SOL    HW228878   7.717   5.234   4.777  0.0575 -0.9810 -1.0928
 8011SOL     OW28879   5.150   2.307   5.361 -0.4141  0.0225 -0.1613
 8011SOL    HW128880   5.089   2.234   5.363  0.7417 -0.9748  0.2884
 8011SOL    HW228881   5.174   2.321   5.453  0.0467  0.3720 -0.3285
 8012SOL     OW28882   9.714   0.581   5.435 -0.2627 -0.3133 -0.0644
 8012SOL    HW128883   9.655   0.649   5.466 -0.1364 -0.0482 -0.3989
 8012SOL    HW228884   9.787   0.581   5.498 -0.6234 -0.6539  0.3582
 8013SOL     OW28885   6.017   3.353   6.180 -0.3549 -0.2623 -0.2354
 8013SOL    HW128886   6.074   3.419   6.219  0.2215  0.4509 -2.1860
 8013SOL    HW228887   6.044   3.271   6.220  1.0888  0.2608 -0.1031
 8014SOL     OW28888   8.988   8.674   1.082 -0.2085 -0.0546  0.0774
 8014SOL    HW128889   8.916   8.621   1.047 -0.7842  1.9289 -2.0049
 8014SOL    HW228890   8.952   8.715   1.161 -0.2737 -1.4801  0.8096
 8015SOL     OW28891   8.938   3.500   8.510  0.3323 -0.3796 -0.3978
 8015SOL    HW128892   8.955   3.429   8.573 -0.9430 -1.0596 -0.7846
 8015SOL    HW228893   8.863   3.469   8.459 -1.6433  2.1225  0.7804
 8016SOL     OW28894   0.507   4.248   0.547 -0.2901 -0.3863  0.3076
 8016SOL    HW128895   0.445   4.176   0.533 -0.4272 -0.2478  0.1932
 8016SOL    HW228896   0.526   4.245   0.641 -1.9233  0.7232  0.7251
 8017SOL     OW28897   9.592   4.647   2.376  0.2349 -0.5279 -0.3310
 8017SOL    HW128898   9.655   4.576   2.376  0.8209 -0.0195 -0.3348
 8017SOL    HW228899   9.555   4.647   2.464  0.4434 -0.6543 -0.2436
 8018SOL     OW28900   6.067   0.666   9.289 -0.0950  0.0515  0.4000
 8018SOL    HW128901   6.096   0.704   9.372 -1.4637  3.7308 -0.5949
 8018SOL    HW228902   5.994   0.609   9.312  0.6234 -0.3215  1.8313
 8019SOL     OW28903   3.730   1.925   8.039 -0.1905  0.2340 -0.0843
 8019SOL    HW128904   3.771   1.880   7.965  0.5001 -0.0323  0.4376
 8019SOL    HW228905   3.636   1.920   8.022 -0.2568 -2.5884  0.5709
 8020SOL     OW28906   8.085   5.565   2.751  0.4742  0.4073 -0.1006
 8020SOL    HW128907   8.036   5.608   2.822  0.2058  0.7238 -0.4706
 8020SOL    HW228908   8.127   5.637   2.704 -0.7698  0.3739 -1.3225
 8021SOL     OW28909   4.614   0.050   0.854  0.5225 -0.4838  0.2555
 8021SOL    HW128910   4.539   0.110   0.864  0.9516  0.0455  0.3317
 8021SOL    HW228911   4.578  -0.025   0.807 -0.1485 -0.3998  0.6220
 8022SOL     OW28912   0.589   0.400   6.503  0.5088  0.7975  0.1764
 8022SOL    HW128913   0.634   0.333   6.554  0.9238  1.9000  1.3041
 8022SOL    HW228914   0.605   0.375   6.412  2.5381  0.5820  0.5465
 8023SOL     OW28915   9.437   4.996   6.233 -0.2954  0.3184 -0.4499
 8023SOL    HW128916   9.412   4.964   6.147 -0.0051  0.3358 -0.5419
 8023SOL    HW228917   9.511   4.941   6.258 -0.5850  0.0951 -0.0700
 8024SOL     OW28918   6.952   6.127   5.979 -0.0345  0.7259 -0.2448
 8024SOL    HW128919   6.932   6.131   6.072 -1.4422 -2.3891 -0.3000
 8024SOL    HW228920   7.010   6.050   5.970 -0.5726  0.4677 -1.9960
 8025SOL     OW28921   5.349   6.467   2.732  0.0105 -0.1098  0.1553
 8025SOL    HW128922   5.379   6.556   2.714  0.2275 -0.5322 -1.8212
 8025SOL    HW228923   5.423   6.426   2.777  0.9644 -0.0172 -1.2563
 8026SOL     OW28924   8.942   2.586   5.176 -0.3323 -0.5610  0.3630
 8026SOL    HW128925   8.867   2.590   5.236 -1.6147  0.8033 -1.1988
 8026SOL    HW228926   8.903   2.563   5.092  1.2664 -1.3896 -0.1765
 8027SOL     OW28927   0.718   1.522   7.893  0.4018  0.0924 -0.3783
 8027SOL    HW128928   0.755   1.469   7.963  1.2876  1.5452  0.2991
 8027SOL    HW228929   0.645   1.569   7.934 -0.0931 -0.2424 -0.8569
 8028SOL     OW28930   3.085   5.529   3.220  0.2197  0.2395  0.5813
 8028SOL    HW128931   3.105   5.442   3.187 -1.8500 -0.4337  0.9272
 8028SOL    HW228932   3.151   5.545   3.287  1.0789 -0.7308 -0.0003
 8029SOL     OW28933   1.470   7.564   6.672 -0.3951  0.5009 -0.0113
 8029SOL    HW128934   1.458   7.607   6.756  1.9089 -0.8239  1.0672
 8029SOL    HW228935   1.540   7.614   6.629 -0.4984  0.2351 -0.4993
 8030SOL     OW28936   8.276   8.220   0.438 -0.4385 -0.6205  0.0570
 8030SOL    HW128937   8.282   8.152   0.505 -0.4418  0.0621  0.7632
 8030SOL    HW228938   8.188   8.210   0.401 -0.0776 -1.6410 -0.5485
 8031SOL     OW28939   0.518   9.087   5.267 -0.0994 -0.0313  0.7567
 8031SOL    HW128940   0.443   9.048   5.312  0.0805 -1.9088 -0.4685
 8031SOL    HW228941   0.479   9.146   5.202 -0.6606 -1.9610 -0.7650
 8032SOL     OW28942   5.325   4.748   7.403  0.3136  0.6050 -0.5244
 8032SOL    HW128943   5.256   4.767   7.467 -3.5372 -2.1924 -3.4076
 8032SOL    HW228944   5.394   4.705   7.454 -0.8626  1.7358  2.2157
 8033SOL     OW28945   3.093   6.177   7.804 -0.1086  0.5859 -0.4006
 8033SOL    HW128946   3.091   6.143   7.894  0.3027 -0.8518 -0.9062
 8033SOL    HW228947   3.054   6.107   7.752  0.5499  1.0042 -1.4749
 8034SOL     OW28948   5.001   6.793   5.100  0.1917  0.1211 -0.1865
 8034SOL    HW128949   4.972   6.706   5.128  1.1752 -0.2692 -0.3302
 8034SOL    HW228950   5.096   6.789   5.106  0.2274  1.3783  0.3502
 8035SOL     OW28951   3.750   5.453   0.974  0.2407  0.2911 -0.5475
 8035SOL    HW128952   3.698   5.487   1.047 -0.2847  0.1162 -0.8406
 8035SOL    HW228953   3.765   5.361   0.996  0.8140  0.4487 -0.2458
 8036SOL     OW28954   4.806   4.191   3.262  0.1768 -0.1242  0.5193
 8036SOL    HW128955   4.773   4.276   3.233  1.3553  0.1196 -0.1472
 8036SOL    HW228956   4.826   4.143   3.181 -0.9799 -1.2685  0.8683
 8037SOL     OW28957   7.720   2.793   1.629 -0.1410  0.3877  0.5211
 8037SOL    HW128958   7.693   2.828   1.713 -0.4140  2.5414 -0.4008
 8037SOL    HW228959   7.642   2.751   1.594  0.0615 -0.8032  1.4438
 8038SOL     OW28960   8.721   9.583   8.171 -0.3882 -0.2681 -0.1232
 8038SOL    HW128961   8.686   9.538   8.095 -0.1687  1.2099 -1.1357
 8038SOL    HW228962   8.802   9.623   8.140  0.0188 -0.1350  1.0511
 8039SOL     OW28963   4.575   4.803   6.008  0.9169  0.0985 -0.0253
 8039SOL    HW128964   4.495   4.854   5.998  1.3394  0.6679 -0.6670
 8039SOL    HW228965   4.546   4.718   6.040  0.0373  0.2205 -0.4631
 8040SOL     OW28966   7.526   8.651   1.885 -0.0813 -0.2054  0.0706
 8040SOL    HW128967   7.453   8.616   1.935  0.4366 -2.5706 -0.7151
 8040SOL    HW228968   7.556   8.726   1.937 -3.4438  1.3512  0.0448
 8041SOL     OW28969   7.402   0.409   4.430  0.3276 -0.4048  0.2088
 8041SOL    HW128970   7.409   0.321   4.469  0.3316 -0.4629  0.0751
 8041SOL    HW228971   7.420   0.396   4.337 -2.4173 -0.7163 -0.3736
 8042SOL     OW28972   6.214   2.679   8.205  0.1683 -0.4233 -0.4680
 8042SOL    HW128973   6.259   2.619   8.265  0.8004 -2.3220 -2.7205
 8042SOL    HW228974   6.129   2.694   8.246  0.9807 -0.7018  1.4406
 8043SOL     OW28975   2.545   3.402   5.310  0.1805 -0.1176  0.1400
 8043SOL    HW128976   2.582   3.463   5.246 -0.8988 -0.9442 -1.3440
 8043SOL    HW228977   2.531   3.321   5.260 -0.7736 -0.7646  1.4076
 8044SOL     OW28978   9.103   7.830   4.891  0.0393 -0.5913  0.3641
 8044SOL    HW128979   9.047   7.808   4.817 -0.7363  1.4312  0.2750
 8044SOL    HW228980   9.192   7.812   4.860 -0.1188  1.6458 -1.7245
 8045SOL     OW28981   5.740   4.350   8.886  0.4395  0.2761  0.1160
 8045SOL    HW128982   5.747   4.320   8.976  0.0362 -0.0050  0.0552
 8045SOL    HW228983   5.757   4.444   8.891 -1.9825  0.7470  0.8496
 8046SOL     OW28984   4.768   0.183   4.651  0.1683 -0.3537 -0.2791
 8046SOL    HW128985   4.826   0.215   4.721 -2.4809  1.7329  1.1655
 8046SOL    HW228986   4.694   0.143   4.697 -0.0431 -2.1424 -2.0309
 8047SOL     OW28987   8.098   0.645   5.767 -0.2641  0.1557  0.3173
 8047SOL    HW128988   8.021   0.591   5.749 -1.6748  2.3220 -0.6571
 8047SOL    HW228989   8.131   0.668   5.680  1.7003 -0.9320  0.7224
 8048SOL     OW28990   8.171   7.862   8.680 -0.3969  0.4019  0.0921
 8048SOL    HW128991   8.177   7.800   8.608 -0.4549 -0.3758  0.7391
 8048SOL    HW228992   8.082   7.899   8.674 -1.3152 -1.4915  1.2020
 8049SOL     OW28993   8.638   2.754   4.281  0.1465 -0.1272  0.1986
 8049SOL    HW128994   8.619   2.737   4.373  0.8505 -0.6895  0.2473
 8049SOL    HW228995   8.717   2.704   4.263  0.1852  0.2164 -0.6371
 8050SOL     OW28996   0.152   6.555   3.245 -0.1709  0.1605  0.4432
 8050SOL    HW128997   0.199   6.474   3.230  0.8327  0.7100  0.5614
 8050SOL    HW228998   0.110   6.543   3.331  1.4743  0.4320  1.3342
 8051SOL     OW28999   4.507   9.402   5.275  0.0790 -0.0282 -0.4303
 8051SOL    HW129000   4.434   9.461   5.293  0.1423  0.0288 -0.3634
 8051SOL    HW229001   4.582   9.440   5.321 -0.1108 -0.7079  0.4619
 8052SOL     OW29002   7.839   3.746   1.540 -0.3581  0.3387  0.4848
 8052SOL    HW129003   7.859   3.840   1.540  1.1554  0.0985 -1.6691
 8052SOL    HW229004   7.900   3.709   1.603  0.6441  0.5860 -0.2944
 8053SOL     OW29005   2.561   3.794   4.046  0.1165 -0.1642 -0.6184
 8053SOL    HW129006   2.628   3.727   4.031  0.1821 -0.0609 -0.7839
 8053SOL    HW229007   2.525   3.812   3.959  0.2528  0.1775 -0.6040
 8054SOL     OW29008   5.363   8.047   1.402 -0.7842 -0.0285 -0.0561
 8054SOL    HW129009   5.321   8.107   1.464  0.2352 -0.6647  1.3055
 8054SOL    HW229010   5.450   8.031   1.439 -0.0041 -0.1567 -1.8581
 8055SOL     OW29011   8.221   4.191   8.732 -0.4997 -0.2684  0.8174
 8055SOL    HW129012   8.259   4.158   8.650 -1.7556 -0.0018  0.1054
 8055SOL    HW229013   8.281   4.261   8.759 -0.9182  0.7608 -0.7659
 8056SOL     OW29014   0.978   3.137   8.042  0.4433  0.8062 -0.3058
 8056SOL    HW129015   0.998   3.048   8.013  1.4826  0.7201  0.6079
 8056SOL    HW229016   0.882   3.140   8.046  0.3945 -0.3611 -0.0879
 8057SOL     OW29017   0.892   3.804   6.119  0.2159 -0.2746  0.6226
 8057SOL    HW129018   0.969   3.757   6.152  0.5038  0.7665  1.4743
 8057SOL    HW229019   0.818   3.747   6.141  0.6742 -0.9840  0.3692
 8058SOL     OW29020   1.908   4.466   6.426  0.0238 -0.3378 -0.0499
 8058SOL    HW129021   1.972   4.466   6.355 -0.8164  1.1433 -0.8515
 8058SOL    HW229022   1.828   4.431   6.386 -0.1473 -0.5658  0.4822
 8059SOL     OW29023   4.097   7.245   1.919 -0.0663 -0.8012 -0.2706
 8059SOL    HW129024   4.151   7.183   1.969 -0.8242  0.4043  2.2458
 8059SOL    HW229025   4.009   7.206   1.919 -1.2008  1.2172  3.6524
 8060SOL     OW29026   0.534   0.171   9.699  0.6430 -0.1307 -0.1909
 8060SOL    HW129027   0.469   0.209   9.758  1.6303 -2.6494  2.7952
 8060SOL    HW229028   0.483   0.133   9.628 -0.7761  1.2555  0.0347
 8061SOL     OW29029   6.658   4.324   1.996  0.3887 -0.1297 -0.3366
 8061SOL    HW129030   6.703   4.275   1.927 -1.8647 -3.5632  0.4121
 8061SOL    HW229031   6.580   4.359   1.954  1.2220  1.7344 -0.4796
 8062SOL     OW29032   9.217   9.475   1.435  0.1572  0.1211 -0.0003
 8062SOL    HW129033   9.304   9.488   1.397 -0.6738 -0.5422 -2.2224
 8062SOL    HW229034   9.215   9.383   1.459 -0.1121  0.0284 -0.3864
 8063SOL     OW29035   4.432   3.668   5.047  0.2076  0.2099  0.8541
 8063SOL    HW129036   4.461   3.672   4.956 -2.5259  1.6824 -0.0571
 8063SOL    HW229037   4.338   3.653   5.042 -0.5295  2.9851  3.2891
 8064SOL     OW29038   2.933   8.781   1.716 -0.0331 -0.3615  0.4148
 8064SOL    HW129039   2.895   8.788   1.804 -0.8649 -0.9529  0.1095
 8064SOL    HW229040   3.022   8.749   1.732 -0.1839 -0.4920  1.0458
 8065SOL     OW29041   5.831   2.077   6.435 -0.3202 -0.1366 -0.0278
 8065SOL    HW129042   5.788   2.142   6.491 -0.3670  0.0492 -0.2779
 8065SOL    HW229043   5.890   2.128   6.380 -2.1871  0.0330 -1.9897
 8066SOL     OW29044   7.550   2.412   1.383  0.2254  0.1521 -0.0587
 8066SOL    HW129045   7.619   2.346   1.376 -1.0542 -1.1059 -1.9462
 8066SOL    HW229046   7.523   2.428   1.292 -2.0043  0.5129  0.5905
 8067SOL     OW29047   8.726   0.112   0.257  0.1306  0.8196 -0.0092
 8067SOL    HW129048   8.734   0.196   0.210  3.2064 -1.0729 -3.3871
 8067SOL    HW229049   8.816   0.088   0.278 -0.7004 -1.5314  1.1674
 8068SOL     OW29050   3.111   3.391   3.716 -0.3884  0.3203 -0.2307
 8068SOL    HW129051   3.042   3.422   3.774 -1.6644 -0.6115 -1.2039
 8068SOL    HW229052   3.104   3.446   3.638 -1.4215 -1.0600 -1.1742
 8069SOL     OW29053   8.817   5.987   9.693 -0.0228  0.2374 -0.2085
 8069SOL    HW129054   8.730   6.026   9.683  0.0769  0.3675 -0.5737
 8069SOL    HW229055   8.875   6.044   9.643  0.5140  0.9488  1.1710
 8070SOL     OW29056   2.087   1.760   6.248 -0.2375  0.1728  0.2051
 8070SOL    HW129057   2.096   1.781   6.155 -0.7149 -2.1145 -0.4246
 8070SOL    HW229058   2.009   1.808   6.277 -0.2338  0.6944 -0.6331
 8071SOL     OW29059   6.586   5.410   9.254  0.7124  0.0582 -0.1434
 8071SOL    HW129060   6.619   5.325   9.224 -1.2137 -1.1415  1.0052
 8071SOL    HW229061   6.661   5.468   9.245  1.4323 -1.1446 -3.3103
 8072SOL     OW29062   1.104   0.041   7.533 -0.1983  0.0632  0.9263
 8072SOL    HW129063   1.032   0.053   7.595  0.2236 -0.6321  1.5637
 8072SOL    HW229064   1.177   0.091   7.570 -0.0007 -0.2013  0.9020
 8073SOL     OW29065   6.197   6.205   8.045  0.2038 -0.3742 -0.1238
 8073SOL    HW129066   6.193   6.277   8.108  0.8489  0.3993 -0.9291
 8073SOL    HW229067   6.289   6.179   8.045  0.2602 -0.1917 -0.9242
 8074SOL     OW29068   4.742   0.987   4.850 -0.6701  0.3467  0.2858
 8074SOL    HW129069   4.826   1.027   4.828  2.1748 -3.1444  3.4377
 8074SOL    HW229070   4.707   1.042   4.919  0.5360  0.3010  0.9601
 8075SOL     OW29071   6.306   8.739   3.221  0.6202  0.0507  0.4211
 8075SOL    HW129072   6.387   8.688   3.214  1.4440  1.2938  0.4194
 8075SOL    HW229073   6.294   8.777   3.134 -0.3325 -0.6475  0.2445
 8076SOL     OW29074   7.803   0.817   3.580  0.1654  1.1261  0.0197
 8076SOL    HW129075   7.716   0.815   3.541 -0.2544  0.1134  0.9432
 8076SOL    HW229076   7.823   0.725   3.599  0.5853  1.5088  1.6018
 8077SOL     OW29077   3.645   0.332   1.936 -0.4847  0.1679 -0.1890
 8077SOL    HW129078   3.581   0.300   1.999 -0.2841 -1.5373 -0.7911
 8077SOL    HW229079   3.705   0.258   1.923 -0.6657  0.3499 -2.5478
 8078SOL     OW29080   6.891   0.802   2.866  0.1087 -0.2179  0.5733
 8078SOL    HW129081   6.813   0.803   2.811  1.6406  0.4186 -1.7287
 8078SOL    HW229082   6.906   0.894   2.889  0.7232 -0.2125  0.1691
 8079SOL     OW29083   3.174   0.672   7.717  0.2268  0.1316 -0.1966
 8079SOL    HW129084   3.213   0.759   7.726 -0.6983  0.6259 -0.7723
 8079SOL    HW229085   3.119   0.678   7.639 -0.4017 -0.7616  0.1578
 8080SOL     OW29086   8.119   4.463   8.780  0.2058  0.2327 -0.2584
 8080SOL    HW129087   8.213   4.453   8.794 -0.1766 -0.4882  2.3615
 8080SOL    HW229088   8.107   4.447   8.687  2.6361  0.0529 -0.6053
 8081SOL     OW29089   2.081   4.223   0.904  0.2251  0.5344  0.3778
 8081SOL    HW129090   2.087   4.319   0.898 -3.0773  1.0288  2.4494
 8081SOL    HW229091   2.017   4.208   0.974  0.4674 -3.2244 -0.0399
 8082SOL     OW29092   8.464   8.772   2.814 -0.0481  0.6270  0.3038
 8082SOL    HW129093   8.456   8.748   2.906 -1.1743  1.5908  0.4775
 8082SOL    HW229094   8.486   8.865   2.815 -0.2954  0.7019 -0.4005
 8083SOL     OW29095   9.267   2.499   3.309 -0.1837  0.0233 -0.0629
 8083SOL    HW129096   9.359   2.517   3.326  0.1714 -1.9853  0.4132
 8083SOL    HW229097   9.237   2.451   3.386 -1.0717 -1.0931 -1.0689
 8084SOL     OW29098   4.131   7.968   6.213 -0.4147 -0.2516  0.1957
 8084SOL    HW129099   4.168   8.052   6.184 -1.6785  0.5236  0.7342
 8084SOL    HW229100   4.039   7.987   6.231 -0.6406 -1.6739  0.7078
 8085SOL     OW29101   4.690   4.583   7.142  0.1608  0.0362 -0.2571
 8085SOL    HW129102   4.708   4.535   7.223 -0.0303 -0.1735 -0.3395
 8085SOL    HW229103   4.770   4.634   7.127 -0.1429  0.7913  0.5541
 8086SOL     OW29104   0.324   7.436   5.777 -0.4938 -0.9889  0.5388
 8086SOL    HW129105   0.260   7.476   5.719  0.8528 -0.3891 -0.6081
 8086SOL    HW229106   0.277   7.364   5.819 -1.7086 -1.0316 -0.8037
 8087SOL     OW29107   9.446   3.904   5.071 -0.3742 -0.0583 -0.2517
 8087SOL    HW129108   9.474   3.866   5.154  0.8790  2.9418  0.8346
 8087SOL    HW229109   9.525   3.903   5.017  0.6059  3.4209  0.8619
 8088SOL     OW29110   9.505   5.846   9.148 -0.3148 -0.3015  0.3531
 8088SOL    HW129111   9.440   5.891   9.202  0.4946  0.3016  0.8465
 8088SOL    HW229112   9.542   5.780   9.206 -0.1546 -0.3313  0.2153
 8089SOL     OW29113   7.962   5.940   4.964 -0.3650  0.5838 -0.0282
 8089SOL    HW129114   8.056   5.956   4.973  0.0555 -1.4337 -0.1557
 8089SOL    HW229115   7.948   5.928   4.870 -0.6772  0.4923  0.0285
 8090SOL     OW29116   4.537   4.002   6.702  0.6597  0.2689  0.0226
 8090SOL    HW129117   4.513   4.081   6.654  1.0623 -0.7193 -1.8676
 8090SOL    HW229118   4.633   4.004   6.705  0.6565  0.0480  0.3135
 8091SOL     OW29119   8.202   0.435   9.674  0.8986  0.2331 -0.0451
 8091SOL    HW129120   8.206   0.344   9.701 -0.8594  0.8769  2.8214
 8091SOL    HW229121   8.145   0.434   9.597  0.2359 -1.0308  0.4264
 8092SOL     OW29122   7.667   1.050   4.097  0.4662  0.1841 -0.5285
 8092SOL    HW129123   7.591   1.054   4.038  0.0611 -0.6310 -0.0777
 8092SOL    HW229124   7.629   1.046   4.185  0.9686 -1.7450 -0.3601
 8093SOL     OW29125   5.259   2.424   1.466  0.5045 -0.1362  0.3145
 8093SOL    HW129126   5.186   2.482   1.444  1.0684  1.1932  1.7661
 8093SOL    HW229127   5.338   2.476   1.448  1.1346 -1.3708 -0.7437
 8094SOL     OW29128   0.812   4.438   5.011  0.0738  0.2847  0.3292
 8094SOL    HW129129   0.811   4.374   4.940 -0.5524  0.3017  0.3209
 8094SOL    HW229130   0.816   4.386   5.091  1.1897  0.2718  0.2787
 8095SOL     OW29131   2.749   6.245   0.200 -0.1575  0.3544  0.0378
 8095SOL    HW129132   2.840   6.274   0.206  0.4634 -1.0304 -1.5970
 8095SOL    HW229133   2.697   6.324   0.215  1.2930  1.1359  1.2121
 8096SOL     OW29134   9.031   8.546   6.619 -0.3224  0.2154  0.0877
 8096SOL    HW129135   8.954   8.561   6.674 -0.3304  0.8977 -0.0942
 8096SOL    HW229136   9.065   8.634   6.601  0.5633 -0.0789  0.2544
 8097SOL     OW29137   5.365   2.939   6.302  0.6494  0.2724 -0.2649
 8097SOL    HW129138   5.380   2.910   6.393  2.0543  0.1423 -0.5190
 8097SOL    HW229139   5.385   2.862   6.249 -0.4306  0.2661 -0.6914
 8098SOL     OW29140   9.105   3.029   2.275 -0.1908  0.2957 -0.5247
 8098SOL    HW129141   9.184   3.081   2.287 -1.4423  2.1135  0.1906
 8098SOL    HW229142   9.111   2.962   2.344  1.0278 -0.0260 -0.9080
 8099SOL     OW29143   1.212   6.822   8.093  0.3041 -0.5741 -0.4170
 8099SOL    HW129144   1.199   6.884   8.165  0.2751 -0.5046 -0.4819
 8099SOL    HW229145   1.290   6.854   8.048  1.1489 -1.4123  0.4119
 8100SOL     OW29146   3.387   9.652   7.980  0.3256  0.5927 -0.5741
 8100SOL    HW129147   3.426   9.584   7.925 -0.2979 -0.4196  0.2101
 8100SOL    HW229148   3.293   9.645   7.964  0.1604  0.4710  0.3963
 8101SOL     OW29149   2.915   1.355   8.917 -0.4116 -0.4595 -0.0730
 8101SOL    HW129150   2.876   1.332   9.002  0.5311 -0.2658  0.4235
 8101SOL    HW229151   3.001   1.391   8.939  0.3789 -1.6033 -1.1986
 8102SOL     OW29152   0.927   4.988   7.910 -0.4295  0.2363  0.0021
 8102SOL    HW129153   1.004   4.937   7.935 -1.4469 -0.9742  0.7783
 8102SOL    HW229154   0.895   5.024   7.993 -1.8033 -0.8799 -0.0119
 8103SOL     OW29155   0.501   1.731   3.204 -0.1031 -0.0067 -0.1210
 8103SOL    HW129156   0.573   1.744   3.142 -0.4462 -0.8963 -0.7358
 8103SOL    HW229157   0.468   1.819   3.222  0.3379  0.3043 -0.8019
 8104SOL     OW29158   2.227   7.388   2.727  1.0968  0.0236 -0.3575
 8104SOL    HW129159   2.244   7.458   2.664  0.2519  0.5089 -0.0620
 8104SOL    HW229160   2.300   7.328   2.715  2.5889  1.6153  0.3243
 8105SOL     OW29161   2.315   5.488   4.591  0.4615 -0.2088  0.0080
 8105SOL    HW129162   2.353   5.556   4.535  0.5723  0.2542  0.6369
 8105SOL    HW229163   2.248   5.533   4.642  1.9150 -0.0710  1.9266
 8106SOL     OW29164   5.936   1.290   3.907  0.4741 -0.2673 -0.1484
 8106SOL    HW129165   5.858   1.303   3.962  1.0303 -0.2360  0.6589
 8106SOL    HW229166   5.950   1.195   3.908 -0.5446 -0.4521 -1.7175
 8107SOL     OW29167   7.190   8.363   6.355 -0.0799 -0.0131 -0.2590
 8107SOL    HW129168   7.257   8.356   6.423  0.2508 -0.6220 -0.6323
 8107SOL    HW229169   7.128   8.294   6.376 -0.9288  0.9398  0.4348
 8108SOL     OW29170   3.021   8.565   6.540 -0.2104 -0.1003  0.5962
 8108SOL    HW129171   3.106   8.606   6.528  0.8548 -2.3615 -0.2403
 8108SOL    HW229172   3.017   8.542   6.633 -0.3961  0.9491  0.8587
 8109SOL     OW29173   9.560   1.040   0.170  0.1549 -0.2873  0.1662
 8109SOL    HW129174   9.578   1.091   0.249 -1.3756  0.3626  0.1355
 8109SOL    HW229175   9.645   1.029   0.128  0.8762  0.0476  1.4896
 8110SOL     OW29176   7.921   1.520   7.355  0.2331 -0.1264  0.3998
 8110SOL    HW129177   8.011   1.498   7.380  0.5117 -1.2958 -1.4250
 8110SOL    HW229178   7.873   1.439   7.367 -0.1901  0.0215 -0.2619
 8111SOL     OW29179   0.853   7.337   7.572 -0.1179  0.0458  0.1373
 8111SOL    HW129180   0.788   7.371   7.511  0.4758 -1.2868 -1.3163
 8111SOL    HW229181   0.937   7.354   7.529  0.4195  0.3516  1.2667
 8112SOL     OW29182   7.271   2.138   2.321  0.1359  0.8749 -0.2272
 8112SOL    HW129183   7.233   2.187   2.394 -3.2352  0.3447 -1.4566
 8112SOL    HW229184   7.262   2.046   2.345  0.9124  0.7185 -0.4829
 8113SOL     OW29185   4.596   0.930   4.509  0.6981 -0.1874 -0.1625
 8113SOL    HW129186   4.641   0.980   4.441  0.0200  0.2992 -0.2564
 8113SOL    HW229187   4.641   0.845   4.509  1.5792  0.2677 -0.2858
 8114SOL     OW29188   3.495   9.636   9.272  0.4812 -0.0865 -0.1863
 8114SOL    HW129189   3.486   9.703   9.204  0.8515 -1.2039 -1.3900
 8114SOL    HW229190   3.454   9.558   9.234 -1.0553 -0.2348  1.6769
 8115SOL     OW29191   6.413   0.725   2.026  0.4083 -0.1728 -0.5989
 8115SOL    HW129192   6.490   0.676   1.997  0.0206 -1.0433 -0.1723
 8115SOL    HW229193   6.422   0.810   1.982  3.2135  0.9308  1.7760
 8116SOL     OW29194   8.222   2.333   7.695  0.6288 -0.4899  0.6849
 8116SOL    HW129195   8.274   2.413   7.706  1.6211 -1.2073  1.3407
 8116SOL    HW229196   8.198   2.333   7.602  2.6705 -0.6474  0.1110
 8117SOL     OW29197   6.895   6.766   4.802  0.0959 -0.3182  0.1972
 8117SOL    HW129198   6.982   6.806   4.794 -0.1398  0.3837  0.9717
 8117SOL    HW229199   6.897   6.723   4.888  0.1160 -1.4310 -0.3424
 8118SOL     OW29200   6.409   6.509   2.431 -0.1518  0.5171 -0.0865
 8118SOL    HW129201   6.374   6.434   2.479  0.4798 -0.3780 -0.9685
 8118SOL    HW229202   6.374   6.586   2.476 -1.2195 -0.3132  0.5319
 8119SOL     OW29203   2.838   3.495   2.830 -0.2593 -0.1971 -0.5353
 8119SOL    HW129204   2.859   3.407   2.799  0.1102 -0.7070  1.0701
 8119SOL    HW229205   2.764   3.522   2.776  1.0786 -0.5128 -2.6806
 8120SOL     OW29206   2.097   2.963   8.260 -0.3525 -0.2463  0.2924
 8120SOL    HW129207   2.001   2.964   8.266 -0.3767 -0.5988  0.0276
 8120SOL    HW229208   2.127   2.969   8.350 -0.6089  0.9791  0.3182
 8121SOL     OW29209   8.258   7.986   0.594  0.4339 -0.7379 -0.6007
 8121SOL    HW129210   8.347   7.968   0.626  0.0948 -0.9595  0.2501
 8121SOL    HW229211   8.224   7.900   0.570  0.4582 -0.6497 -0.9522
 8122SOL     OW29212   2.828   7.689   0.299  0.0748 -0.1085  0.2742
 8122SOL    HW129213   2.795   7.742   0.226 -1.4907 -2.2950 -0.7132
 8122SOL    HW229214   2.913   7.658   0.269 -1.0415 -1.9551 -1.2649
 8123SOL     OW29215   8.350   7.902   5.717  0.1247  0.0669 -0.2704
 8123SOL    HW129216   8.261   7.883   5.687 -0.4748 -0.5744  1.7603
 8123SOL    HW229217   8.379   7.822   5.760  0.7563  1.0183  1.1620
 8124SOL     OW29218   5.658   7.669   9.567 -0.1183  0.0983  0.5443
 8124SOL    HW129219   5.633   7.576   9.567  0.5968 -0.0980  0.8385
 8124SOL    HW229220   5.654   7.694   9.474  2.4146 -1.0061  0.0381
 8125SOL     OW29221   0.310   0.271   6.541 -0.1856 -1.0911 -0.2180
 8125SOL    HW129222   0.338   0.362   6.531 -2.2076 -0.2848  0.9822
 8125SOL    HW229223   0.220   0.270   6.510 -0.4235 -2.5470  0.4524
 8126SOL     OW29224   5.088   0.495   8.505 -0.4792  0.1381  0.6139
 8126SOL    HW129225   5.082   0.582   8.544  0.7425  0.3352  0.4232
 8126SOL    HW229226   5.169   0.459   8.542 -1.7736 -1.5579  1.9149
 8127SOL     OW29227   4.208   7.099   2.116  0.3263 -0.0901  0.5235
 8127SOL    HW129228   4.236   7.041   2.186 -1.3564 -3.1599 -1.1633
 8127SOL    HW229229   4.161   7.170   2.161  0.1453 -1.4104  2.5503
 8128SOL     OW29230   2.142   6.336   3.647 -0.0783 -0.1805 -0.3271
 8128SOL    HW129231   2.093   6.319   3.567  2.3459  0.5951 -2.1176
 8128SOL    HW229232   2.131   6.257   3.699 -1.0526 -1.0628 -1.8021
 8129SOL     OW29233   6.768   5.237   4.169  0.6379  0.1682  0.8740
 8129SOL    HW129234   6.772   5.253   4.075 -0.4350 -0.3799  0.7160
 8129SOL    HW229235   6.813   5.153   4.181  0.2456 -0.0642  0.7537
 8130SOL     OW29236   4.740   9.104   4.518  0.4457 -0.0053 -0.1255
 8130SOL    HW129237   4.714   9.075   4.431 -1.0140  1.6090 -0.2835
 8130SOL    HW229238   4.659   9.103   4.569  0.3821  2.9289  0.0351
 8131SOL     OW29239   4.235   5.150   8.702  0.6687 -0.7187  0.0069
 8131SOL    HW129240   4.326   5.178   8.696  0.2947  0.9608  1.2981
 8131SOL    HW229241   4.220   5.137   8.796 -0.2086 -1.7623 -0.2583
 8132SOL     OW29242   4.298   5.358   1.835 -0.8247 -0.2052  0.0993
 8132SOL    HW129243   4.210   5.343   1.800 -0.6793  0.8913 -0.7836
 8132SOL    HW229244   4.336   5.271   1.842 -1.3567 -0.5707 -1.1907
 8133SOL     OW29245   1.990   6.820   1.193 -0.1548 -0.1384 -0.0073
 8133SOL    HW129246   1.958   6.832   1.282 -1.3936  0.5261 -0.5312
 8133SOL    HW229247   2.058   6.887   1.183 -0.8366  0.5719  0.0535
 8134SOL     OW29248   9.102   5.606   5.002 -0.6613 -0.2245 -0.1131
 8134SOL    HW129249   9.094   5.606   5.098  0.9019 -0.8948  0.0450
 8134SOL    HW229250   9.106   5.699   4.979 -1.1839 -0.0534  0.4586
 8135SOL     OW29251   3.735   7.603   8.760 -0.3542 -0.9498 -0.7586
 8135SOL    HW129252   3.768   7.682   8.802 -0.8613 -1.9264  1.6560
 8135SOL    HW229253   3.656   7.630   8.714 -1.8216 -0.3818  1.9135
 8136SOL     OW29254   1.149   7.141   7.712  0.1873 -0.2468  0.2142
 8136SOL    HW129255   1.163   7.167   7.621 -0.7032 -1.5705 -0.3165
 8136SOL    HW229256   1.054   7.137   7.722  0.2423  0.9209  1.5250
 8137SOL     OW29257   2.280   7.962   8.504 -0.5685  0.0258 -0.3334
 8137SOL    HW129258   2.226   7.955   8.425  0.2887 -1.3641 -0.8345
 8137SOL    HW229259   2.370   7.947   8.473 -0.0431  0.8661  0.6980
 8138SOL     OW29260   4.798   8.644   5.592  0.1506 -0.0636  0.3212
 8138SOL    HW129261   4.747   8.650   5.511  1.2936 -1.0929 -0.5350
 8138SOL    HW229262   4.771   8.561   5.630  1.1038 -0.5954 -0.1173
 8139SOL     OW29263   0.607   3.060   4.989  0.2068  0.2932 -0.2972
 8139SOL    HW129264   0.538   3.008   5.029 -0.6977  0.8157 -1.1358
 8139SOL    HW229265   0.601   3.146   5.032  0.7461  0.1593  0.0594
 8140SOL     OW29266   7.778   6.240   2.167  0.0041  0.7442 -0.6821
 8140SOL    HW129267   7.741   6.217   2.082 -1.4581  2.1763 -0.4863
 8140SOL    HW229268   7.853   6.182   2.177 -0.4545 -0.2274 -2.4412
 8141SOL     OW29269   9.141   5.135   6.887  0.6329  0.0017  0.1413
 8141SOL    HW129270   9.126   5.172   6.801  1.0161  0.0501  0.0938
 8141SOL    HW229271   9.132   5.040   6.874 -2.0187  0.1228  0.5944
 8142SOL     OW29272   8.360   3.765   5.908 -0.2857  0.0844 -0.2287
 8142SOL    HW129273   8.335   3.834   5.969 -0.4488  0.6643 -0.9377
 8142SOL    HW229274   8.330   3.796   5.822 -0.0044 -0.6830 -0.6184
 8143SOL     OW29275   3.891   8.550   3.562 -0.0869 -0.1627 -0.3318
 8143SOL    HW129276   3.880   8.527   3.469 -1.0017 -0.6125 -0.1204
 8143SOL    HW229277   3.810   8.521   3.604 -0.2698  1.2961  0.3814
 8144SOL     OW29278   7.075   6.853   6.578 -0.2037  0.3796 -0.5493
 8144SOL    HW129279   7.150   6.817   6.625  0.1829  1.9787  0.1241
 8144SOL    HW229280   7.000   6.805   6.613  0.2623  0.3718  0.4688
 8145SOL     OW29281   7.294   2.903   9.283 -0.8195 -0.3079 -0.1666
 8145SOL    HW129282   7.338   2.987   9.298 -0.4457 -0.6601  0.7738
 8145SOL    HW229283   7.349   2.858   9.219  0.0872 -0.6490  0.8316
 8146SOL     OW29284   0.032   7.475   9.517 -0.0573  0.9165  0.3642
 8146SOL    HW129285  -0.014   7.555   9.494 -2.5114  0.0417  1.8114
 8146SOL    HW229286   0.016   7.416   9.444 -0.0133  1.0743  0.2276
 8147SOL     OW29287   3.134   6.812   5.674 -0.6682  0.5658  1.3371
 8147SOL    HW129288   3.192   6.862   5.617 -0.4480 -1.3717 -0.2591
 8147SOL    HW229289   3.047   6.848   5.657 -0.4964  0.5281  0.2921
 8148SOL     OW29290   1.526   0.124   9.017 -0.1902  0.3773  0.0328
 8148SOL    HW129291   1.477   0.054   9.059 -0.7678  1.0387  0.4883
 8148SOL    HW229292   1.465   0.162   8.954  1.0554 -1.4531 -2.4787
 8149SOL     OW29293   3.725   6.890   7.837  0.0490 -0.0087 -0.6050
 8149SOL    HW129294   3.661   6.932   7.894 -0.6109 -1.2810 -0.3577
 8149SOL    HW229295   3.707   6.796   7.846  0.0542 -0.2725 -2.7540
 8150SOL     OW29296   3.418   2.916   5.201 -0.4521  0.1807  1.0334
 8150SOL    HW129297   3.407   2.912   5.296 -3.4096 -1.1216  0.7375
 8150SOL    HW229298   3.413   3.010   5.181 -1.1207  0.3777  2.0469
 8151SOL     OW29299   9.443   7.251   9.317 -0.1842  0.1994  0.0896
 8151SOL    HW129300   9.404   7.282   9.235  0.9201 -1.2650 -1.0597
 8151SOL    HW229301   9.389   7.176   9.342 -1.2218  1.3231  1.3892
 8152SOL     OW29302   5.439   5.043   6.062 -0.2480  0.0096  1.1644
 8152SOL    HW129303   5.393   5.120   6.029 -1.3064 -1.4222 -0.9746
 8152SOL    HW229304   5.410   5.035   6.153  0.6463  2.6097  1.7593
 8153SOL     OW29305   8.711   4.764   2.809  0.1649  0.7104  0.3907
 8153SOL    HW129306   8.787   4.790   2.757  1.0930  0.5054  1.6065
 8153SOL    HW229307   8.636   4.800   2.762  0.7431 -1.2594 -2.2699
 8154SOL     OW29308   9.114   1.015   4.320 -0.3301  0.1637 -0.6812
 8154SOL    HW129309   9.200   0.974   4.307 -0.7070 -0.6054 -0.8137
 8154SOL    HW229310   9.133   1.095   4.368  0.2067 -1.4945  2.0834
 8155SOL     OW29311   4.888   2.509   6.312  0.3709  0.1954  0.7119
 8155SOL    HW129312   4.900   2.579   6.377  4.1586  1.2688 -0.8545
 8155SOL    HW229313   4.958   2.447   6.330  0.6385 -0.1993 -1.3770
 8156SOL     OW29314   3.417   2.562   2.405 -0.0122 -0.4716  0.0632
 8156SOL    HW129315   3.443   2.654   2.416  0.0787 -0.5007  0.0853
 8156SOL    HW229316   3.376   2.560   2.318 -0.7367 -0.2437  0.3892
 8157SOL     OW29317   5.881   9.617   8.380 -0.4138  0.6320  0.3685
 8157SOL    HW129318   5.939   9.576   8.316 -0.5292 -0.2740  0.8142
 8157SOL    HW229319   5.802   9.637   8.332 -1.2081 -1.6997  0.5635
 8158SOL     OW29320   7.520   2.091   1.481  0.0565  0.0715 -0.1650
 8158SOL    HW129321   7.438   2.109   1.435  0.9168  1.4107 -1.2703
 8158SOL    HW229322   7.575   2.047   1.415  0.6309  0.2432  0.1932
 8159SOL     OW29323   6.670   8.989   2.299 -0.2747 -0.1783 -0.1489
 8159SOL    HW129324   6.741   8.931   2.327  0.9729  1.4221  0.2426
 8159SOL    HW229325   6.593   8.958   2.345 -0.1119 -2.6242 -1.3785
 8160SOL     OW29326   1.269   4.786   6.276 -0.1345  0.1227  0.5311
 8160SOL    HW129327   1.332   4.796   6.205  0.1708 -0.9173  0.6422
 8160SOL    HW229328   1.186   4.769   6.231 -0.0851  0.1964  0.4107
 8161SOL     OW29329   2.025   4.400   5.009 -0.2221 -0.0168 -0.6246
 8161SOL    HW129330   1.997   4.420   4.920  1.6612  1.0409 -1.0339
 8161SOL    HW229331   2.044   4.486   5.048 -0.7077 -0.4855  0.7005
 8162SOL     OW29332   4.946   2.820   4.595  0.1947  0.4186  0.5965
 8162SOL    HW129333   4.882   2.873   4.548  1.3517  0.8750 -0.5155
 8162SOL    HW229334   4.914   2.730   4.587  0.4517  0.4555 -1.2557
 8163SOL     OW29335   5.786   8.813   4.287 -0.0515  0.6844 -0.1503
 8163SOL    HW129336   5.703   8.791   4.330 -0.2718  1.3642 -0.2116
 8163SOL    HW229337   5.812   8.733   4.241 -0.7308  0.5021 -0.2212
 8164SOL     OW29338   1.888   5.423   6.604 -0.1104  0.2564  0.2291
 8164SOL    HW129339   1.805   5.402   6.646  0.7764 -0.0927  1.8984
 8164SOL    HW229340   1.944   5.453   6.675  0.4932  2.8290 -1.2034
 8165SOL     OW29341   5.018   8.246   3.406  0.1970  0.1965  0.2581
 8165SOL    HW129342   5.075   8.200   3.344 -0.7731 -1.2644  0.3811
 8165SOL    HW229343   4.949   8.182   3.427 -0.1207  1.0320  1.9836
 8166SOL     OW29344   6.115   8.922   1.151 -0.8342  0.8285  0.0780
 8166SOL    HW129345   6.145   8.917   1.061 -1.6526  0.8785 -0.2020
 8166SOL    HW229346   6.127   9.013   1.176  1.1514  0.4689  0.6594
 8167SOL     OW29347   6.642   1.232   3.255  0.6840  0.4459  0.0306
 8167SOL    HW129348   6.575   1.169   3.281  0.4447  0.9429  0.6412
 8167SOL    HW229349   6.667   1.205   3.167  0.0265 -0.0304 -0.0180
 8168SOL     OW29350   2.482   4.152   3.984 -0.5311  1.1396  0.4252
 8168SOL    HW129351   2.418   4.190   4.045 -1.4622  0.2095  0.0514
 8168SOL    HW229352   2.566   4.161   4.028 -1.0755  1.3101  1.4450
 8169SOL     OW29353   1.402   0.279   8.160  1.0687 -0.4916  0.3269
 8169SOL    HW129354   1.310   0.303   8.167  0.9536 -0.7900 -0.1255
 8169SOL    HW229355   1.446   0.359   8.132  0.5930 -0.9373 -1.8396
 8170SOL     OW29356   3.924   7.675   2.843 -0.0871  0.1727  0.2852
 8170SOL    HW129357   3.928   7.582   2.866  0.3333  0.2825  0.6692
 8170SOL    HW229358   3.871   7.715   2.912 -0.1000  0.2509  0.2301
 8171SOL     OW29359   7.768   5.894   1.063  0.0887  0.1242 -0.0341
 8171SOL    HW129360   7.801   5.888   1.153  0.4725 -0.7502 -0.2232
 8171SOL    HW229361   7.806   5.975   1.029 -1.5795  1.5148  1.1753
 8172SOL     OW29362   3.936   3.914   4.488  0.1240  0.3721 -0.4145
 8172SOL    HW129363   3.877   3.968   4.435 -1.8941 -0.4145  0.8948
 8172SOL    HW229364   3.932   3.827   4.447 -0.8001 -0.0324  0.4793
 8173SOL     OW29365   1.681   1.091   8.474 -0.0054 -0.4196  0.5041
 8173SOL    HW129366   1.711   1.025   8.537  2.1550  0.5191  0.5658
 8173SOL    HW229367   1.623   1.044   8.415  2.5346 -2.8202 -0.3100
 8174SOL     OW29368   5.805   1.364   4.680 -0.7150  0.1703 -0.1515
 8174SOL    HW129369   5.858   1.306   4.735  0.6965  1.7774  0.2349
 8174SOL    HW229370   5.734   1.392   4.737  0.0943  0.9107  0.5197
 8175SOL     OW29371   4.906   2.671   3.372  0.2656 -0.2973 -0.1292
 8175SOL    HW129372   4.879   2.587   3.410 -2.6208  0.3393 -0.4706
 8175SOL    HW229373   4.919   2.728   3.448  1.9538 -0.9290  0.0915
 8176SOL     OW29374   5.585   7.071   9.344  0.7048  0.4328 -0.2261
 8176SOL    HW129375   5.501   7.116   9.350  0.2256 -0.1854 -1.8732
 8176SOL    HW229376   5.617   7.067   9.434  0.6308  3.7482  0.0746
 8177SOL     OW29377   5.626   3.360   9.277 -0.0274  0.1754  0.1296
 8177SOL    HW129378   5.658   3.430   9.219 -0.4798  0.6557  0.4581
 8177SOL    HW229379   5.629   3.281   9.222 -1.4408  0.7938 -0.9063
 8178SOL     OW29380   0.575   2.568   7.526  0.3129  0.2488 -0.0405
 8178SOL    HW129381   0.622   2.492   7.561  1.0778  1.2703  1.2458
 8178SOL    HW229382   0.482   2.546   7.538  0.5236  0.3374  2.3039
 8179SOL     OW29383   4.189   0.144   4.461  0.0866  0.7836 -0.1797
 8179SOL    HW129384   4.256   0.116   4.523 -1.1863  3.5481  2.7107
 8179SOL    HW229385   4.238   0.171   4.383  1.9525 -0.8116  0.3843
 8180SOL     OW29386   0.738   1.045   3.650 -0.3384  0.0686 -0.0402
 8180SOL    HW129387   0.759   1.087   3.567 -0.1906  0.2055  0.0663
 8180SOL    HW229388   0.718   1.118   3.709  0.7191  0.0411  0.3737
 8181SOL     OW29389   4.353   0.494   5.747  0.0499 -0.6346 -0.0391
 8181SOL    HW129390   4.388   0.422   5.695  0.0531 -1.0688  0.5614
 8181SOL    HW229391   4.286   0.534   5.691  1.7886  0.5303 -1.4448
 8182SOL     OW29392   3.553   6.377   6.909 -0.2101  0.1893  0.1710
 8182SOL    HW129393   3.522   6.299   6.953 -0.3685  0.6570  0.9083
 8182SOL    HW229394   3.513   6.450   6.957 -0.4370  0.7107 -0.7812
 8183SOL     OW29395   4.633   8.376   3.814  0.9320  0.3619  0.3530
 8183SOL    HW129396   4.664   8.466   3.824  0.0834  0.7753 -0.5630
 8183SOL    HW229397   4.708   8.328   3.778  0.4939  1.4408 -2.2545
 8184SOL     OW29398   9.054   1.347   7.211 -0.1233  0.0972 -0.2646
 8184SOL    HW129399   9.019   1.293   7.282  0.4285 -0.8251 -0.6806
 8184SOL    HW229400   9.013   1.311   7.132 -1.5683  1.7941 -0.3476
 8185SOL     OW29401   4.751   4.654   3.932  0.5696 -0.2825  0.1117
 8185SOL    HW129402   4.711   4.692   4.010 -1.1886 -0.6137 -0.5678
 8185SOL    HW229403   4.693   4.581   3.909 -0.3531  1.1902 -2.8159
 8186SOL     OW29404   9.470   0.165   7.068  0.2059  0.1864  0.5466
 8186SOL    HW129405   9.520   0.160   7.149  2.0843 -2.4584 -0.6287
 8186SOL    HW229406   9.528   0.212   7.007 -0.1212 -0.0124  0.0742
 8187SOL     OW29407   3.866   3.697   1.932  0.0068  0.7119  0.0087
 8187SOL    HW129408   3.797   3.672   1.870 -1.0421 -0.8296  1.7063
 8187SOL    HW229409   3.820   3.743   2.002  0.5649 -0.7265  1.3955
 8188SOL     OW29410   2.005   1.188   7.088  0.1932  0.2527  0.1480
 8188SOL    HW129411   2.033   1.128   7.018  0.5155  1.8755 -1.1864
 8188SOL    HW229412   2.066   1.262   7.082  0.5052  0.2524  2.4898
 8189SOL     OW29413   6.182   0.914   1.274  0.1251  0.0120 -0.5266
 8189SOL    HW129414   6.172   1.009   1.264 -1.3915  0.0724  0.9723
 8189SOL    HW229415   6.095   0.884   1.300  1.0970 -1.4558  1.2547
 8190SOL     OW29416   0.188   1.331   4.401 -0.3444  0.5534  0.4295
 8190SOL    HW129417   0.102   1.372   4.400 -0.1727  0.9427  0.9538
 8190SOL    HW229418   0.176   1.247   4.357 -0.9572  0.6680  0.3764
 8191SOL     OW29419   8.210   0.301   9.278 -0.4822 -0.0121 -0.0997
 8191SOL    HW129420   8.295   0.257   9.279 -0.5317 -0.1538 -0.8695
 8191SOL    HW229421   8.148   0.236   9.310 -0.4351 -0.2410 -0.4646
 8192SOL     OW29422   8.204   0.759   5.106 -0.7124  0.1034 -0.0266
 8192SOL    HW129423   8.206   0.678   5.155 -1.7859 -0.1830 -0.4309
 8192SOL    HW229424   8.296   0.778   5.086 -0.4523 -0.9778  0.1159
 8193SOL     OW29425   9.447   0.442   1.618  0.0309 -0.4865  0.1904
 8193SOL    HW129426   9.527   0.392   1.599  0.5592  0.1158  0.7619
 8193SOL    HW229427   9.457   0.523   1.569 -0.0487 -0.2537  0.5545
 8194SOL     OW29428   9.188   3.043   7.132 -0.6390 -0.2828  0.8354
 8194SOL    HW129429   9.243   2.966   7.134  0.8294  0.7358  1.3951
 8194SOL    HW229430   9.228   3.100   7.067 -1.6465  0.0583  0.4871
 8195SOL     OW29431   9.447   9.306   9.073 -0.3067  0.2056  0.0776
 8195SOL    HW129432   9.394   9.301   9.152 -1.7296  0.2967 -0.8308
 8195SOL    HW229433   9.461   9.400   9.060  0.8183  0.1498  0.7667
 8196SOL     OW29434   6.089   1.926   6.676 -0.2652  0.0665 -0.6903
 8196SOL    HW129435   6.094   1.847   6.730  1.0681  1.5757  1.5815
 8196SOL    HW229436   6.037   1.900   6.600 -1.2512 -2.5165  0.7414
 8197SOL     OW29437   4.606   0.425   6.857  0.4087 -0.5698 -0.1524
 8197SOL    HW129438   4.636   0.511   6.888 -1.1054  0.0578 -0.3627
 8197SOL    HW229439   4.581   0.378   6.937  1.8590 -1.0874  0.0221
 8198SOL     OW29440   5.536   4.469   2.934  0.6517  0.6893  0.5068
 8198SOL    HW129441   5.492   4.509   3.009  1.2232  1.3119  0.5171
 8198SOL    HW229442   5.564   4.544   2.881  2.5893  0.3522  1.0059
 8199SOL     OW29443   7.888   4.263   6.800  0.1476 -0.2669 -0.2310
 8199SOL    HW129444   7.848   4.321   6.864 -1.4787  0.0472 -1.4517
 8199SOL    HW229445   7.981   4.286   6.801  0.0991  0.0129  1.6688
 8200SOL     OW29446   7.604   9.091   3.876 -0.3411  0.8772  1.1382
 8200SOL    HW129447   7.539   9.076   3.807  0.1522 -0.6911  0.9603
 8200SOL    HW229448   7.552   9.111   3.954 -1.0366  0.0031  0.9144
 8201SOL     OW29449   6.086   4.234   2.274 -0.5061  0.2929  0.1632
 8201SOL    HW129450   6.055   4.144   2.268 -1.5979  0.5700  1.2069
 8201SOL    HW229451   6.110   4.258   2.185 -2.4790 -0.2565 -0.5467
 8202SOL     OW29452   6.668   0.797   7.836  0.4462 -0.8400  0.5378
 8202SOL    HW129453   6.739   0.858   7.815  0.4824 -0.4836  1.6387
 8202SOL    HW229454   6.589   0.851   7.839  0.0388 -1.3044 -1.0834
 8203SOL     OW29455   0.563   7.148   3.936 -0.0752  0.0175 -0.0327
 8203SOL    HW129456   0.597   7.222   3.886  1.2757  0.1832  1.0712
 8203SOL    HW229457   0.572   7.174   4.027 -0.1892 -1.2478  0.3577
 8204SOL     OW29458   0.636   1.283   6.318 -0.0202  0.1750 -0.1327
 8204SOL    HW129459   0.639   1.296   6.413 -0.3665 -0.1854 -0.0699
 8204SOL    HW229460   0.726   1.298   6.289 -0.3199  2.5495 -0.0443
 8205SOL     OW29461   2.273   0.189   5.580 -0.2768  0.5673 -0.7153
 8205SOL    HW129462   2.357   0.172   5.622  0.4999  1.1134 -1.9603
 8205SOL    HW229463   2.245   0.274   5.615  0.1296  0.8000 -0.9550
 8206SOL     OW29464   7.415   1.413   4.563 -0.2514 -0.0061 -0.6785
 8206SOL    HW129465   7.414   1.319   4.543  2.3606 -0.7078  1.7716
 8206SOL    HW229466   7.426   1.417   4.658 -1.0561  2.8233 -0.6331
 8207SOL     OW29467   8.284   2.612   3.107  0.7262  0.3369 -0.1279
 8207SOL    HW129468   8.214   2.576   3.161 -1.0820  1.8348 -1.3574
 8207SOL    HW229469   8.291   2.703   3.134 -0.2690  1.1452 -2.3977
 8208SOL     OW29470   3.373   4.965   5.021 -0.2728 -0.0205 -0.0152
 8208SOL    HW129471   3.428   5.042   5.009 -0.5398 -0.0840 -1.9428
 8208SOL    HW229472   3.433   4.890   5.012 -0.7343 -0.1433 -3.5672
 8209SOL     OW29473   2.012   9.186   6.645 -0.0358 -0.1370 -0.2438
 8209SOL    HW129474   2.070   9.258   6.670 -0.2549  0.1454 -0.5390
 8209SOL    HW229475   2.027   9.119   6.711 -0.7413  0.6617  0.7606
 8210SOL     OW29476   7.243   7.827   7.106 -0.1571  0.0076  0.0398
 8210SOL    HW129477   7.159   7.781   7.109 -0.0198 -0.7513 -3.4331
 8210SOL    HW229478   7.219   7.920   7.111 -1.6551 -0.0104 -3.6623
 8211SOL     OW29479   2.384   0.723   0.636  0.6118  0.8300 -0.0662
 8211SOL    HW129480   2.463   0.721   0.580  0.9214  1.5754  0.3262
 8211SOL    HW229481   2.397   0.800   0.691  0.2449  0.1765  0.9483
 8212SOL     OW29482   8.259   8.074   3.563  0.3235  0.0859  0.0605
 8212SOL    HW129483   8.311   8.095   3.485 -1.2570  1.4534 -0.6924
 8212SOL    HW229484   8.252   8.157   3.610  1.6434 -0.8154  1.9798
 8213SOL     OW29485   6.757   6.115   5.299  0.6779 -0.0900  0.0815
 8213SOL    HW129486   6.753   6.169   5.379 -0.7830  1.4652 -0.9589
 8213SOL    HW229487   6.665   6.102   5.275  1.0617 -1.6682 -0.6351
 8214SOL     OW29488   3.939   6.037   3.177  0.3253  0.0159  0.6846
 8214SOL    HW129489   3.991   6.093   3.235 -0.7340  1.2513  0.4633
 8214SOL    HW229490   3.896   5.975   3.236  1.2037 -0.3468  0.9637
 8215SOL     OW29491   5.054   2.134   5.783 -0.6261 -0.0720  0.0326
 8215SOL    HW129492   5.040   2.123   5.877 -2.6340  0.5125 -0.1552
 8215SOL    HW229493   5.045   2.228   5.768  1.4030  0.0790 -0.5332
 8216SOL     OW29494   9.108   0.401   2.492  0.3792  0.4145  0.0490
 8216SOL    HW129495   9.069   0.448   2.418  0.8327  0.5151 -0.1272
 8216SOL    HW229496   9.115   0.467   2.561  1.7050  0.8182 -0.4394
 8217SOL     OW29497   2.822   7.161   1.976  0.0502 -0.0333 -0.0621
 8217SOL    HW129498   2.804   7.131   1.887 -0.5720  0.3952 -0.0878
 8217SOL    HW229499   2.824   7.256   1.970  1.5931 -0.0304  0.0960
 8218SOL     OW29500   5.426   4.960   4.021  0.2283 -0.2191 -0.7851
 8218SOL    HW129501   5.484   4.891   4.052  0.8855  1.3941  1.9300
 8218SOL    HW229502   5.374   4.984   4.097  0.3568  2.5614 -1.4490
 8219SOL     OW29503   6.087   9.262   8.410  0.6466 -0.1206 -0.2401
 8219SOL    HW129504   6.066   9.176   8.373 -2.6091 -1.0759  3.1856
 8219SOL    HW229505   6.065   9.323   8.340 -2.2208 -1.9194 -1.1242
 8220SOL     OW29506   8.901   8.888   3.213  0.4555 -0.0263  0.3348
 8220SOL    HW129507   8.877   8.925   3.128  0.2509  0.4752  0.6106
 8220SOL    HW229508   8.863   8.801   3.213  0.7258 -0.1509 -0.2174
 8221SOL     OW29509   7.302   9.680   1.858 -0.2729 -0.2144  0.6953
 8221SOL    HW129510   7.235   9.724   1.911 -1.8510 -1.9123  0.1984
 8221SOL    HW229511   7.362   9.751   1.832 -2.3346  1.5419  0.4416
 8222SOL     OW29512   8.619   6.375   9.668  0.2357  0.1568  0.0592
 8222SOL    HW129513   8.696   6.428   9.648 -1.2267  2.1263 -0.5616
 8222SOL    HW229514   8.633   6.294   9.619  0.8726  1.3859 -1.9127
 8223SOL     OW29515   7.117   6.812   7.740  0.4363 -0.1500  0.4489
 8223SOL    HW129516   7.057   6.751   7.696  0.3939 -0.4644  0.9388
 8223SOL    HW229517   7.104   6.895   7.693 -0.5268 -0.1639  0.6699
 8224SOL     OW29518   2.346   6.377   0.229 -0.4397 -0.2088 -0.3017
 8224SOL    HW129519   2.418   6.407   0.286  0.3205 -1.4634 -0.5721
 8224SOL    HW229520   2.267   6.403   0.276  0.1689 -1.0845  1.2925
 8225SOL     OW29521   9.595   2.690   9.516 -1.0190  0.2998 -0.0870
 8225SOL    HW129522   9.557   2.680   9.429 -0.5025  0.2959 -0.3165
 8225SOL    HW229523   9.677   2.640   9.512 -0.0469  1.8525 -0.2017
 8226SOL     OW29524   4.926   7.972   6.702 -0.4706 -0.7840  0.0137
 8226SOL    HW129525   4.838   7.968   6.741  0.1057 -1.2633  1.2995
 8226SOL    HW229526   4.922   8.047   6.643 -1.3032  0.1120  1.1618
 8227SOL     OW29527   0.614   5.347   2.501 -0.0045 -0.3994  0.1526
 8227SOL    HW129528   0.618   5.258   2.537  1.1821 -0.6865 -0.6119
 8227SOL    HW229529   0.698   5.358   2.456  0.3113  1.5075  1.1227
 8228SOL     OW29530   5.777   6.755   0.187  0.6092 -0.6071  0.2198
 8228SOL    HW129531   5.836   6.725   0.256  1.9834  1.8325  0.2375
 8228SOL    HW229532   5.823   6.830   0.148 -1.7271  0.2959 -0.9528
 8229SOL     OW29533   8.565   0.100   8.444 -0.8860 -0.4689  0.3041
 8229SOL    HW129534   8.654   0.114   8.476 -0.7328 -1.9740  0.5947
 8229SOL    HW229535   8.576   0.065   8.356 -1.2434  0.7806 -0.2527
 8230SOL     OW29536   3.511   9.210   5.616 -0.4633  0.1346 -0.3763
 8230SOL    HW129537   3.451   9.261   5.670 -1.4431 -0.2328 -1.0818
 8230SOL    HW229538   3.455   9.145   5.573  0.7672 -1.6766  0.6409
 8231SOL     OW29539   9.204   8.000   8.074  0.3041 -0.4346  0.5050
 8231SOL    HW129540   9.133   7.991   8.011  0.9379  2.0253 -0.6626
 8231SOL    HW229541   9.261   7.925   8.057 -1.3965 -1.8641  0.7520
 8232SOL     OW29542   5.470   2.654   0.421 -0.0317 -0.4530 -0.8507
 8232SOL    HW129543   5.384   2.620   0.398 -1.0917  1.8701 -0.6034
 8232SOL    HW229544   5.524   2.639   0.343 -0.9978 -0.8406 -1.4600
 8233SOL     OW29545   8.711   8.461   5.231  0.2997  0.0669  0.2889
 8233SOL    HW129546   8.684   8.506   5.152  0.5094  0.2619  0.3255
 8233SOL    HW229547   8.635   8.466   5.290  0.0502 -0.3135  0.0054
 8234SOL     OW29548   2.492   1.573   8.692 -0.2370  0.0052  0.1942
 8234SOL    HW129549   2.566   1.513   8.683  0.7795  0.7476  2.5760
 8234SOL    HW229550   2.519   1.651   8.643 -0.0680 -0.2571 -0.1332
 8235SOL     OW29551   2.591   1.606   4.052 -0.1039  0.3565 -0.1706
 8235SOL    HW129552   2.600   1.607   3.957 -0.2606 -1.7647 -0.2666
 8235SOL    HW229553   2.496   1.603   4.067 -0.0643 -0.2248  0.0012
 8236SOL     OW29554   2.914   9.310   8.911  0.4626  0.3561 -0.3134
 8236SOL    HW129555   2.923   9.230   8.963  2.2006  0.0484 -1.0040
 8236SOL    HW229556   2.832   9.349   8.941  0.5390 -0.6860  1.4201
 8237SOL     OW29557   1.952   7.100   5.820 -0.3737  0.1983 -0.2696
 8237SOL    HW129558   2.019   7.079   5.885 -0.3365 -1.9502 -0.9144
 8237SOL    HW229559   1.871   7.107   5.870  0.3120  3.3824  0.5970
 8238SOL     OW29560   4.248   6.043   0.738 -0.1184 -0.8544  0.1656
 8238SOL    HW129561   4.198   5.963   0.751  0.1490 -1.0925 -0.2408
 8238SOL    HW229562   4.281   6.065   0.824 -2.0231  0.0543  0.7310
 8239SOL     OW29563   5.779   5.889   0.864  0.0696 -0.2325  0.2674
 8239SOL    HW129564   5.808   5.920   0.779  1.5790 -1.9742  0.0885
 8239SOL    HW229565   5.768   5.969   0.916  1.2268  0.7334 -0.9090
 8240SOL     OW29566   9.629   0.285   9.203  0.1221  0.4722  0.3048
 8240SOL    HW129567   9.644   0.363   9.149  0.8350 -0.4468 -0.8819
 8240SOL    HW229568   9.677   0.302   9.284  1.5942  0.6201 -0.5675
 8241SOL     OW29569   6.211   0.769   6.427 -0.3303 -0.5640 -0.3547
 8241SOL    HW129570   6.243   0.790   6.515 -0.9816 -0.2715 -0.1845
 8241SOL    HW229571   6.244   0.680   6.411 -0.4699 -0.7483  0.3138
 8242SOL     OW29572   5.156   5.931   0.802  0.0677 -0.5649  0.0245
 8242SOL    HW129573   5.095   5.895   0.866  0.0071 -0.7511 -0.1357
 8242SOL    HW229574   5.234   5.875   0.809  0.8243  0.5844  1.2996
 8243SOL     OW29575   6.286   4.659   5.504 -0.2713 -0.2882  0.5420
 8243SOL    HW129576   6.223   4.602   5.548 -1.1859  1.4205  1.5663
 8243SOL    HW229577   6.334   4.702   5.576 -0.2666  0.9295 -0.1614
 8244SOL     OW29578   2.750   8.530   9.091  0.0621  0.2724  0.0245
 8244SOL    HW129579   2.762   8.617   9.128 -0.7759  0.1450  0.6395
 8244SOL    HW229580   2.662   8.533   9.053  0.4831  0.0529 -0.9850
 8245SOL     OW29581   3.989   6.117   4.579  0.5176 -0.1564 -0.2444
 8245SOL    HW129582   4.059   6.145   4.521  0.1680 -1.7786 -1.4965
 8245SOL    HW229583   4.011   6.027   4.603 -0.3923 -0.1967  0.5167
 8246SOL     OW29584   4.400   2.952   9.391 -0.2580  0.0933  0.7929
 8246SOL    HW129585   4.461   2.899   9.443 -1.7675 -2.1156  0.4128
 8246SOL    HW229586   4.383   3.028   9.446  2.2275  0.4310  1.2163
 8247SOL     OW29587   7.115   5.224   4.498  0.4155 -0.0362 -0.4342
 8247SOL    HW129588   7.153   5.224   4.586 -0.4772 -0.2554 -0.0410
 8247SOL    HW229589   7.125   5.134   4.467 -2.7456 -1.0100  1.0090
 8248SOL     OW29590   2.841   8.342   0.374  0.1375  0.4325 -0.3274
 8248SOL    HW129591   2.852   8.334   0.279 -2.1470  0.9588 -0.6987
 8248SOL    HW229592   2.747   8.341   0.387  0.3495  1.7850  1.8152
 8249SOL     OW29593   2.580   3.802   6.360  0.2047  0.1232  0.2391
 8249SOL    HW129594   2.520   3.734   6.330 -1.9756  0.2696  3.6849
 8249SOL    HW229595   2.640   3.757   6.420  1.2824  0.5946 -0.4648
 8250SOL     OW29596   5.954   5.738   8.313  0.1320 -0.1228  0.0342
 8250SOL    HW129597   5.929   5.686   8.389 -0.1366  1.1351  0.8344
 8250SOL    HW229598   6.041   5.705   8.289  0.7218  0.2323  1.6006
 8251SOL     OW29599   5.342   6.323   0.755 -0.1396 -0.0270 -0.5217
 8251SOL    HW129600   5.266   6.280   0.795  0.0375  0.2546  0.1313
 8251SOL    HW229601   5.416   6.297   0.810  0.0107  0.8818 -0.2887
 8252SOL     OW29602   7.275   8.032   2.665 -0.0355 -0.8429  0.1001
 8252SOL    HW129603   7.246   7.955   2.616 -2.4934 -1.0857  1.7736
 8252SOL    HW229604   7.197   8.088   2.670  0.2021 -0.6224  3.2284
 8253SOL     OW29605   0.058   0.178   4.485 -0.2370  0.2667 -0.4536
 8253SOL    HW129606  -0.013   0.220   4.533 -0.2290  0.1903 -0.3756
 8253SOL    HW229607   0.103   0.250   4.440 -1.5722  0.1523 -2.1101
 8254SOL     OW29608   0.922   8.054   0.571 -0.4843 -0.2141  0.8253
 8254SOL    HW129609   0.982   8.074   0.499 -0.6401 -0.1407  0.7146
 8254SOL    HW229610   0.853   8.002   0.531 -1.3050  0.9995  0.6225
 8255SOL     OW29611   7.114   4.407   5.851  0.3560  0.0949 -0.4125
 8255SOL    HW129612   7.040   4.460   5.823 -0.1905  1.6710  3.3990
 8255SOL    HW229613   7.191   4.452   5.816 -0.3132  0.3126 -1.6547
 8256SOL     OW29614   2.614   3.726   7.210 -0.7828 -0.0870  0.1616
 8256SOL    HW129615   2.665   3.708   7.132 -2.0290 -0.3813 -0.6124
 8256SOL    HW229616   2.677   3.760   7.273  0.2566  0.0566 -0.9324
 8257SOL     OW29617   7.396   3.971   5.003  0.0592  0.3940  0.6687
 8257SOL    HW129618   7.378   3.879   4.984  1.0885  0.2332  0.4181
 8257SOL    HW229619   7.319   4.000   5.052 -0.8044 -0.2825 -0.2394
 8258SOL     OW29620   5.294   8.265   2.137  0.0912  0.1953 -0.1859
 8258SOL    HW129621   5.235   8.257   2.062 -0.0374 -0.7727  0.0028
 8258SOL    HW229622   5.257   8.336   2.189 -0.8679 -0.3442 -0.1143
 8259SOL     OW29623   0.830   3.346   1.904  0.2713  0.5072  0.0040
 8259SOL    HW129624   0.743   3.367   1.936  0.8225  0.8714  1.3539
 8259SOL    HW229625   0.833   3.382   1.816 -0.3511  2.0956  0.6006
 8260SOL     OW29626   9.018   4.807   5.840  0.3292  0.1216 -0.5561
 8260SOL    HW129627   9.073   4.729   5.832 -2.5496 -2.0901 -0.6923
 8260SOL    HW229628   8.962   4.789   5.916 -0.5832  1.9531 -0.7329
 8261SOL     OW29629   9.364   3.000   2.498  0.4755  0.4585  0.1249
 8261SOL    HW129630   9.400   2.956   2.575 -1.6113 -1.4251  0.1193
 8261SOL    HW229631   9.370   3.093   2.519  0.7991  0.0274  2.1690
 8262SOL     OW29632   2.786   5.160   0.164  0.4134 -0.7692  0.6466
 8262SOL    HW129633   2.712   5.127   0.113 -0.7726  1.3520  0.8542
 8262SOL    HW229634   2.863   5.133   0.116 -0.6324  1.6377 -2.7783
 8263SOL     OW29635   9.145   6.195   8.574 -0.7633 -0.6185  0.4677
 8263SOL    HW129636   9.206   6.265   8.551 -2.9211  1.2094 -0.0778
 8263SOL    HW229637   9.105   6.225   8.656 -1.2018 -1.5783  0.6109
 8264SOL     OW29638   6.750   5.246   0.784 -0.2492  0.3078 -1.1990
 8264SOL    HW129639   6.656   5.225   0.785 -0.4245  0.7394  2.1636
 8264SOL    HW229640   6.753   5.340   0.767 -0.3942  0.2374 -1.6282
 8265SOL     OW29641   3.052   7.633   2.841  0.0837 -0.8202  0.3183
 8265SOL    HW129642   3.110   7.709   2.832  0.1357 -0.9697 -0.6755
 8265SOL    HW229643   3.036   7.604   2.752 -2.2934 -0.2372  0.5010
 8266SOL     OW29644   5.297   6.814   4.307 -0.0182 -0.4300 -0.4948
 8266SOL    HW129645   5.308   6.830   4.213 -0.8392 -0.9048 -0.6829
 8266SOL    HW229646   5.240   6.885   4.336  2.3080  1.2939  0.2220
 8267SOL     OW29647   9.726   5.892   4.211 -0.3652 -0.3487 -0.6790
 8267SOL    HW129648   9.666   5.938   4.153 -2.3140 -1.2156  0.5166
 8267SOL    HW229649   9.671   5.866   4.285  1.5107 -1.2435  0.4579
 8268SOL     OW29650   0.227   9.344   8.930 -0.4025  0.2636 -0.4608
 8268SOL    HW129651   0.278   9.416   8.892  0.2830 -0.2644 -0.5760
 8268SOL    HW229652   0.161   9.324   8.864 -0.2663  0.4512 -0.6548
 8269SOL     OW29653   0.430   4.794   4.466  0.6843  0.3710  0.6514
 8269SOL    HW129654   0.343   4.758   4.485 -0.1736  1.4173 -1.1110
 8269SOL    HW229655   0.414   4.884   4.440  2.2608  0.4600 -0.1214
 8270SOL     OW29656   4.307   1.531   3.430  0.4910 -1.1551 -0.5595
 8270SOL    HW129657   4.393   1.524   3.388  0.7383 -1.6868  0.0268
 8270SOL    HW229658   4.321   1.499   3.520  0.1397  0.5910  0.1633
 8271SOL     OW29659   7.804   5.085   1.055 -0.4768 -0.6959 -0.3473
 8271SOL    HW129660   7.824   5.088   0.962 -0.0805  0.0425 -0.2514
 8271SOL    HW229661   7.815   5.176   1.085 -2.8402 -0.4586 -0.0359
 8272SOL     OW29662   2.497   8.532   5.447  0.2282  0.1720  0.1092
 8272SOL    HW129663   2.480   8.550   5.354  1.3407 -0.3099 -0.1940
 8272SOL    HW229664   2.515   8.618   5.485 -1.5827  0.5553  0.1925
 8273SOL     OW29665   2.359   6.822   8.752  0.3728  0.2989 -0.1175
 8273SOL    HW129666   2.333   6.735   8.722 -2.2463  0.9361  0.0507
 8273SOL    HW229667   2.393   6.808   8.841 -1.0464 -0.4731  0.3315
 8274SOL     OW29668   4.627   7.680   5.626  0.1488  0.0808 -0.2672
 8274SOL    HW129669   4.686   7.639   5.689 -0.2172 -1.1271 -0.6935
 8274SOL    HW229670   4.548   7.699   5.676 -0.8684 -2.5741 -0.7018
 8275SOL     OW29671   3.036   5.078   1.640  0.4837  1.0228 -0.0369
 8275SOL    HW129672   2.951   5.035   1.629  1.1248 -0.3366  0.1440
 8275SOL    HW229673   3.049   5.126   1.559  0.6984 -0.8890 -1.2015
 8276SOL     OW29674   5.395   5.078   2.759  0.0702  0.1234 -0.0584
 8276SOL    HW129675   5.401   4.998   2.811  1.7068  0.4852  0.3643
 8276SOL    HW229676   5.405   5.148   2.823  0.3145  0.6175 -0.6324
 8277SOL     OW29677   4.296   5.424   6.254  0.2469 -0.1965 -0.3643
 8277SOL    HW129678   4.343   5.433   6.171  0.8634 -1.3446 -0.1728
 8277SOL    HW229679   4.265   5.512   6.275  2.8657  0.7741 -0.1940
 8278SOL     OW29680   4.717   4.516   3.576  0.6802 -0.1483  0.2116
 8278SOL    HW129681   4.810   4.522   3.555  0.5345  2.1435 -0.0836
 8278SOL    HW229682   4.703   4.585   3.642 -0.7700 -0.5907  0.4077
 8279SOL     OW29683   4.302   9.203   4.454  0.2922 -0.2478 -0.0524
 8279SOL    HW129684   4.217   9.160   4.447 -0.5254  1.4503 -1.4020
 8279SOL    HW229685   4.295   9.279   4.396  1.8062  1.4266  1.8255
 8280SOL     OW29686   9.663   0.360   8.472  0.0643 -0.0095 -0.2234
 8280SOL    HW129687   9.666   0.427   8.540  1.7310  0.9716 -1.1843
 8280SOL    HW229688   9.754   0.335   8.459 -0.0819  0.4449 -2.6180
 8281SOL     OW29689   3.624   3.216   0.054 -0.3084  0.6709  0.0496
 8281SOL    HW129690   3.696   3.227   0.116 -0.6493  0.4075  0.4993
 8281SOL    HW229691   3.641   3.132   0.012  0.1354  1.0316 -0.5041
 8282SOL     OW29692   2.728   8.089   2.082 -0.0203 -0.7840 -0.3458
 8282SOL    HW129693   2.806   8.132   2.046 -2.3186  1.3989 -3.3416
 8282SOL    HW229694   2.709   8.137   2.162  1.7637 -1.4861  0.5338
 8283SOL     OW29695   6.717   0.270   7.924  0.0942  0.0961 -0.0100
 8283SOL    HW129696   6.634   0.234   7.955 -0.0705 -3.4011 -3.7020
 8283SOL    HW229697   6.784   0.216   7.967  0.1367 -0.6207 -0.9376
 8284SOL     OW29698   8.382   8.610   8.311 -0.3351 -0.1106 -0.9181
 8284SOL    HW129699   8.335   8.550   8.370 -0.1276  0.9188  0.3309
 8284SOL    HW229700   8.474   8.583   8.318 -0.1482  0.7437  0.1654
 8285SOL     OW29701   1.974   4.695   0.485  0.8034  0.5002  0.6873
 8285SOL    HW129702   1.992   4.601   0.476 -1.4261  0.0835  0.1317
 8285SOL    HW229703   1.883   4.705   0.459  1.2662  2.9926 -0.2683
 8286SOL     OW29704   6.598   0.583   9.094  0.4566 -0.6123  0.3477
 8286SOL    HW129705   6.602   0.656   9.156 -0.0323  0.8522 -1.2707
 8286SOL    HW229706   6.621   0.506   9.146  0.1381  0.5596  2.3148
 8287SOL     OW29707   8.241   5.403   5.280 -0.1324  0.0639  0.2138
 8287SOL    HW129708   8.253   5.489   5.239  1.5983 -1.1166 -2.0051
 8287SOL    HW229709   8.318   5.391   5.334 -0.4659 -0.0318  0.6762
 8288SOL     OW29710   9.518   6.738   7.646 -0.0847  0.2073  0.0327
 8288SOL    HW129711   9.464   6.798   7.696 -1.9750 -1.2403 -0.1598
 8288SOL    HW229712   9.485   6.745   7.556 -1.7778 -2.4978  0.3330
 8289SOL     OW29713   3.548   0.511   5.769  0.2011 -0.0136  0.1464
 8289SOL    HW129714   3.536   0.602   5.794 -3.3925 -0.5473  0.8426
 8289SOL    HW229715   3.490   0.498   5.694 -1.1931 -2.2054  1.4773
 8290SOL     OW29716   7.079   8.364   3.944  0.3746  0.2639 -0.2619
 8290SOL    HW129717   7.000   8.329   3.904 -0.3078 -0.7975  1.8703
 8290SOL    HW229718   7.059   8.456   3.963 -0.2586  0.0613  0.0490
 8291SOL     OW29719   1.794   1.421   7.120 -0.1646 -0.3562  0.0921
 8291SOL    HW129720   1.841   1.346   7.157  0.7916  0.8876  1.4972
 8291SOL    HW229721   1.736   1.450   7.190  0.2399  0.8388 -0.0526
 8292SOL     OW29722   7.810   0.257   1.848  0.0581  0.3522  0.3240
 8292SOL    HW129723   7.830   0.350   1.836 -0.6582  0.4479 -0.1898
 8292SOL    HW229724   7.837   0.216   1.766  0.5251  0.0735  0.6119
 8293SOL     OW29725   9.009   1.506   8.909  0.1930 -0.0338  0.0284
 8293SOL    HW129726   9.075   1.566   8.944  2.1282 -1.1992 -1.3763
 8293SOL    HW229727   9.059   1.427   8.886 -1.6658 -0.8844 -1.3268
 8294SOL     OW29728   3.602   1.753   0.223 -0.7281 -0.0760 -0.0221
 8294SOL    HW129729   3.580   1.845   0.215 -0.0939  0.0105 -0.8699
 8294SOL    HW229730   3.517   1.708   0.222 -0.9515  0.3204 -2.0648
 8295SOL     OW29731   5.847   8.348   0.200  0.3984  0.4282  0.1640
 8295SOL    HW129732   5.882   8.429   0.163 -1.1484 -0.2057 -2.9991
 8295SOL    HW229733   5.885   8.278   0.146  0.6973 -0.9107  1.9989
 8296SOL     OW29734   5.087   5.415   3.798  0.1438  0.0967 -0.0666
 8296SOL    HW129735   4.995   5.392   3.789  0.0998  0.5226 -0.8157
 8296SOL    HW229736   5.127   5.340   3.842 -0.6113  0.0326  0.5165
 8297SOL     OW29737   7.726   3.371   7.378 -0.2289  0.2038  0.0579
 8297SOL    HW129738   7.762   3.349   7.463 -2.4111 -3.2941  0.2952
 8297SOL    HW229739   7.647   3.422   7.398 -1.5479 -1.8266  0.3701
 8298SOL     OW29740   3.421   7.953   0.979 -0.0464  0.4733 -0.2664
 8298SOL    HW129741   3.351   7.887   0.973  0.1071  0.1131  1.4125
 8298SOL    HW229742   3.449   7.966   0.889 -0.5706 -1.2360 -0.7181
 8299SOL     OW29743   7.617   0.167   7.029  0.0979 -0.3110  0.0596
 8299SOL    HW129744   7.640   0.247   7.075 -2.7586  0.1399  0.8842
 8299SOL    HW229745   7.597   0.104   7.098 -1.2769 -0.5628 -0.5301
 8300SOL     OW29746   8.039   8.668   6.531  0.2496  0.2330  0.3222
 8300SOL    HW129747   8.038   8.593   6.473 -1.8464 -0.4604  1.1612
 8300SOL    HW229748   7.964   8.722   6.503  0.4126  0.8960  1.1050
 8301SOL     OW29749   5.226   1.623   2.409 -0.2594 -0.0527  0.5608
 8301SOL    HW129750   5.176   1.691   2.365  0.1219  1.1070  1.8616
 8301SOL    HW229751   5.173   1.598   2.485  0.1833 -0.2881  0.8031
 8302SOL     OW29752   5.250   4.563   9.081  0.2681 -0.4029 -0.3853
 8302SOL    HW129753   5.316   4.616   9.125 -0.3608  0.4675 -0.4604
 8302SOL    HW229754   5.233   4.490   9.141 -1.1446  1.1678  1.2323
 8303SOL     OW29755   8.597   5.894   4.057 -0.0844 -0.1836 -0.3789
 8303SOL    HW129756   8.593   5.911   4.151 -2.1850  0.4948 -0.5338
 8303SOL    HW229757   8.516   5.846   4.038 -0.1335  0.4656 -1.9897
 8304SOL     OW29758   4.268   4.901   0.230  0.1925  0.0894 -0.1705
 8304SOL    HW129759   4.342   4.902   0.169  0.1454 -0.6599 -0.2569
 8304SOL    HW229760   4.204   4.961   0.193  2.6142  4.7503  2.3474
 8305SOL     OW29761   8.161   9.236   4.072 -0.1503 -0.3304 -0.4469
 8305SOL    HW129762   8.122   9.319   4.044 -0.0782 -1.0474 -2.8975
 8305SOL    HW229763   8.157   9.180   3.994  0.5429 -2.3674  0.9034
 8306SOL     OW29764   7.364   0.889   0.837  0.4542  0.2345  0.5945
 8306SOL    HW129765   7.297   0.955   0.815  0.0178 -0.6536 -0.8796
 8306SOL    HW229766   7.438   0.911   0.781  0.3187 -0.4953  0.1179
 8307SOL     OW29767   5.530   6.868   6.536  0.7415 -0.1154  0.6531
 8307SOL    HW129768   5.618   6.867   6.497  0.8248 -0.3175  0.8408
 8307SOL    HW229769   5.481   6.804   6.484  0.8355 -0.3390  0.8349
 8308SOL     OW29770   7.375   8.977   0.657  0.2870  0.9626 -0.5881
 8308SOL    HW129771   7.408   8.909   0.598  2.3690  0.6256  0.8519
 8308SOL    HW229772   7.280   8.973   0.647  0.4920 -0.1612 -2.6826
 8309SOL     OW29773   1.449   2.639   8.867  0.4736 -0.0597 -0.7803
 8309SOL    HW129774   1.436   2.729   8.897 -0.1409 -0.4271  0.1063
 8309SOL    HW229775   1.466   2.589   8.947  0.2799 -0.8186 -1.1998
 8310SOL     OW29776   8.969   7.877   2.625 -0.0968  0.2884 -0.6642
 8310SOL    HW129777   8.895   7.927   2.659  0.2703 -0.0481  0.6779
 8310SOL    HW229778   9.045   7.933   2.641  0.5021 -1.1572  2.0722
 8311SOL     OW29779   7.737   8.226   6.034 -0.0625  0.2133 -0.2873
 8311SOL    HW129780   7.644   8.243   6.050  0.3810  2.0795  0.4727
 8311SOL    HW229781   7.781   8.255   6.113  1.2186 -0.3135 -0.7834
 8312SOL     OW29782   2.520   0.730   7.668 -0.2860 -0.5552 -0.1290
 8312SOL    HW129783   2.551   0.816   7.698  0.3095 -0.6023 -0.5938
 8312SOL    HW229784   2.472   0.749   7.587 -1.6565 -0.4617  0.6787
 8313SOL     OW29785   9.454   9.557   5.832 -0.2087 -0.3052 -0.0664
 8313SOL    HW129786   9.481   9.469   5.805  0.7169 -0.2979  0.7703
 8313SOL    HW229787   9.497   9.616   5.771  0.0903 -0.3834  0.0687
 8314SOL     OW29788   1.909   0.810   1.896  0.0022  0.0652  0.5503
 8314SOL    HW129789   1.878   0.777   1.980  1.0626  0.5653  1.1506
 8314SOL    HW229790   1.829   0.819   1.844 -1.0772  2.2398  2.3785
 8315SOL     OW29791   3.337   1.912   1.067  0.1428 -1.0453  0.3058
 8315SOL    HW129792   3.323   2.006   1.060 -0.4693 -1.0874  0.8931
 8315SOL    HW229793   3.330   1.879   0.977 -1.8712 -0.8330  0.3428
 8316SOL     OW29794   4.851   6.771   8.144 -0.4007 -0.8444  0.0494
 8316SOL    HW129795   4.825   6.833   8.212 -0.9572 -0.7414 -0.2519
 8316SOL    HW229796   4.843   6.685   8.184  0.8988 -0.7057  0.6454
 8317SOL     OW29797   0.338   5.403   3.409 -0.0986 -0.0609 -0.7866
 8317SOL    HW129798   0.417   5.456   3.396  0.1066  0.6704  2.5318
 8317SOL    HW229799   0.366   5.313   3.394  1.2810  0.2360 -0.1072
 8318SOL     OW29800   7.968   1.373   8.098 -0.1001 -0.0781  0.4967
 8318SOL    HW129801   7.958   1.353   8.191 -0.3841  0.9139  0.6884
 8318SOL    HW229802   7.928   1.459   8.087  0.7203  0.2084 -0.3796
 8319SOL     OW29803   8.495   8.422   3.568  0.1792 -0.5301  0.1218
 8319SOL    HW129804   8.545   8.438   3.488 -0.5008 -0.6480 -0.3353
 8319SOL    HW229805   8.404   8.436   3.543 -0.0306 -0.4022  0.9231
 8320SOL     OW29806   4.789   0.743   4.466 -0.1232  0.2183  0.3711
 8320SOL    HW129807   4.812   0.678   4.533 -1.7829 -1.1962 -0.3368
 8320SOL    HW229808   4.771   0.690   4.388  1.6837  1.8086 -1.2309
 8321SOL     OW29809   8.128   7.104   3.973 -0.0290  0.0019 -0.0958
 8321SOL    HW129810   8.215   7.129   4.003  0.2906  1.7307 -2.2039
 8321SOL    HW229811   8.130   7.009   3.968  1.4252 -0.0346  0.7228
 8322SOL     OW29812   9.002   0.737   4.191 -0.1507  0.5701  0.4101
 8322SOL    HW129813   8.974   0.792   4.118 -0.8249 -0.5790 -0.2251
 8322SOL    HW229814   9.078   0.783   4.228 -1.0955  2.2571  0.3377
 8323SOL     OW29815   7.502   3.765   4.329 -0.2773  0.1285 -0.4519
 8323SOL    HW129816   7.578   3.738   4.379 -1.7399 -1.0292  1.2697
 8323SOL    HW229817   7.448   3.686   4.323 -2.3734  1.4104  0.3701
 8324SOL     OW29818   6.161   1.683   6.789 -0.8340  0.5510 -0.2461
 8324SOL    HW129819   6.222   1.742   6.834 -0.0484 -0.6454  0.2956
 8324SOL    HW229820   6.184   1.596   6.820 -1.1675 -0.1861 -1.9619
 8325SOL     OW29821   6.607   7.271   3.139 -0.2009  0.0348 -0.4519
 8325SOL    HW129822   6.684   7.237   3.186  2.3559 -0.3232 -4.3753
 8325SOL    HW229823   6.540   7.204   3.149  1.7835 -2.1346 -0.9058
 8326SOL     OW29824   5.904   7.491   9.191  0.3448  0.6429 -0.3810
 8326SOL    HW129825   5.976   7.522   9.137  0.2651 -0.2743 -1.0361
 8326SOL    HW229826   5.827   7.494   9.133  0.0883  0.4944 -0.0529
 8327SOL     OW29827   9.197   6.598   0.546 -0.4910  0.2146 -0.5958
 8327SOL    HW129828   9.234   6.600   0.634  2.0462 -1.3857 -1.5307
 8327SOL    HW229829   9.253   6.657   0.495 -0.4978 -0.6415 -1.6184
 8328SOL     OW29830   2.258   2.994   8.515  0.2524  0.1146 -0.8479
 8328SOL    HW129831   2.344   3.033   8.501 -0.3329  1.5754 -0.5802
 8328SOL    HW229832   2.276   2.908   8.553  1.6069 -0.1501 -2.0154
 8329SOL     OW29833   9.094   6.486   8.336  0.3809  0.1835 -0.7721
 8329SOL    HW129834   9.131   6.553   8.279 -2.1071  2.2605 -0.1651
 8329SOL    HW229835   9.061   6.419   8.276  3.6760 -1.1078 -1.3576
 8330SOL     OW29836   0.606   7.765   4.806 -0.2351  0.6027  0.5764
 8330SOL    HW129837   0.599   7.673   4.829 -1.4520  0.7615  0.9440
 8330SOL    HW229838   0.557   7.773   4.724  2.0889  0.4689 -0.8927
 8331SOL     OW29839   8.500   8.060   4.922  0.1637  0.2902  0.0221
 8331SOL    HW129840   8.456   8.124   4.865 -1.7831 -1.0619 -0.1165
 8331SOL    HW229841   8.495   8.098   5.009 -1.5696  0.0759  0.0472
 8332SOL     OW29842   1.171   9.462   2.430 -0.4122  0.0215  0.7301
 8332SOL    HW129843   1.193   9.418   2.348 -0.3986  1.3479 -0.0042
 8332SOL    HW229844   1.118   9.537   2.403 -2.4891 -0.8493  2.1199
 8333SOL     OW29845   7.187   9.345   1.079 -0.1088 -0.4983 -0.0937
 8333SOL    HW129846   7.187   9.350   1.175  0.3943  0.8973 -0.1558
 8333SOL    HW229847   7.138   9.422   1.051 -0.3248 -0.9432 -0.9695
 8334SOL     OW29848   8.197   0.090   7.798  0.1888  0.1941 -0.1051
 8334SOL    HW129849   8.191   0.108   7.704 -0.6125  0.4326 -0.0187
 8334SOL    HW229850   8.290   0.078   7.814  0.4453  1.2306 -0.7338
 8335SOL     OW29851   2.813   7.904   7.754  0.2805 -0.0602 -0.0864
 8335SOL    HW129852   2.785   7.978   7.700  2.0726  0.2102 -0.7055
 8335SOL    HW229853   2.735   7.881   7.804 -0.4115  2.0609 -0.0698
 8336SOL     OW29854   2.665   0.911   1.563  0.1286  0.2799 -0.1065
 8336SOL    HW129855   2.650   0.829   1.611  1.4783 -0.2945 -0.6188
 8336SOL    HW229856   2.731   0.889   1.498  0.5371  1.7943 -0.2399
 8337SOL     OW29857   0.585   2.133   2.349 -0.3516  0.2117 -0.1626
 8337SOL    HW129858   0.571   2.135   2.255 -2.6946 -1.1044  0.0536
 8337SOL    HW229859   0.596   2.040   2.370 -2.1994  0.2077  1.0617
 8338SOL     OW29860   3.421   1.594   3.148 -0.1188  0.2631 -0.2046
 8338SOL    HW129861   3.492   1.557   3.096 -0.4274 -1.7860  0.7300
 8338SOL    HW229862   3.428   1.550   3.234 -1.7676  0.8797  0.2943
 8339SOL     OW29863   9.464   5.835   1.601 -0.1445  0.4830  0.2853
 8339SOL    HW129864   9.422   5.836   1.515 -3.6715 -1.7737  1.7734
 8339SOL    HW229865   9.529   5.766   1.595  0.3111  0.9828 -0.8065
 8340SOL     OW29866   5.901   4.345   4.918 -0.5145 -0.1549 -0.2459
 8340SOL    HW129867   5.907   4.284   4.991  1.8593 -1.3260 -1.3105
 8340SOL    HW229868   5.983   4.395   4.921 -1.0298  0.7947 -1.2282
 8341SOL     OW29869   4.883   8.870   1.255 -0.0154 -0.3545  0.1879
 8341SOL    HW129870   4.869   8.838   1.166  0.7641  2.6529 -1.1468
 8341SOL    HW229871   4.972   8.904   1.254  0.4383 -1.2995  2.5319
 8342SOL     OW29872   6.612   2.826   1.930 -0.3032 -0.4240  0.0403
 8342SOL    HW129873   6.539   2.788   1.978 -0.6447 -0.7780 -0.7389
 8342SOL    HW229874   6.683   2.763   1.940 -0.5047 -0.7051 -0.2608
 8343SOL     OW29875   3.684   3.860   4.657 -0.8266  0.2113  0.0785
 8343SOL    HW129876   3.628   3.910   4.598 -0.6476  0.1158 -0.1711
 8343SOL    HW229877   3.770   3.901   4.649 -0.1636 -1.3874 -1.6814
 8344SOL     OW29878   4.276   7.800   0.444  0.5825  0.4869 -0.3107
 8344SOL    HW129879   4.324   7.719   0.431 -1.3236 -0.6702 -0.4808
 8344SOL    HW229880   4.199   7.775   0.495  0.8618  2.5273  1.2552
 8345SOL     OW29881   9.151   5.079   9.189 -0.2427  0.0337  0.0176
 8345SOL    HW129882   9.133   5.113   9.276  0.9616 -1.0884  0.7209
 8345SOL    HW229883   9.224   5.132   9.156 -0.8954  0.6626 -0.4586
 8346SOL     OW29884   9.577   9.666   5.597  0.0075  0.0269  0.1486
 8346SOL    HW129885   9.541   9.754   5.603  0.4672  0.3133 -0.9533
 8346SOL    HW229886   9.668   9.675   5.626 -0.7722 -0.7385  3.1582
 8347SOL     OW29887   2.238   3.356   5.583  0.0645 -0.0187 -0.2965
 8347SOL    HW129888   2.157   3.308   5.570  0.1785  0.2166 -2.0796
 8347SOL    HW229889   2.240   3.421   5.513  1.0084  1.0952  0.6960
 8348SOL     OW29890   9.436   6.960   3.555  0.2438  0.0235  0.1942
 8348SOL    HW129891   9.443   6.866   3.538  1.1552  0.0659  0.3144
 8348SOL    HW229892   9.472   7.001   3.477  1.9770  0.2423  1.0713
 8349SOL     OW29893   5.690   7.856   6.261 -0.4273  0.5811  0.1724
 8349SOL    HW129894   5.610   7.816   6.229  0.2356 -0.6212 -0.0506
 8349SOL    HW229895   5.718   7.915   6.191  0.1022 -0.7405 -0.7517
 8350SOL     OW29896   5.969   2.285   1.964 -0.9920  0.1204  0.3960
 8350SOL    HW129897   5.947   2.245   2.048 -1.8286  0.2765  0.2626
 8350SOL    HW229898   6.032   2.354   1.985 -0.8884 -0.1064  0.8399
 8351SOL     OW29899   4.866   6.092   2.102  0.4724  0.6897  0.0405
 8351SOL    HW129900   4.829   6.173   2.066 -0.8851 -0.3370 -0.9759
 8351SOL    HW229901   4.889   6.115   2.193 -0.5055  2.0336 -0.0181
 8352SOL     OW29902   7.742   2.634   8.680  0.1655  0.4687  0.1013
 8352SOL    HW129903   7.750   2.708   8.620 -1.2871  0.5349 -0.0501
 8352SOL    HW229904   7.721   2.560   8.624 -0.3345  0.3542  0.4334
 8353SOL     OW29905   6.349   6.789   4.540 -0.8202  0.3662  0.1986
 8353SOL    HW129906   6.387   6.876   4.555 -0.8985  0.5678 -0.7305
 8353SOL    HW229907   6.268   6.789   4.592 -0.3656  0.5164  0.9144
 8354SOL     OW29908   0.359   6.034   8.094  0.0212 -0.0309 -0.5975
 8354SOL    HW129909   0.326   5.945   8.091  0.8342 -0.3092 -2.1289
 8354SOL    HW229910   0.336   6.065   8.181  1.3372 -2.3585  0.6734
 8355SOL     OW29911   5.048   6.355   1.305  0.1037 -0.1110  0.5020
 8355SOL    HW129912   5.053   6.451   1.300 -1.3398 -0.0385 -0.1368
 8355SOL    HW229913   5.048   6.337   1.399 -1.2488  0.6553  0.6776
 8356SOL     OW29914   0.006   8.315   6.218  0.4891  0.2203 -0.5523
 8356SOL    HW129915   0.101   8.324   6.221  0.6119 -0.5658 -1.5626
 8356SOL    HW229916  -0.021   8.317   6.310  1.3873  1.2376 -0.2825
 8357SOL     OW29917   5.673   7.717   9.267 -0.1551  0.5602  0.1588
 8357SOL    HW129918   5.665   7.643   9.207 -0.3939  1.3435 -0.8135
 8357SOL    HW229919   5.742   7.771   9.228 -0.0669  0.9056  0.7868
 8358SOL     OW29920   5.532   7.790   7.583  0.0163 -0.7639  0.0163
 8358SOL    HW129921   5.474   7.765   7.511  0.0169  0.7964 -0.5568
 8358SOL    HW229922   5.476   7.842   7.641  0.7427  0.5182 -0.3998
 8359SOL     OW29923   1.265   6.463   5.608 -0.4869  0.1959 -0.4474
 8359SOL    HW129924   1.235   6.512   5.684 -1.1546 -0.5907 -0.1945
 8359SOL    HW229925   1.348   6.505   5.584 -1.6918  2.3093 -1.0846
 8360SOL     OW29926   0.895   7.088   8.200  0.1744  0.7926 -0.2055
 8360SOL    HW129927   0.809   7.054   8.178  0.3206  0.5632 -0.4306
 8360SOL    HW229928   0.882   7.136   8.281  0.2785 -1.2924  1.1429
 8361SOL     OW29929   3.192   7.805   0.670  0.1323  0.4318  0.4049
 8361SOL    HW129930   3.261   7.761   0.620 -0.0351  0.2086  0.3662
 8361SOL    HW229931   3.143   7.854   0.604 -0.6719 -0.6235  0.1922
 8362SOL     OW29932   5.070   2.541   1.294 -0.0364 -0.7122  0.3542
 8362SOL    HW129933   5.015   2.608   1.335  0.9319  1.0822 -1.1448
 8362SOL    HW229934   5.040   2.538   1.203  1.4696 -0.6270 -0.1702
 8363SOL     OW29935   3.925   8.485   0.269 -0.8791  0.4182 -0.2482
 8363SOL    HW129936   3.954   8.507   0.358 -1.5519 -0.5658  0.2261
 8363SOL    HW229937   3.992   8.524   0.212 -1.1024  2.1645  0.6086
 8364SOL     OW29938   5.485   5.873   6.684 -0.2674 -0.2072 -0.5995
 8364SOL    HW129939   5.503   5.966   6.700 -1.0664  0.0613 -1.1777
 8364SOL    HW229940   5.525   5.828   6.759 -0.3711  0.6505 -0.0033
 8365SOL     OW29941   0.757   9.155   4.290 -0.6066  0.1040 -0.4548
 8365SOL    HW129942   0.839   9.194   4.259 -0.2729  0.0203  0.2887
 8365SOL    HW229943   0.692   9.178   4.224  0.0240  0.1520 -1.0633
 8366SOL     OW29944   6.349   6.860   0.076  0.4626 -0.0083 -0.6683
 8366SOL    HW129945   6.407   6.892   0.007  1.9903  2.1178  1.4375
 8366SOL    HW229946   6.394   6.782   0.110  1.3356  0.7358 -0.0725
 8367SOL     OW29947   8.562   9.034   1.643 -0.3916 -0.1180  0.3226
 8367SOL    HW129948   8.583   8.959   1.699 -1.8945  0.6466  1.9941
 8367SOL    HW229949   8.550   9.107   1.703  2.1406  1.8296 -1.3439
 8368SOL     OW29950   5.342   7.992   5.324 -0.1701  0.3425 -0.6043
 8368SOL    HW129951   5.333   8.019   5.233  0.0852  1.8278 -0.2090
 8368SOL    HW229952   5.425   8.029   5.353 -0.1955 -0.1978  0.2005
 8369SOL     OW29953   2.738   3.820   4.919  0.0245  0.3919  0.5858
 8369SOL    HW129954   2.659   3.841   4.969 -0.3428  0.4587 -0.0139
 8369SOL    HW229955   2.771   3.740   4.959 -1.0404 -0.3292  0.0575
 8370SOL     OW29956   6.757   1.108   1.303  0.0384  0.1513 -0.2006
 8370SOL    HW129957   6.691   1.043   1.278 -0.8410  1.1448 -0.5550
 8370SOL    HW229958   6.791   1.077   1.387 -2.7752  0.9222  1.3441
 8371SOL     OW29959   9.679   0.090   1.786 -0.1091  0.5874  0.6214
 8371SOL    HW129960   9.766   0.102   1.747  0.5058  0.8612  2.0143
 8371SOL    HW229961   9.669   0.164   1.845 -1.7451  1.1158 -0.2591
 8372SOL     OW29962   4.490   5.250   8.635  0.3877  0.3237 -0.2646
 8372SOL    HW129963   4.524   5.310   8.701  0.2199 -0.8845  0.9779
 8372SOL    HW229964   4.568   5.205   8.601  0.5125  1.2123 -1.1892
 8373SOL     OW29965   4.831   7.529   3.382 -0.4050 -0.4355  0.2751
 8373SOL    HW129966   4.897   7.489   3.439  1.1318 -1.0191 -1.8089
 8373SOL    HW229967   4.815   7.615   3.421  2.0475 -0.0254  0.5249
 8374SOL     OW29968   8.844   2.180   4.118  0.1379  0.0377 -0.0320
 8374SOL    HW129969   8.774   2.121   4.089 -0.2586  0.6500 -0.3503
 8374SOL    HW229970   8.922   2.125   4.121 -0.1033 -0.3720 -0.9194
 8375SOL     OW29971   7.798   3.805   8.078 -0.1003  0.0339 -0.3225
 8375SOL    HW129972   7.794   3.712   8.103  3.1090  0.1297  1.0463
 8375SOL    HW229973   7.835   3.804   7.990 -0.8608  0.0040 -0.6449
 8376SOL     OW29974   6.443   5.942   1.438 -0.4606 -0.0701  0.3771
 8376SOL    HW129975   6.426   6.036   1.436  0.2229  0.0397 -0.6475
 8376SOL    HW229976   6.518   5.932   1.497  1.8506  0.4689 -2.2614
 8377SOL     OW29977   0.951   6.154   5.270  0.0600  0.0824  0.3099
 8377SOL    HW129978   0.993   6.239   5.284  2.8296 -0.7799 -1.8026
 8377SOL    HW229979   0.975   6.102   5.347  0.7640  0.3739  0.2916
 8378SOL     OW29980   7.079   3.691   0.944  0.2879 -0.2255  0.0912
 8378SOL    HW129981   7.000   3.674   0.893  0.1955  1.1408 -0.2553
 8378SOL    HW229982   7.149   3.697   0.879  0.2636  0.9616  0.1494
 8379SOL     OW29983   7.144   6.861   8.191 -0.1668 -0.3095 -0.2183
 8379SOL    HW129984   7.238   6.867   8.173  0.2093 -0.0157  1.6288
 8379SOL    HW229985   7.113   6.952   8.188  0.2594 -0.0404  2.1754
 8380SOL     OW29986   4.754   0.807   6.589 -0.3921  0.0671  0.0473
 8380SOL    HW129987   4.835   0.756   6.589  0.3577  1.2059  0.7606
 8380SOL    HW229988   4.735   0.822   6.497 -0.1282 -0.7235 -0.1418
 8381SOL     OW29989   0.646   8.607   6.478 -0.1791  0.4259  0.8866
 8381SOL    HW129990   0.700   8.668   6.528  0.5434  0.6587 -0.1271
 8381SOL    HW229991   0.590   8.662   6.424  0.7630  0.2426 -0.3373
 8382SOL     OW29992   5.145   9.425   4.969 -0.1929 -0.1160 -0.2246
 8382SOL    HW129993   5.067   9.469   4.934 -0.4616  1.3451  2.0548
 8382SOL    HW229994   5.111   9.348   5.015 -0.3762  0.8670  1.3097
 8383SOL     OW29995   6.481   5.166   6.532 -0.2252  0.0779 -0.1262
 8383SOL    HW129996   6.427   5.088   6.518  0.4411 -0.4310  0.0859
 8383SOL    HW229997   6.457   5.225   6.461 -1.5433  0.1402  0.3363
 8384SOL     OW29998   2.206   5.059   0.968 -0.8183  0.3074  0.3471
 8384SOL    HW129999   2.253   5.113   0.905  0.1654 -0.7298  0.1539
 8384SOL    HW230000   2.190   5.117   1.043  1.7971  0.4353  0.8963
 8385SOL     OW30001   9.672   5.133   8.503 -0.0126  0.4614 -0.4239
 8385SOL    HW130002   9.751   5.080   8.508 -1.3541 -1.5523  1.6381
 8385SOL    HW230003   9.703   5.223   8.500  2.3367 -0.2773 -0.4954
 8386SOL     OW30004   8.264   1.000   3.715 -0.5013 -0.4976 -0.1843
 8386SOL    HW130005   8.305   1.082   3.743  0.7414 -1.2214  0.2041
 8386SOL    HW230006   8.172   1.023   3.701 -0.4787  0.6458  1.2848
 8387SOL     OW30007   3.621   4.926   7.764 -0.0263 -0.4117 -0.2410
 8387SOL    HW130008   3.559   4.905   7.833 -0.1958 -1.6745 -0.7475
 8387SOL    HW230009   3.684   4.854   7.765  1.8622  1.1490  0.6855
 8388SOL     OW30010   9.216   8.143   1.517 -0.2803 -0.2349  0.0590
 8388SOL    HW130011   9.233   8.234   1.542  0.2957 -0.4032  0.3119
 8388SOL    HW230012   9.129   8.125   1.552  0.2304 -0.2469  1.4011
 8389SOL     OW30013   8.943   4.548   9.192  0.2104  0.1154 -0.1504
 8389SOL    HW130014   8.872   4.569   9.132 -0.2086  0.9995  0.6316
 8389SOL    HW230015   8.914   4.469   9.239 -0.4135  0.6608  0.3980
 8390SOL     OW30016   9.708   0.019   5.204 -0.3247  0.9138  0.0950
 8390SOL    HW130017   9.751   0.034   5.120 -0.4461  0.4065 -0.0615
 8390SOL    HW230018   9.643  -0.049   5.185 -0.3474  0.7940  0.6032
 8391SOL     OW30019   3.495   7.457   6.072  0.2100  0.1879 -0.3524
 8391SOL    HW130020   3.437   7.384   6.050 -0.6466  0.9330 -0.6020
 8391SOL    HW230021   3.497   7.511   5.993 -0.4932  1.3120  0.3723
 8392SOL     OW30022   1.057   9.680   1.003  0.3192 -0.1899  0.0421
 8392SOL    HW130023   1.034   9.591   0.977 -1.0034  0.0798  0.2324
 8392SOL    HW230024   0.977   9.715   1.043  0.7196  1.1818 -0.2983
 8393SOL     OW30025   7.008   0.667   7.833 -0.3279 -0.2257 -0.3988
 8393SOL    HW130026   6.933   0.676   7.892 -0.1300  1.7759 -0.3692
 8393SOL    HW230027   7.070   0.734   7.864  0.8438 -0.8543 -1.3303
 8394SOL     OW30028   4.142   0.920   4.635  0.3576  0.4692 -0.2906
 8394SOL    HW130029   4.074   0.874   4.585  1.5818  0.0990 -1.7130
 8394SOL    HW230030   4.094   0.979   4.693 -1.1839  1.5671 -2.5147
 8395SOL     OW30031   5.260   4.677   8.619 -0.6796 -0.3782 -0.1705
 8395SOL    HW130032   5.251   4.770   8.595 -1.3523 -0.7264 -1.3875
 8395SOL    HW230033   5.171   4.642   8.609 -0.8040 -0.7974  1.9747
 8396SOL     OW30034   1.442   5.227   4.009  0.1975  0.3415  0.1544
 8396SOL    HW130035   1.442   5.295   3.942  1.8679  1.5295  1.2683
 8396SOL    HW230036   1.351   5.219   4.037 -0.3757  0.4635 -1.5759
 8397SOL     OW30037   4.513   5.042   2.573  0.3819  0.0872 -0.4009
 8397SOL    HW130038   4.540   5.109   2.636  1.9054 -1.4664  0.6773
 8397SOL    HW230039   4.424   5.068   2.548  0.2376  1.5048  1.3581
 8398SOL     OW30040   1.403   7.911   5.081 -0.7556 -0.2949 -0.1902
 8398SOL    HW130041   1.458   7.892   5.004  1.2059  0.6640  0.9047
 8398SOL    HW230042   1.361   7.828   5.101 -0.9026 -0.7030 -1.9613
 8399SOL     OW30043   7.848   7.429   0.935 -0.0763 -0.7788 -0.7292
 8399SOL    HW130044   7.827   7.520   0.955  1.8713  0.1745 -2.5465
 8399SOL    HW230045   7.835   7.382   1.017  0.2167  1.3925  0.6342
 8400SOL     OW30046   1.874   2.719   1.651 -0.4610 -0.2969 -0.4602
 8400SOL    HW130047   1.832   2.801   1.676 -1.1350  0.3534 -3.3375
 8400SOL    HW230048   1.827   2.651   1.699 -1.2198  0.8313  0.4327
 8401SOL     OW30049   5.920   0.187   1.037 -0.3822 -0.1316  0.3238
 8401SOL    HW130050   5.989   0.209   0.974 -1.4695 -1.1939 -1.2901
 8401SOL    HW230051   5.867   0.267   1.044 -1.0043 -0.3894 -1.1318
 8402SOL     OW30052   2.208   9.357   1.287 -0.3417  0.0730  0.0031
 8402SOL    HW130053   2.140   9.410   1.330 -0.4283 -0.0814  0.0566
 8402SOL    HW230054   2.160   9.298   1.230 -0.1481  1.5704 -1.8019
 8403SOL     OW30055   5.257   9.003   6.782  0.0211  0.2451 -0.1544
 8403SOL    HW130056   5.257   9.078   6.842  0.4171 -0.6458  0.9923
 8403SOL    HW230057   5.168   8.967   6.790  0.4651 -0.6850  0.9943
 8404SOL     OW30058   6.299   4.966   6.463  0.7783  0.5177  0.1103
 8404SOL    HW130059   6.260   4.908   6.397  0.1604  0.6379  0.3569
 8404SOL    HW230060   6.236   5.037   6.471  2.4988  2.3970 -1.7590
 8405SOL     OW30061   2.160   2.582   1.024 -0.4200 -0.5992  0.2176
 8405SOL    HW130062   2.190   2.521   1.091 -0.4909 -0.5321  0.3116
 8405SOL    HW230063   2.155   2.666   1.069 -1.4136 -0.7403  0.3985
 8406SOL     OW30064   5.114   6.736   9.461  0.1685  0.1248  0.0457
 8406SOL    HW130065   5.154   6.815   9.424  0.6870  0.0976  0.5366
 8406SOL    HW230066   5.026   6.764   9.486  0.1295  0.3797 -0.3729
 8407SOL     OW30067   5.961   8.348   3.134 -0.0333 -0.0752 -0.0413
 8407SOL    HW130068   5.921   8.369   3.218 -0.2244 -0.1897 -0.1043
 8407SOL    HW230069   5.992   8.432   3.100  0.1702 -0.0474  0.2071
 8408SOL     OW30070   1.398   1.656   8.117 -0.0775  0.4462  0.2085
 8408SOL    HW130071   1.423   1.695   8.201  0.2792 -0.7095  0.6550
 8408SOL    HW230072   1.383   1.564   8.137  0.8895 -0.0422 -1.1730
 8409SOL     OW30073   7.165   4.079   5.127  0.5004 -0.2598  0.2838
 8409SOL    HW130074   7.112   4.151   5.091  0.1842 -1.2525 -1.3813
 8409SOL    HW230075   7.100   4.016   5.158  0.7798  0.3439  2.1869
 8410SOL     OW30076   8.465   2.191   9.127 -0.4201  0.1990  0.5027
 8410SOL    HW130077   8.555   2.219   9.144 -0.5955  1.6213 -0.7429
 8410SOL    HW230078   8.427   2.178   9.214  0.8405  0.0333  1.0544
 8411SOL     OW30079   1.813   5.983   2.093 -0.2609  0.0590  0.5733
 8411SOL    HW130080   1.802   6.068   2.136 -0.4912  0.8898 -1.0744
 8411SOL    HW230081   1.843   5.925   2.163 -0.2294  1.4527  1.7636
 8412SOL     OW30082   6.520   4.217   4.866  0.3088 -0.3466 -0.2548
 8412SOL    HW130083   6.484   4.189   4.782 -1.7159 -1.8918  1.0447
 8412SOL    HW230084   6.587   4.152   4.886  1.6992  0.7326 -1.1883
 8413SOL     OW30085   4.769   9.258   8.317 -0.0520  0.4758  0.1920
 8413SOL    HW130086   4.814   9.316   8.378  0.1730  0.7069 -0.1880
 8413SOL    HW230087   4.824   9.179   8.313  0.6110  0.9612 -0.6646
 8414SOL     OW30088   4.372   5.627   9.187  0.5144 -0.4716 -0.0466
 8414SOL    HW130089   4.298   5.683   9.167  0.1357 -0.8781  0.1928
 8414SOL    HW230090   4.350   5.587   9.271  1.5617  0.3561  0.6596
 8415SOL     OW30091   6.674   2.533   1.190  0.1668 -0.0773 -0.2989
 8415SOL    HW130092   6.615   2.531   1.115  1.7853  0.0291 -1.6501
 8415SOL    HW230093   6.703   2.442   1.200  0.5137  0.0320 -0.2811
 8416SOL     OW30094   6.048   6.074   9.559  0.6025  0.5691 -0.3665
 8416SOL    HW130095   6.090   6.026   9.488 -2.0159 -1.0422 -0.9272
 8416SOL    HW230096   5.992   6.138   9.516  1.0955  1.5229  0.3475
 8417SOL     OW30097   4.817   9.720   6.702 -0.1853  0.1836 -0.0957
 8417SOL    HW130098   4.904   9.749   6.731  0.0729 -0.7141  0.0441
 8417SOL    HW230099   4.758   9.745   6.773  0.4691 -2.2241  1.3966
 8418SOL     OW30100   5.173   8.802   2.262 -0.3795 -0.0685  0.1476
 8418SOL    HW130101   5.130   8.881   2.293 -1.0720 -0.8160  1.1605
 8418SOL    HW230102   5.260   8.803   2.303 -0.7773 -0.3480  1.0181
 8419SOL     OW30103   3.986   2.805   1.127  0.1974  0.2405 -0.1052
 8419SOL    HW130104   3.961   2.717   1.097  0.3239 -0.2800  1.2529
 8419SOL    HW230105   3.945   2.814   1.213  2.0092  0.6194  0.7745
 8420SOL     OW30106   8.980   1.151   6.149 -0.1953  0.6169 -0.3399
 8420SOL    HW130107   8.963   1.245   6.141 -1.2621  0.5645  0.9223
 8420SOL    HW230108   8.894   1.113   6.169  0.4358 -0.4648  0.4165
 8421SOL     OW30109   5.412   5.441   3.135  0.7099  0.3056  0.4856
 8421SOL    HW130110   5.465   5.508   3.177  0.5230  0.4986  0.4140
 8421SOL    HW230111   5.470   5.366   3.127  0.6706  0.1693  1.3432
 8422SOL     OW30112   3.543   6.980   3.649  0.1836 -0.5593 -0.0558
 8422SOL    HW130113   3.632   7.003   3.672 -0.8348  0.4176  3.5017
 8422SOL    HW230114   3.538   6.885   3.663  0.6932 -0.6531 -0.4934
 8423SOL     OW30115   5.386   1.898   2.603  0.3819  0.7693  0.0428
 8423SOL    HW130116   5.431   1.867   2.524 -0.3728  0.7441 -0.3866
 8423SOL    HW230117   5.401   1.992   2.604  0.9645  0.6800  0.2447
 8424SOL     OW30118   2.059   2.984   0.704 -0.3938  0.3881 -0.1221
 8424SOL    HW130119   2.088   2.985   0.613 -1.4352 -0.0993 -0.4748
 8424SOL    HW230120   2.140   2.988   0.755  0.1850  0.9456 -1.0611
 8425SOL     OW30121   9.705   9.064   8.192 -0.2616 -0.4759 -0.4249
 8425SOL    HW130122   9.728   9.145   8.239 -2.2476  0.4365 -0.9328
 8425SOL    HW230123   9.692   8.999   8.261 -3.0110  0.8135  0.3973
 8426SOL     OW30124   7.301   0.284   7.011 -0.1280  0.1644 -0.4886
 8426SOL    HW130125   7.396   0.290   7.021 -0.2897 -0.8740  2.8733
 8426SOL    HW230126   7.283   0.191   7.007 -1.1008  0.1822  1.7389
 8427SOL     OW30127   3.226   6.270   5.261  0.1494  0.2324 -0.6569
 8427SOL    HW130128   3.152   6.327   5.281  0.0119 -0.6015  1.5589
 8427SOL    HW230129   3.188   6.183   5.253  0.9895 -0.6325  2.8666
 8428SOL     OW30130   9.132   6.305   7.374 -0.1266  0.1759  0.0836
 8428SOL    HW130131   9.188   6.378   7.349 -0.9715  0.5633 -0.7649
 8428SOL    HW230132   9.166   6.231   7.324  0.4626  0.0872  0.6112
 8429SOL     OW30133   1.704   9.035   5.870 -0.2116  0.7830 -0.1689
 8429SOL    HW130134   1.786   8.987   5.876 -1.1020 -0.9308 -1.1427
 8429SOL    HW230135   1.723   9.109   5.813  0.6781  0.4733 -0.2828
 8430SOL     OW30136   6.142   4.077   0.120 -0.1499 -0.0747  0.1039
 8430SOL    HW130137   6.146   4.079   0.216 -1.2694 -0.1818  0.1750
 8430SOL    HW230138   6.063   4.026   0.101  0.4366 -0.6568 -0.8927
 8431SOL     OW30139   2.249   8.140   4.726  0.0315  0.0491  0.1693
 8431SOL    HW130140   2.208   8.064   4.769  1.5232 -0.5742  0.5518
 8431SOL    HW230141   2.258   8.113   4.635  2.8142 -1.3217  0.7444
 8432SOL     OW30142   8.939   4.061   8.436 -0.1624  0.0220 -0.7928
 8432SOL    HW130143   8.960   3.982   8.486  0.7025 -0.1773 -1.4458
 8432SOL    HW230144   8.843   4.066   8.437 -0.2069 -0.7952 -0.3874
 8433SOL     OW30145   4.838   0.190   9.511 -0.3604  0.4689  0.2258
 8433SOL    HW130146   4.929   0.217   9.525 -1.0120  2.3030  1.2538
 8433SOL    HW230147   4.843   0.096   9.495  1.9425  0.8499 -2.0477
 8434SOL     OW30148   3.499   5.900   6.629 -0.1765 -0.3960  0.6568
 8434SOL    HW130149   3.552   5.923   6.705  1.6448 -1.4865 -0.2259
 8434SOL    HW230150   3.488   5.805   6.634  0.1101 -0.5116 -0.4959
 8435SOL     OW30151   9.190   2.804   8.023 -0.4220 -0.0078 -0.4388
 8435SOL    HW130152   9.126   2.793   7.953  1.5243 -3.1268 -1.9104
 8435SOL    HW230153   9.275   2.786   7.982  1.1077  0.6876  2.1513
 8436SOL     OW30154   3.251   1.194   0.808 -0.1992  0.1702  0.0533
 8436SOL    HW130155   3.239   1.289   0.805 -0.6089  0.1498  0.8895
 8436SOL    HW230156   3.188   1.160   0.744  2.1936  0.6043 -2.8020
 8437SOL     OW30157   0.059   7.811   8.597 -1.0137  0.1632 -0.0827
 8437SOL    HW130158   0.129   7.806   8.662 -0.9568 -0.2807 -0.1785
 8437SOL    HW230159   0.103   7.835   8.516 -1.0424  0.3986 -0.0295
 8438SOL     OW30160   5.399   3.841   7.349 -0.0008 -0.2413  0.2180
 8438SOL    HW130161   5.354   3.922   7.376 -0.4986 -0.4992  0.1843
 8438SOL    HW230162   5.409   3.850   7.254 -2.3257 -1.2833 -0.2138
 8439SOL     OW30163   9.025   8.125   9.073 -0.1763  0.2027  0.0347
 8439SOL    HW130164   8.933   8.116   9.096 -1.2892  1.5689 -3.2301
 8439SOL    HW230165   9.035   8.071   8.994  1.9243 -0.1279  0.4611
 8440SOL     OW30166   5.428   0.155   6.363  0.0232 -0.0914  0.0672
 8440SOL    HW130167   5.375   0.098   6.419  0.4498  0.5995  1.2130
 8440SOL    HW230168   5.483   0.204   6.424 -0.0987  1.3095 -0.8959
 8441SOL     OW30169   6.984   7.647   4.289 -0.5529 -0.4882 -0.3234
 8441SOL    HW130170   6.976   7.563   4.244 -0.3820 -0.1540 -1.0110
 8441SOL    HW230171   6.954   7.631   4.378 -1.6297 -1.0002 -0.7649
 8442SOL     OW30172   7.565   4.266   5.156  0.1331 -0.3015 -0.4458
 8442SOL    HW130173   7.574   4.193   5.094 -1.9785 -0.0745 -1.0924
 8442SOL    HW230174   7.488   4.243   5.209 -2.3320  2.5697 -2.4275
 8443SOL     OW30175   9.557   3.392   2.697 -0.5043 -0.4108  0.1589
 8443SOL    HW130176   9.466   3.377   2.724 -0.3023  0.2698  1.2607
 8443SOL    HW230177   9.567   3.487   2.697  0.8668 -0.5038  2.3641
 8444SOL     OW30178   4.768   0.353   3.969  0.2000 -0.3060 -0.2238
 8444SOL    HW130179   4.844   0.400   4.002  0.4265 -0.3234 -0.7230
 8444SOL    HW230180   4.720   0.327   4.049  0.4590  0.1168  0.0727
 8445SOL     OW30181   8.999   1.966   7.361  0.0291 -0.2801  0.4003
 8445SOL    HW130182   9.089   1.983   7.332  0.2984  0.1266  1.4245
 8445SOL    HW230183   8.945   1.990   7.286  0.6970  0.8064  0.2419
 8446SOL     OW30184   2.280   1.811   5.265  0.0694 -0.1483 -0.9283
 8446SOL    HW130185   2.189   1.783   5.256  0.2858 -0.6954 -1.4402
 8446SOL    HW230186   2.274   1.906   5.278 -0.7220 -0.5151  1.9572
 8447SOL     OW30187   6.779   6.625   3.491  0.2148 -0.4008  0.6590
 8447SOL    HW130188   6.862   6.658   3.525  0.3804 -0.0148 -0.1014
 8447SOL    HW230189   6.772   6.662   3.403 -1.9275  1.5762  1.5733
 8448SOL     OW30190   8.042   2.716   2.406 -0.4891  0.2134  0.1126
 8448SOL    HW130191   8.044   2.725   2.311  0.2018  2.3581  0.2664
 8448SOL    HW230192   7.960   2.759   2.432 -1.8710 -2.4037  0.3933
 8449SOL     OW30193   4.584   2.787   6.054  0.0634  0.5202  0.3311
 8449SOL    HW130194   4.660   2.795   5.998  1.1432  0.2974  1.7092
 8449SOL    HW230195   4.599   2.706   6.104 -0.6202  0.9485  1.2677
 8450SOL     OW30196   5.964   3.977   6.080  0.5072 -0.0460  0.2980
 8450SOL    HW130197   6.013   4.006   6.003  1.3128 -1.1834  0.3751
 8450SOL    HW230198   6.025   3.924   6.130  0.1769  1.1319  2.0506
 8451SOL     OW30199   7.979   0.434   6.638  0.4513 -0.0716  1.0949
 8451SOL    HW130200   7.961   0.505   6.699  0.5513 -0.9902  2.2253
 8451SOL    HW230201   7.968   0.354   6.690 -2.9745 -1.1069 -0.8897
 8452SOL     OW30202   6.195   3.175   4.478  0.4832 -0.2128  0.3674
 8452SOL    HW130203   6.240   3.198   4.559  1.6933 -0.1357 -0.3054
 8452SOL    HW230204   6.102   3.176   4.501  0.8194 -0.7134  1.8798
 8453SOL     OW30205   0.877   6.951   8.688  0.0531 -0.2309 -0.0246
 8453SOL    HW130206   0.888   6.888   8.618 -1.3107  1.5107 -1.9264
 8453SOL    HW230207   0.823   6.906   8.753  1.0371 -1.7591 -0.2331
 8454SOL     OW30208   3.649   1.914   5.748 -0.0121 -0.9076 -0.1050
 8454SOL    HW130209   3.683   1.832   5.783  2.9630  0.3681  0.2996
 8454SOL    HW230210   3.625   1.893   5.657 -1.9064 -2.7704  0.7338
 8455SOL     OW30211   6.321   3.897   7.040 -0.0888  0.4177  0.1512
 8455SOL    HW130212   6.304   3.855   6.956 -0.8564  0.5112  0.2585
 8455SOL    HW230213   6.315   3.827   7.104  2.2037 -0.0124 -0.0096
 8456SOL     OW30214   1.645   9.159   6.481  0.1086 -0.2891  0.4970
 8456SOL    HW130215   1.603   9.220   6.542  0.5659 -1.2279  1.7962
 8456SOL    HW230216   1.580   9.145   6.412 -0.9303 -0.1574  1.4167
 8457SOL     OW30217   6.916   4.030   4.377  0.0527 -0.3435 -0.1783
 8457SOL    HW130218   6.848   4.095   4.394  1.6890  1.5849 -0.6306
 8457SOL    HW230219   6.992   4.081   4.348  1.2922 -2.5046 -0.9999
 8458SOL     OW30220   5.806   9.120   7.799 -0.1744  0.6067 -0.1352
 8458SOL    HW130221   5.888   9.138   7.753 -0.0966 -0.0777 -0.2768
 8458SOL    HW230222   5.746   9.187   7.768  0.2135  0.8576 -0.3504
 8459SOL     OW30223   3.762   4.939   4.147  0.0222  0.0037 -0.1028
 8459SOL    HW130224   3.820   4.949   4.223 -0.8893  2.1842  0.3839
 8459SOL    HW230225   3.674   4.950   4.183 -0.4679  0.3096 -1.3541
 8460SOL     OW30226   3.146   8.057   7.144 -0.1142 -0.2952  0.3650
 8460SOL    HW130227   3.129   8.150   7.129  1.0705 -0.2260 -0.7637
 8460SOL    HW230228   3.072   8.012   7.102 -1.4847  0.1243  2.2066
 8461SOL     OW30229   4.602   9.664   9.695 -0.6600 -0.2076  0.0134
 8461SOL    HW130230   4.643   9.642   9.779 -1.2659  0.0975  0.4035
 8461SOL    HW230231   4.662   9.727   9.655 -1.1171  0.8565  0.9465
 8462SOL     OW30232   9.241   9.578   4.069  0.0435 -0.1424 -0.0175
 8462SOL    HW130233   9.230   9.497   4.019 -1.9520  0.0714 -0.0033
 8462SOL    HW230234   9.307   9.556   4.135 -0.2025 -1.6560 -0.2222
 8463SOL     OW30235   5.864   2.465   5.952  0.3097 -0.4508  0.4996
 8463SOL    HW130236   5.914   2.383   5.961  1.8959  0.4966  0.6008
 8463SOL    HW230237   5.911   2.515   5.885 -0.2291  0.6712  0.9366
 8464SOL     OW30238   6.246   8.889   1.598 -0.1836 -0.1818  0.0610
 8464SOL    HW130239   6.236   8.899   1.693 -4.3176  0.3412 -0.2528
 8464SOL    HW230240   6.287   8.971   1.570  1.2888 -0.4204  1.3252
 8465SOL     OW30241   2.196   4.598   2.293  0.2800 -0.1894 -0.6441
 8465SOL    HW130242   2.138   4.648   2.236  0.5506 -0.0496 -0.7990
 8465SOL    HW230243   2.263   4.564   2.234  2.1986  2.2817 -0.0527
 8466SOL     OW30244   8.090   1.781   8.229 -0.0881  0.4120  0.0207
 8466SOL    HW130245   8.179   1.813   8.240 -0.2168  0.9928 -0.5439
 8466SOL    HW230246   8.062   1.756   8.317  1.2042 -1.3837 -0.0443
 8467SOL     OW30247   5.631   2.537   7.247  0.0237  0.3949 -0.0946
 8467SOL    HW130248   5.680   2.583   7.179  2.9128 -0.3096  1.3404
 8467SOL    HW230249   5.599   2.458   7.203 -2.6349  2.2841 -1.8505
 8468SOL     OW30250   7.764   1.589   7.975  0.1558  0.3040 -0.6436
 8468SOL    HW130251   7.675   1.569   7.946  0.1653 -0.7764  0.0386
 8468SOL    HW230252   7.756   1.603   8.070  0.5052  1.4862 -0.7778
 8469SOL     OW30253   6.822   0.289   5.239  0.0463 -0.6031  0.3111
 8469SOL    HW130254   6.790   0.235   5.311 -0.6624  0.7623  1.0572
 8469SOL    HW230255   6.779   0.253   5.161  1.8829 -2.9683  0.2956
 8470SOL     OW30256   5.834   0.157   8.584 -0.1995  0.0764  0.2070
 8470SOL    HW130257   5.849   0.063   8.589  1.6216  0.3798  1.0708
 8470SOL    HW230258   5.852   0.179   8.492  1.3039 -0.1333  0.4338
 8471SOL     OW30259   1.830   7.765   5.632 -0.0027 -0.3612  0.7440
 8471SOL    HW130260   1.737   7.745   5.634  0.2206 -1.4703  2.2368
 8471SOL    HW230261   1.871   7.692   5.679  1.6419 -0.0082 -0.0594
 8472SOL     OW30262   0.523   1.666   8.039 -0.3209  0.1563  0.1934
 8472SOL    HW130263   0.513   1.638   8.131 -0.1642  1.6367  0.6806
 8472SOL    HW230264   0.563   1.752   8.045 -1.7672  0.9674 -1.2268
 8473SOL     OW30265   0.118   4.398   3.047 -0.0318 -0.9109 -0.0903
 8473SOL    HW130266   0.147   4.420   3.136 -1.2263 -2.3490  0.6985
 8473SOL    HW230267   0.032   4.359   3.059 -0.4145 -0.7437 -1.9490
 8474SOL     OW30268   6.064   1.375   3.453  0.9058  0.1991 -0.9569
 8474SOL    HW130269   5.983   1.350   3.408  0.0934  1.7705 -0.4341
 8474SOL    HW230270   6.061   1.327   3.536  0.4000  0.4150 -0.8467
 8475SOL     OW30271   4.429   6.919   0.791 -0.9487 -0.0962 -0.2145
 8475SOL    HW130272   4.509   6.867   0.787 -1.2500 -0.7423  1.4180
 8475SOL    HW230273   4.374   6.874   0.856 -0.9074  2.6295  1.9044
 8476SOL     OW30274   7.406   5.640   3.751 -0.5418 -0.4089 -0.1931
 8476SOL    HW130275   7.463   5.646   3.827 -0.5829 -1.6030 -0.0590
 8476SOL    HW230276   7.461   5.668   3.677 -0.2715 -0.0057  0.1591
 8477SOL     OW30277   8.365   0.714   0.101 -0.3223 -0.4552 -0.2038
 8477SOL    HW130278   8.379   0.800   0.139 -2.5455  0.0445 -0.3865
 8477SOL    HW230279   8.425   0.656   0.149  0.8414  1.0752  0.2510
 8478SOL     OW30280   5.923   3.068   5.175 -0.3183  0.0210  1.0029
 8478SOL    HW130281   5.962   2.981   5.164  1.8727  1.2009 -1.7778
 8478SOL    HW230282   5.990   3.118   5.221 -0.8062  0.7338  0.9477
 8479SOL     OW30283   8.494   4.686   7.625  0.1962  0.0205 -0.2315
 8479SOL    HW130284   8.444   4.622   7.574  1.6462 -1.6728  0.3743
 8479SOL    HW230285   8.577   4.642   7.643  0.4838  1.3369  1.9019
 8480SOL     OW30286   8.056   7.314   7.840  0.5749  0.0897 -0.0068
 8480SOL    HW130287   8.049   7.259   7.762 -1.2709 -1.3069  1.0660
 8480SOL    HW230288   8.124   7.272   7.893 -0.1711 -0.6322  0.3898
 8481SOL     OW30289   8.119   8.088   5.039  0.1416 -0.4479  0.0504
 8481SOL    HW130290   8.115   8.151   5.111  2.0189 -0.7501  0.4844
 8481SOL    HW230291   8.097   8.004   5.080  2.0382 -0.7643  0.5419
 8482SOL     OW30292   8.735   2.690   9.745 -0.3771 -0.3242  0.3039
 8482SOL    HW130293   8.670   2.633   9.702  0.0233 -0.2026 -0.4808
 8482SOL    HW230294   8.779   2.735   9.673 -0.9856  1.3398  0.9117
 8483SOL     OW30295   2.762   8.900   1.283  0.5570 -0.3591 -0.3353
 8483SOL    HW130296   2.820   8.929   1.353 -2.5426  0.2341  2.2809
 8483SOL    HW230297   2.734   8.980   1.239  0.2076 -0.4254 -0.2419
 8484SOL     OW30298   4.169   8.493   7.179  0.0788  0.0709 -0.4417
 8484SOL    HW130299   4.090   8.450   7.146 -1.1524  0.9954  1.1513
 8484SOL    HW230300   4.200   8.546   7.106 -2.1984  1.5798 -0.4252
 8485SOL     OW30301   9.302   8.484   3.671  0.4122  0.2298 -0.0061
 8485SOL    HW130302   9.336   8.548   3.733  0.4000  1.4729 -1.2364
 8485SOL    HW230303   9.248   8.425   3.724  2.5770 -0.4087  1.5926
 8486SOL     OW30304   4.712   1.563   8.582  0.0789 -0.5799 -0.2083
 8486SOL    HW130305   4.722   1.610   8.499  0.0437 -2.4419 -1.3126
 8486SOL    HW230306   4.682   1.476   8.557  0.4322 -1.3056  1.7453
 8487SOL     OW30307   7.598   5.712   6.360 -0.5247 -0.1365 -0.3514
 8487SOL    HW130308   7.520   5.669   6.395  0.1542 -1.1770 -0.0705
 8487SOL    HW230309   7.635   5.758   6.435 -1.6992  1.6798 -0.8341
 8488SOL     OW30310   4.674   8.091   8.646 -0.1322  0.1672  0.3163
 8488SOL    HW130311   4.728   8.035   8.591 -1.2412 -1.2832  0.6543
 8488SOL    HW230312   4.598   8.037   8.670 -0.6611  1.4088  1.6341
 8489SOL     OW30313   7.782   3.434   1.176  0.0346  0.4025  0.4203
 8489SOL    HW130314   7.754   3.518   1.211 -0.7179  0.2405  0.2113
 8489SOL    HW230315   7.703   3.396   1.137  0.5411 -0.0384 -0.2072
 8490SOL     OW30316   1.469   5.066   0.421 -0.1913  0.0500  0.7013
 8490SOL    HW130317   1.433   4.987   0.381  2.3306 -0.2539 -1.2559
 8490SOL    HW230318   1.394   5.109   0.463 -2.1296 -2.0095 -0.4587
 8491SOL     OW30319   9.222   5.963   1.382 -0.7590 -0.8460  0.8447
 8491SOL    HW130320   9.135   5.999   1.370 -1.4105 -2.5578  0.1655
 8491SOL    HW230321   9.222   5.930   1.472 -0.3418  0.2692  1.2822
 8492SOL     OW30322   5.464   2.931   1.701  0.3000  0.1391 -0.2556
 8492SOL    HW130323   5.446   2.941   1.794  5.0956 -1.2396  1.1049
 8492SOL    HW230324   5.518   3.006   1.678  1.3538 -0.8597 -1.1808
 8493SOL     OW30325   0.628   7.023   7.224 -0.2590  0.3341  0.1026
 8493SOL    HW130326   0.722   7.036   7.230 -0.1978  0.2763 -0.5874
 8493SOL    HW230327   0.604   7.062   7.140 -0.9855  1.0810  0.6337
 8494SOL     OW30328   6.212   8.120   5.364  0.0655 -0.4150 -0.2508
 8494SOL    HW130329   6.295   8.137   5.320  0.9999 -2.1259  0.7520
 8494SOL    HW230330   6.206   8.188   5.431 -0.3261  0.8879 -1.5508
 8495SOL     OW30331   6.741   3.549   1.135  0.2110 -0.4282 -0.3083
 8495SOL    HW130332   6.657   3.592   1.119  0.3107  0.4715  1.3567
 8495SOL    HW230333   6.777   3.533   1.048 -1.0792  0.3805 -1.0230
 8496SOL     OW30334   8.976   6.981   7.877 -0.3830  0.1292  0.7464
 8496SOL    HW130335   9.041   6.951   7.813 -0.9538 -1.1784  0.7577
 8496SOL    HW230336   8.977   7.076   7.868  2.0122  0.2169  1.2164
 8497SOL     OW30337   4.843   8.190   7.653 -0.6546  0.0441 -0.3391
 8497SOL    HW130338   4.815   8.253   7.720 -1.6749  0.6679 -1.3207
 8497SOL    HW230339   4.761   8.154   7.619 -0.1299 -0.5802 -0.9712
 8498SOL     OW30340   7.081   7.559   9.661 -0.2222  0.1062 -0.0369
 8498SOL    HW130341   7.011   7.567   9.725 -0.4884  0.0977 -0.3260
 8498SOL    HW230342   7.054   7.486   9.605 -0.0386  0.1781 -0.2201
 8499SOL     OW30343   8.171   0.443   8.945 -0.4435 -0.7629  0.3213
 8499SOL    HW130344   8.133   0.362   8.977 -2.3390  0.3783  1.1136
 8499SOL    HW230345   8.186   0.428   8.852 -1.7561 -1.6802  0.2402
 8500SOL     OW30346   1.487   0.561   5.132 -0.1316  0.0440 -0.3915
 8500SOL    HW130347   1.556   0.598   5.187 -0.0805 -2.0559  1.0823
 8500SOL    HW230348   1.483   0.469   5.157 -2.0553 -0.3752 -1.9578
 8501SOL     OW30349   1.687   6.520   9.609  0.4448 -0.5442 -0.1952
 8501SOL    HW130350   1.652   6.430   9.614  1.5751 -0.9395  1.7342
 8501SOL    HW230351   1.682   6.542   9.516  0.7837 -2.8845 -0.8494
 8502SOL     OW30352   8.814   1.769   6.494 -0.1425  0.2163 -0.2798
 8502SOL    HW130353   8.749   1.838   6.510 -1.1963 -0.8764  0.2969
 8502SOL    HW230354   8.882   1.784   6.560  1.2458  2.5305 -2.0826
 8503SOL     OW30355   8.369   5.853   6.132 -0.3724  0.4418 -0.4149
 8503SOL    HW130356   8.458   5.820   6.116  0.4357  2.0995  0.4121
 8503SOL    HW230357   8.344   5.814   6.216 -0.5451 -0.2418 -0.7787
 8504SOL     OW30358   1.319   2.875   5.808  0.1719  0.2071 -0.5583
 8504SOL    HW130359   1.367   2.796   5.785 -1.0999 -0.7434 -0.0648
 8504SOL    HW230360   1.360   2.906   5.889 -0.7349 -1.2490  0.5017
 8505SOL     OW30361   2.298   2.772   8.681 -0.2946  0.0737  0.1006
 8505SOL    HW130362   2.386   2.734   8.677 -0.7407 -1.1769  1.1068
 8505SOL    HW230363   2.288   2.800   8.772 -0.9475  0.1529  0.0110
 8506SOL     OW30364   5.598   7.153   6.499  0.0750  0.2391  0.0149
 8506SOL    HW130365   5.597   7.068   6.454 -0.6373 -0.2355  0.8809
 8506SOL    HW230366   5.506   7.177   6.507  0.2483  0.8664  0.1946
 8507SOL     OW30367   6.671   2.924   1.420 -0.1927 -0.2118  0.2066
 8507SOL    HW130368   6.602   2.863   1.395 -0.9049  0.6819 -0.0495
 8507SOL    HW230369   6.626   2.994   1.467  0.4988  0.5067 -0.1717
 8508SOL     OW30370   3.294   9.495   9.619  0.3659 -0.3066  0.0695
 8508SOL    HW130371   3.214   9.548   9.610 -1.1315 -2.4562 -0.0473
 8508SOL    HW230372   3.288   9.431   9.548  1.7248 -1.1108  0.6516
 8509SOL     OW30373   1.645   5.365   1.444  0.4101  0.3651 -0.0375
 8509SOL    HW130374   1.655   5.402   1.356  1.2514  0.6271  0.1630
 8509SOL    HW230375   1.551   5.374   1.462  0.2095  0.2326 -0.9376
 8510SOL     OW30376   0.659   9.686   6.725 -0.1985 -0.4516 -0.2983
 8510SOL    HW130377   0.683   9.656   6.813 -2.0276  0.4399  0.5576
 8510SOL    HW230378   0.690   9.617   6.667  2.0527 -0.5477  0.9151
 8511SOL     OW30379   7.335   6.883   0.177 -0.1176 -0.2091  0.0603
 8511SOL    HW130380   7.257   6.907   0.126  1.5966  1.6216 -1.9402
 8511SOL    HW230381   7.308   6.889   0.268 -2.3191  0.2824 -0.5750
 8512SOL     OW30382   7.711   7.423   9.034  0.5706 -0.7321  0.4423
 8512SOL    HW130383   7.760   7.379   8.965  0.7538 -0.1939  0.2220
 8512SOL    HW230384   7.710   7.516   9.008 -1.1113 -0.8055  0.0967
 8513SOL     OW30385   2.316   8.167   3.711  0.4598 -0.1302  0.0296
 8513SOL    HW130386   2.396   8.167   3.764  0.9126 -0.8320 -0.6371
 8513SOL    HW230387   2.332   8.230   3.641 -0.5904  1.6958  1.3355
 8514SOL     OW30388   3.700   7.768   0.891 -0.3571 -0.5977 -0.2977
 8514SOL    HW130389   3.613   7.780   0.929 -0.8378 -0.8111 -1.2930
 8514SOL    HW230390   3.684   7.728   0.806  0.6983 -0.3225 -0.6447
 8515SOL     OW30391   5.355   1.976   7.012 -0.1811 -0.5998  0.0186
 8515SOL    HW130392   5.411   2.030   7.068 -1.2375  0.2654  0.2713
 8515SOL    HW230393   5.416   1.930   6.954  0.8412 -0.4578  0.9589
 8516SOL     OW30394   9.118   9.390   5.771  0.3916  0.1091 -0.4174
 8516SOL    HW130395   9.053   9.383   5.841 -0.1095 -1.0731 -0.9662
 8516SOL    HW230396   9.183   9.323   5.792 -0.0558 -0.6448 -1.3588
 8517SOL     OW30397   2.389   3.010   5.637 -0.4336 -0.3811 -0.4728
 8517SOL    HW130398   2.437   3.036   5.558  0.3388 -0.9205 -0.1985
 8517SOL    HW230399   2.440   2.937   5.672 -0.8216 -0.2008  0.4754
 8518SOL     OW30400   4.257   8.916   5.234  0.1540 -0.0272  0.1274
 8518SOL    HW130401   4.290   8.922   5.323 -0.3802 -0.4407  0.3581
 8518SOL    HW230402   4.329   8.879   5.183  0.3505 -0.0835  0.4487
 8519SOL     OW30403   7.769   2.717   8.120  0.3710  0.5376 -0.0959
 8519SOL    HW130404   7.754   2.684   8.208 -0.3394  2.8964  0.7359
 8519SOL    HW230405   7.741   2.645   8.063  0.5982 -0.9416  1.5728
 8520SOL     OW30406   1.406   0.512   4.675  0.1209  0.3600  0.3872
 8520SOL    HW130407   1.379   0.421   4.665  0.0290  0.2923  1.1847
 8520SOL    HW230408   1.443   0.536   4.590 -2.4724  0.4847 -0.7866
 8521SOL     OW30409   5.744   4.764   2.584 -0.8589 -0.2022  0.2010
 8521SOL    HW130410   5.771   4.855   2.572 -1.7674  0.4058  2.2178
 8521SOL    HW230411   5.820   4.712   2.560  0.7606  1.2423  1.9550
 8522SOL     OW30412   9.616   9.738   3.204  0.2434 -0.1587 -0.6784
 8522SOL    HW130413   9.672   9.808   3.171 -0.2482  0.2877 -0.5879
 8522SOL    HW230414   9.674   9.662   3.213  0.9099  0.3923 -0.2447
 8523SOL     OW30415   7.661   1.619   8.930  0.0006 -0.8666  1.0053
 8523SOL    HW130416   7.565   1.620   8.929 -0.0688  0.2028 -2.3887
 8523SOL    HW230417   7.685   1.712   8.929  0.9280 -1.0730 -1.4954
 8524SOL     OW30418   8.510   5.710   1.433  0.0749 -0.1327 -0.0747
 8524SOL    HW130419   8.499   5.652   1.508 -0.7753 -0.6685 -0.6001
 8524SOL    HW230420   8.506   5.798   1.471  1.1318 -0.3987  0.6933
 8525SOL     OW30421   5.539   2.296   2.871 -0.6817  0.2109  0.2782
 8525SOL    HW130422   5.616   2.352   2.872 -0.3786 -0.1917  1.2921
 8525SOL    HW230423   5.471   2.350   2.831  0.2806  0.3275 -1.2820
 8526SOL     OW30424   7.884   6.145   8.557 -0.4507 -0.9559 -0.7034
 8526SOL    HW130425   7.948   6.216   8.556 -2.9306  1.4575  0.0412
 8526SOL    HW230426   7.801   6.187   8.534 -1.8391 -3.9182 -1.6163
 8527SOL     OW30427   8.538   3.141   6.776  0.2346 -0.8235 -0.3138
 8527SOL    HW130428   8.469   3.083   6.806 -0.0771  0.2131  1.0487
 8527SOL    HW230429   8.582   3.170   6.856 -0.1845  1.5008 -0.8429
 8528SOL     OW30430   3.224   2.850   8.458 -0.5875  0.0365  0.1724
 8528SOL    HW130431   3.237   2.935   8.500 -1.3386  0.2204  0.0387
 8528SOL    HW230432   3.129   2.837   8.458 -0.4183 -1.5999  1.7355
 8529SOL     OW30433   3.099   4.274   4.648  0.0521  0.2358 -0.2757
 8529SOL    HW130434   3.104   4.184   4.616  0.2018 -0.4268  1.5031
 8529SOL    HW230435   3.161   4.277   4.721  2.4919  2.6832 -2.2095
 8530SOL     OW30436   0.387   8.129   1.551 -0.8941 -0.0411  0.2071
 8530SOL    HW130437   0.334   8.113   1.473 -0.6083  1.2263 -0.2640
 8530SOL    HW230438   0.461   8.181   1.520 -1.0596  0.9602  1.3933
 8531SOL     OW30439   2.259   8.789   4.035  0.2826 -0.1222 -0.7253
 8531SOL    HW130440   2.249   8.712   4.091  2.3535 -1.0112 -1.4529
 8531SOL    HW230441   2.209   8.768   3.956 -2.3320  0.9759  0.5192
 8532SOL     OW30442   1.936   9.319   2.214 -0.3944 -0.3508  0.0223
 8532SOL    HW130443   1.936   9.316   2.118 -1.8894 -2.4780 -0.0083
 8532SOL    HW230444   1.919   9.228   2.240  0.9299 -0.0080  2.3445
 8533SOL     OW30445   0.905   2.825   4.050 -0.6227  0.4747 -0.7091
 8533SOL    HW130446   0.991   2.784   4.049 -0.5946  0.4795  0.4504
 8533SOL    HW230447   0.873   2.816   3.960  1.2066  1.8080 -1.5542
 8534SOL     OW30448   4.132   0.750   0.164 -0.1000  0.2674  0.2200
 8534SOL    HW130449   4.086   0.833   0.156 -0.8766 -0.2370 -0.7512
 8534SOL    HW230450   4.177   0.756   0.248  1.2667  2.3573 -0.5615
 8535SOL     OW30451   5.138   3.596   1.234  0.1702  0.3243  0.7003
 8535SOL    HW130452   5.229   3.615   1.256  0.0179  2.2154 -0.0811
 8535SOL    HW230453   5.144   3.540   1.157  0.6601 -0.4309  1.2710
 8536SOL     OW30454   4.674   5.770   3.822  0.3717  0.4570 -0.2360
 8536SOL    HW130455   4.579   5.780   3.813  0.2094 -0.4446  0.3684
 8536SOL    HW230456   4.696   5.696   3.765  0.9377  1.4929 -1.4336
 8537SOL     OW30457   5.957   4.127   6.891  0.3658 -0.2055  0.0203
 8537SOL    HW130458   5.953   4.217   6.923  0.1347  0.4712 -1.7573
 8537SOL    HW230459   5.866   4.098   6.890  0.3322 -0.1019 -0.2818
 8538SOL     OW30460   3.317   8.449   9.408 -0.3330 -0.0686 -0.1648
 8538SOL    HW130461   3.350   8.454   9.498 -2.5107  0.9819  0.6712
 8538SOL    HW230462   3.386   8.488   9.354  1.4812 -1.7109  0.8804
 8539SOL     OW30463   5.501   2.358   9.656  0.2951  0.0803  0.3124
 8539SOL    HW130464   5.554   2.429   9.622  0.2971  0.2264  0.6131
 8539SOL    HW230465   5.531   2.280   9.609  0.1880  0.3001 -0.1267
 8540SOL     OW30466   4.002   8.201   0.847 -0.0414  0.1885  0.0029
 8540SOL    HW130467   4.019   8.138   0.917  1.9660  1.0406  0.3747
 8540SOL    HW230468   3.981   8.282   0.892  0.0335  0.4410 -0.4114
 8541SOL     OW30469   2.801   3.853   3.770  0.7591 -0.4564 -0.0930
 8541SOL    HW130470   2.756   3.864   3.685  0.2422  1.1705  0.3404
 8541SOL    HW230471   2.875   3.914   3.765 -0.9127  1.9048  1.6385
 8542SOL     OW30472   7.560   0.225   2.570 -0.2924  0.3284  0.1906
 8542SOL    HW130473   7.471   0.200   2.595 -0.7844 -0.0777 -1.7486
 8542SOL    HW230474   7.560   0.320   2.571 -0.0145  0.3483  2.4486
 8543SOL     OW30475   5.930   0.460   7.972  0.8076  0.0612  0.9105
 8543SOL    HW130476   5.959   0.494   8.057  2.7566  0.3231  0.1701
 8543SOL    HW230477   5.933   0.536   7.914  0.7919 -0.4170  0.2811
 8544SOL     OW30478   5.227   9.194   8.332 -0.3027 -0.2282  0.3058
 8544SOL    HW130479   5.299   9.134   8.351 -0.5722 -0.6015  0.1651
 8544SOL    HW230480   5.269   9.279   8.319  0.2793 -0.7127 -1.2228
 8545SOL     OW30481   0.787   5.203   6.853  0.0490  0.2510 -0.0405
 8545SOL    HW130482   0.701   5.233   6.823 -0.3944  0.4032  1.3367
 8545SOL    HW230483   0.767   5.135   6.917  1.0011 -0.9763 -1.0150
 8546SOL     OW30484   6.082   4.194   4.533  0.2186 -0.4786  0.0937
 8546SOL    HW130485   5.996   4.236   4.529 -0.5721 -1.9728  0.3767
 8546SOL    HW230486   6.078   4.141   4.613  1.6170 -0.1458  0.3991
 8547SOL     OW30487   3.736   9.004   9.681  0.2307 -0.2212  0.3359
 8547SOL    HW130488   3.820   9.050   9.682  0.4609 -0.4671 -2.0074
 8547SOL    HW230489   3.694   9.030   9.763  1.1460  2.6441  0.0255
 8548SOL     OW30490   4.205   3.143   2.011  0.2784  0.3689  0.1043
 8548SOL    HW130491   4.235   3.217   1.959  1.0339  0.1912  0.2702
 8548SOL    HW230492   4.225   3.167   2.102  0.9423 -0.2116  0.1226
 8549SOL     OW30493   0.789   7.171   6.855 -0.3236 -0.0984 -0.1444
 8549SOL    HW130494   0.712   7.212   6.815  0.6474  0.5281 -1.4284
 8549SOL    HW230495   0.754   7.092   6.897 -1.7503  0.4621 -0.1994
 8550SOL     OW30496   7.494   6.556   8.911 -0.0721 -0.1389 -0.3923
 8550SOL    HW130497   7.503   6.592   8.823  2.3805 -1.1290 -0.6153
 8550SOL    HW230498   7.579   6.517   8.930 -0.2235  0.8041  2.7642
 8551SOL     OW30499   6.560   0.201   6.670  0.5363  0.8490 -0.0779
 8551SOL    HW130500   6.509   0.147   6.731  0.6661 -2.6402 -2.7344
 8551SOL    HW230501   6.637   0.227   6.720 -0.7478  0.7338  2.0920
 8552SOL     OW30502   3.605   0.385   1.100 -0.0571 -0.2130 -0.7561
 8552SOL    HW130503   3.694   0.356   1.084 -0.7335 -2.2771 -1.1577
 8552SOL    HW230504   3.596   0.383   1.195  0.3315  0.0514 -0.7120
 8553SOL     OW30505   9.288   1.589   1.067 -0.3171 -0.8606  0.2793
 8553SOL    HW130506   9.305   1.497   1.087  0.2880 -0.7999  0.0843
 8553SOL    HW230507   9.210   1.588   1.012 -0.3849 -1.2479  0.3844
 8554SOL     OW30508   2.536   0.208   6.288 -0.1288 -0.2436  0.3897
 8554SOL    HW130509   2.577   0.271   6.229  2.0571 -1.3476  0.6409
 8554SOL    HW230510   2.503   0.139   6.230 -2.1514  0.8216  0.1530
 8555SOL     OW30511   6.371   5.878   4.021  0.5918  0.1852  0.0901
 8555SOL    HW130512   6.388   5.914   4.108  0.8456  0.2288  0.0229
 8555SOL    HW230513   6.422   5.797   4.018  0.8852  0.3773 -0.1554
 8556SOL     OW30514   1.795   0.156   8.967  0.0103 -0.8135  0.1202
 8556SOL    HW130515   1.716   0.104   8.981 -0.3948  0.1418  1.4984
 8556SOL    HW230516   1.811   0.200   9.050  1.2964 -0.0219 -0.5068
 8557SOL     OW30517   1.823   0.625   0.131  0.3808 -0.1234  0.1005
 8557SOL    HW130518   1.896   0.636   0.069  1.1963  0.8163  1.1867
 8557SOL    HW230519   1.865   0.593   0.211 -0.5638 -0.6428  0.3927
 8558SOL     OW30520   0.707   3.097   2.104  0.0118  0.5291 -0.3335
 8558SOL    HW130521   0.671   3.113   2.018  0.6748 -1.4177 -1.0359
 8558SOL    HW230522   0.798   3.128   2.099 -0.1139  0.9247 -0.1584
 8559SOL     OW30523   2.185   8.830   5.039  0.4282  0.2031 -0.3366
 8559SOL    HW130524   2.190   8.899   4.973  0.7611 -0.1449 -0.6816
 8559SOL    HW230525   2.276   8.803   5.053  0.2407 -0.7956 -0.8884
 8560SOL     OW30526   1.641   4.880   2.415  0.2329  0.0901  0.1447
 8560SOL    HW130527   1.619   4.973   2.424  0.1639  0.3015 -1.6638
 8560SOL    HW230528   1.574   4.834   2.467 -1.4617  0.9587 -1.1482
 8561SOL     OW30529   8.764   5.111   2.786  0.0758 -0.0670 -0.6610
 8561SOL    HW130530   8.773   5.206   2.794 -2.1723  0.2942 -1.7457
 8561SOL    HW230531   8.851   5.077   2.810  0.9608  2.2393 -0.3244
 8562SOL     OW30532   6.370   9.612   8.296 -0.0090  0.0811  0.2330
 8562SOL    HW130533   6.458   9.647   8.309 -0.2355  0.4042  0.9024
 8562SOL    HW230534   6.384   9.523   8.264  0.5667  0.5908 -1.0083
 8563SOL     OW30535   1.807   8.046   0.169 -0.3789 -0.5812 -0.3493
 8563SOL    HW130536   1.724   8.061   0.215 -0.3564 -1.0835 -0.1425
 8563SOL    HW230537   1.817   7.951   0.166  0.1323 -0.5292 -0.4777
 8564SOL     OW30538   5.966   1.996   0.517 -0.2679  0.3522  0.1638
 8564SOL    HW130539   5.955   2.090   0.524  2.5113  0.6400  2.0891
 8564SOL    HW230540   6.060   1.981   0.530  0.0305 -2.4413 -3.4232
 8565SOL     OW30541   5.685   7.520   0.570  0.7401 -0.4831 -0.5949
 8565SOL    HW130542   5.675   7.425   0.569  0.3018 -0.4566  0.1066
 8565SOL    HW230543   5.602   7.552   0.607  1.3336  0.0875  0.2794
 8566SOL     OW30544   0.321   2.514   2.039 -0.1648  0.6783 -0.4400
 8566SOL    HW130545   0.416   2.501   2.043 -0.3500 -0.4534  1.6477
 8566SOL    HW230546   0.309   2.577   1.968  2.2069  1.5468 -0.1842
 8567SOL     OW30547   5.513   4.139   9.356  0.2034  0.1148 -0.3855
 8567SOL    HW130548   5.560   4.222   9.354 -2.1331  1.5183 -0.8575
 8567SOL    HW230549   5.519   4.105   9.267  2.3205 -0.9998  0.1135
 8568SOL     OW30550   8.067   3.112   4.870  1.2917 -0.3270 -0.5485
 8568SOL    HW130551   8.000   3.110   4.802  0.6123  1.2074  0.0363
 8568SOL    HW230552   8.029   3.164   4.941  1.6900 -2.5151  1.3688
 8569SOL     OW30553   7.737   7.674   1.007 -0.3774 -0.2007 -0.0400
 8569SOL    HW130554   7.704   7.679   0.917 -1.8597  2.2111  0.5733
 8569SOL    HW230555   7.817   7.727   1.007 -0.4114 -0.1490  0.0897
 8570SOL     OW30556   7.896   4.489   2.532 -0.6660  0.6143 -0.2911
 8570SOL    HW130557   7.811   4.498   2.490  0.4953  2.1630 -2.4806
 8570SOL    HW230558   7.943   4.569   2.509  1.8138 -0.7047 -0.1322
 8571SOL     OW30559   6.223   5.882   3.782  0.5734 -0.1133  0.5797
 8571SOL    HW130560   6.275   5.887   3.862  2.7696  1.2752 -0.7984
 8571SOL    HW230561   6.160   5.954   3.789 -0.8966 -1.4755  2.0400
 8572SOL     OW30562   3.363   7.019   5.091  0.2825 -0.2115 -0.4608
 8572SOL    HW130563   3.278   6.979   5.108  0.1609  0.6752  1.3274
 8572SOL    HW230564   3.348   7.080   5.019 -0.1408 -1.3780 -1.3868
 8573SOL     OW30565   4.648   1.217   3.714 -0.1200 -0.7884 -0.5704
 8573SOL    HW130566   4.672   1.288   3.773 -2.7251  2.2488 -2.8301
 8573SOL    HW230567   4.584   1.165   3.763 -1.0753  0.7514 -0.1219
 8574SOL     OW30568   8.085   8.736   8.566 -0.0559 -0.1497  1.0344
 8574SOL    HW130569   8.104   8.797   8.495 -1.8945 -0.4254  0.2263
 8574SOL    HW230570   8.036   8.788   8.630 -1.5511 -0.6781  0.3836
 8575SOL     OW30571   9.021   7.806   8.295  0.6868  0.3248 -0.1350
 8575SOL    HW130572   9.037   7.900   8.283  0.2958  0.4050 -0.0484
 8575SOL    HW230573   8.956   7.785   8.227  1.2335 -0.0168 -0.5613
 8576SOL     OW30574   8.475   8.126   3.387  0.4094  0.5028  0.0666
 8576SOL    HW130575   8.564   8.091   3.394 -0.3326 -1.5451 -0.1030
 8576SOL    HW230576   8.472   8.166   3.300  0.6667 -1.0555 -0.6970
 8577SOL     OW30577   0.014   5.896   5.246 -0.1762 -0.1761 -0.2052
 8577SOL    HW130578   0.009   5.951   5.169  1.4487 -2.0804 -1.7841
 8577SOL    HW230579   0.023   5.807   5.212  2.7903 -0.9214  2.0628
 8578SOL     OW30580   5.884   4.329   9.168  0.3325 -0.2597  0.6101
 8578SOL    HW130581   5.974   4.354   9.192  0.2719 -0.2376  0.8199
 8578SOL    HW230582   5.829   4.397   9.207  0.3517  0.9799 -1.3947
 8579SOL     OW30583   1.776   6.248   7.813  0.0493  0.6327  0.6574
 8579SOL    HW130584   1.825   6.313   7.865 -0.0815 -0.1008  1.7345
 8579SOL    HW230585   1.696   6.234   7.863 -1.0532  1.4372 -0.8290
 8580SOL     OW30586   9.103   9.660   6.627 -0.2788  0.0840  0.2697
 8580SOL    HW130587   9.061   9.682   6.544 -0.7850 -1.3016  0.1376
 8580SOL    HW230588   9.197   9.659   6.607 -0.3195  0.9009  0.0080
 8581SOL     OW30589   1.660   4.870   1.838 -0.2277 -0.1702  0.2196
 8581SOL    HW130590   1.600   4.893   1.908 -3.1654  0.0548 -2.1967
 8581SOL    HW230591   1.676   4.776   1.849  0.1946  0.0542  1.7190
 8582SOL     OW30592   3.322   0.101   3.440  0.6567 -0.4724  0.4367
 8582SOL    HW130593   3.268   0.068   3.368  0.6455  1.8929 -0.7575
 8582SOL    HW230594   3.306   0.195   3.440  1.6359 -0.2488  2.7676
 8583SOL     OW30595   0.621   7.934   7.844  0.0967 -0.6141  0.4805
 8583SOL    HW130596   0.528   7.917   7.861 -0.4683  1.3721 -0.3600
 8583SOL    HW230597   0.659   7.950   7.930 -0.0602 -2.5234  0.9481
 8584SOL     OW30598   1.234   8.021   3.310 -0.6108 -0.4358  0.3018
 8584SOL    HW130599   1.144   8.042   3.334 -0.3152 -0.5978  1.6148
 8584SOL    HW230600   1.237   7.925   3.310 -0.6928 -0.4471 -0.7631
 8585SOL     OW30601   0.729   5.058   9.060 -0.2121 -0.2468  0.5190
 8585SOL    HW130602   0.822   5.036   9.054  0.0064  0.4720  1.1210
 8585SOL    HW230603   0.718   5.130   8.998 -0.0851  0.5019  1.3368
 8586SOL     OW30604   8.160   0.184   6.666  0.2004  0.2067 -0.1918
 8586SOL    HW130605   8.130   0.218   6.751  0.1113 -0.5700  0.0985
 8586SOL    HW230606   8.254   0.197   6.667  0.1881  0.2852 -0.0130
 8587SOL     OW30607   5.086   2.160   7.266 -0.5343  0.6160  0.4247
 8587SOL    HW130608   5.168   2.127   7.302  0.1997  2.8554  1.0180
 8587SOL    HW230609   5.086   2.132   7.175  0.2930 -0.4342  0.7290
 8588SOL     OW30610   9.357   3.849   8.069 -0.7667 -0.1197 -0.2599
 8588SOL    HW130611   9.321   3.936   8.085 -1.7824 -0.3539 -1.1988
 8588SOL    HW230612   9.401   3.856   7.984 -0.5310 -0.4315 -0.1658
 8589SOL     OW30613   2.385   4.995   1.621  0.0058 -0.8666  0.4004
 8589SOL    HW130614   2.368   5.054   1.547  0.9149  1.0269  1.6283
 8589SOL    HW230615   2.462   4.945   1.594  0.5095  0.0174  0.1517
 8590SOL     OW30616   5.819   3.844   4.065 -0.6028 -0.3723  0.6383
 8590SOL    HW130617   5.876   3.845   3.988 -0.0798  0.1203  1.0184
 8590SOL    HW230618   5.733   3.820   4.031 -0.7342  1.2891 -0.3575
 8591SOL     OW30619   6.547   5.286   7.169  0.4022  0.3144  0.0036
 8591SOL    HW130620   6.634   5.284   7.128  0.3174  1.2151 -0.2381
 8591SOL    HW230621   6.553   5.223   7.241  1.0567 -0.1019 -0.3998
 8592SOL     OW30622   2.956   7.784   4.441 -0.3827 -0.0690 -0.8310
 8592SOL    HW130623   3.012   7.860   4.456 -0.4553  0.1490 -1.6039
 8592SOL    HW230624   2.948   7.742   4.526  0.5137  0.2038 -0.6081
 8593SOL     OW30625   9.585   3.914   7.569 -0.0089 -1.0174  0.0159
 8593SOL    HW130626   9.680   3.921   7.577  0.1854 -2.4787 -0.7150
 8593SOL    HW230627   9.572   3.867   7.487 -1.4498  1.2047 -1.1395
 8594SOL     OW30628   0.538   3.322   6.743 -0.4834  0.0515 -0.1703
 8594SOL    HW130629   0.456   3.277   6.723 -0.8447  1.2324 -1.5338
 8594SOL    HW230630   0.571   3.351   6.658  0.5421  0.9625  0.5009
 8595SOL     OW30631   5.640   7.151   1.730  0.3716 -0.1640 -0.1176
 8595SOL    HW130632   5.603   7.110   1.809  1.2329 -0.9687 -0.1100
 8595SOL    HW230633   5.723   7.188   1.760  1.8139 -2.4189 -1.0601
 8596SOL     OW30634   4.600   3.626   9.161 -0.2281  0.0578  0.2385
 8596SOL    HW130635   4.685   3.670   9.172 -0.2004  0.9853 -2.7323
 8596SOL    HW230636   4.614   3.566   9.088 -2.3736  1.0232 -1.0382
 8597SOL     OW30637   0.992   9.112   2.179 -0.1536  0.6208  0.1218
 8597SOL    HW130638   0.996   9.165   2.099  0.2136 -0.3720 -0.5470
 8597SOL    HW230639   0.988   9.022   2.147  2.1825  0.0593  1.1926
 8598SOL     OW30640   9.097   2.583   3.810  0.2421 -0.3986  0.1340
 8598SOL    HW130641   9.038   2.625   3.872  2.0066  1.7081  0.4935
 8598SOL    HW230642   9.083   2.489   3.824 -0.9008  0.0211  2.2528
 8599SOL     OW30643   0.359   2.074   7.603 -0.3768  0.1481 -0.3675
 8599SOL    HW130644   0.341   1.987   7.565 -1.4149  0.0593  0.2920
 8599SOL    HW230645   0.338   2.135   7.533 -3.2536  0.0454  0.2504
 8600SOL     OW30646   0.751   4.688   4.142 -0.0227 -0.1578  0.0891
 8600SOL    HW130647   0.841   4.713   4.122 -1.1107  2.9545 -1.7219
 8600SOL    HW230648   0.724   4.636   4.067 -0.7860  2.2317 -1.4178
 8601SOL     OW30649   5.844   2.460   4.712  0.1123 -0.4503  0.0209
 8601SOL    HW130650   5.824   2.440   4.804 -0.6670  1.9026  0.4509
 8601SOL    HW230651   5.885   2.547   4.716  0.1822 -0.3697 -1.8527
 8602SOL     OW30652   1.944   0.563   8.071 -0.0139 -0.4790  0.8314
 8602SOL    HW130653   2.029   0.590   8.107  1.3383 -2.0831 -0.9663
 8602SOL    HW230654   1.966   0.516   7.991 -2.7714  1.1797 -1.0389
 8603SOL     OW30655   8.331   5.011   4.930 -0.0862 -0.0892 -0.1509
 8603SOL    HW130656   8.236   5.020   4.917 -0.2111  1.5645  1.5680
 8603SOL    HW230657   8.362   5.101   4.942  1.2183 -0.8097  2.4009
 8604SOL     OW30658   1.223   2.382   1.786  0.4279  0.0378 -0.3480
 8604SOL    HW130659   1.149   2.325   1.807  0.7289 -1.5776 -3.1007
 8604SOL    HW230660   1.294   2.352   1.842  0.1596 -1.3598 -0.7118
 8605SOL     OW30661   6.384   2.386   6.764 -0.2749 -0.1905 -0.1761
 8605SOL    HW130662   6.478   2.370   6.754 -0.5451 -1.4557 -0.9494
 8605SOL    HW230663   6.343   2.300   6.749 -1.5953  0.4482 -0.4137
 8606SOL     OW30664   5.882   6.358   6.106 -0.8650  0.0924 -0.3439
 8606SOL    HW130665   5.922   6.444   6.093 -1.3506  0.1041 -2.1525
 8606SOL    HW230666   5.826   6.368   6.182  0.1097  0.9875  0.2766
 8607SOL     OW30667   5.959   4.105   3.165 -0.2107 -0.8700  0.0474
 8607SOL    HW130668   5.945   4.198   3.185 -0.1444  0.0791 -3.7159
 8607SOL    HW230669   5.905   4.059   3.229  0.3023  1.6500  2.5205
 8608SOL     OW30670   9.199   5.312   5.907 -0.3932 -1.0532 -0.3925
 8608SOL    HW130671   9.104   5.310   5.898 -0.6861  1.5474  1.0518
 8608SOL    HW230672   9.232   5.309   5.817 -2.0040  1.0477 -1.1365
 8609SOL     OW30673   3.441   2.695   6.746  0.4886 -0.6628  0.4331
 8609SOL    HW130674   3.440   2.624   6.810 -0.7322  0.5247  1.7784
 8609SOL    HW230675   3.353   2.694   6.708 -0.0787  1.0740  1.5933
 8610SOL     OW30676   1.361   8.693   3.590  0.0074 -0.0320 -0.4032
 8610SOL    HW130677   1.369   8.598   3.598  0.4730  0.0795  0.6366
 8610SOL    HW230678   1.332   8.708   3.500 -1.9601 -1.2573 -0.0211
 8611SOL     OW30679   6.673   0.621   2.341 -0.1247  0.1358 -0.0044
 8611SOL    HW130680   6.642   0.565   2.270 -0.6813 -1.0805  1.1539
 8611SOL    HW230681   6.759   0.652   2.311  0.2969 -1.5125 -0.5993
 8612SOL     OW30682   0.637   8.632   7.261 -0.3900 -0.0956 -0.5300
 8612SOL    HW130683   0.669   8.568   7.197  0.3093  0.2902 -0.5753
 8612SOL    HW230684   0.546   8.647   7.236  0.0599  0.5519 -1.8457
 8613SOL     OW30685   2.621   2.289   5.253  0.0791  0.6610  0.2035
 8613SOL    HW130686   2.526   2.293   5.262 -0.1789 -3.2370  1.0234
 8613SOL    HW230687   2.652   2.267   5.341  1.4796 -0.3530 -0.5030
 8614SOL     OW30688   2.546   0.878   0.060  0.7205  0.2531 -0.2450
 8614SOL    HW130689   2.563   0.970   0.041 -1.2569  1.6172  3.4788
 8614SOL    HW230690   2.578   0.867   0.150  0.6342 -2.6549 -0.4923
 8615SOL     OW30691   7.587   2.915   9.693 -0.3646  0.2755 -0.3611
 8615SOL    HW130692   7.563   2.845   9.632  2.0658 -1.2872  0.3558
 8615SOL    HW230693   7.550   2.887   9.777 -2.1430  1.5237 -0.6745
 8616SOL     OW30694   8.760   0.890   5.921  0.0800 -0.4757  0.2102
 8616SOL    HW130695   8.801   0.857   5.841  0.7586 -1.0802  0.7990
 8616SOL    HW230696   8.783   0.826   5.988 -0.8180 -0.1850  0.8161
 8617SOL     OW30697   2.049   6.144   8.439 -0.3761 -0.6559  0.0063
 8617SOL    HW130698   2.040   6.122   8.346  0.6332 -0.9390 -0.0451
 8617SOL    HW230699   2.140   6.121   8.459 -0.4043 -0.0068  0.9097
 8618SOL     OW30700   2.838   5.112   2.983 -0.4869  0.3020  0.0112
 8618SOL    HW130701   2.899   5.179   3.012 -0.5191  0.7544 -0.9317
 8618SOL    HW230702   2.751   5.151   2.996 -0.4964  0.5736 -0.8289
 8619SOL     OW30703   2.916   0.207   0.942 -0.0813 -0.0792 -0.3668
 8619SOL    HW130704   2.947   0.121   0.971  2.8824  0.1748 -2.3210
 8619SOL    HW230705   2.847   0.187   0.878  0.0433 -0.9730 -0.2341
 8620SOL     OW30706   4.240   9.630   5.323 -0.2740  0.1675 -0.5655
 8620SOL    HW130707   4.173   9.695   5.343  0.9637  1.4983 -0.6486
 8620SOL    HW230708   4.201   9.547   5.353 -2.1205  0.8178 -1.0198
 8621SOL     OW30709   4.042   8.672   4.951  0.4669 -0.0088 -0.2355
 8621SOL    HW130710   3.977   8.729   4.992 -0.7964  0.2821 -2.5180
 8621SOL    HW230711   3.991   8.600   4.913  1.7302 -0.9707 -0.1765
 8622SOL     OW30712   3.063   7.730   9.451 -0.6266  0.8220 -0.1862
 8622SOL    HW130713   3.101   7.645   9.432  1.7328  1.6545  0.4646
 8622SOL    HW230714   3.000   7.745   9.380 -2.9068 -2.3931  0.9358
 8623SOL     OW30715   2.175   0.334   2.337  0.2817  0.6345  0.4780
 8623SOL    HW130716   2.220   0.397   2.394  2.8659 -1.6725  1.1664
 8623SOL    HW230717   2.091   0.319   2.381  0.0694  2.6737  0.8891
 8624SOL     OW30718   3.843   8.747   8.650  0.1030 -0.4349 -0.1670
 8624SOL    HW130719   3.762   8.773   8.695  0.4216  0.0479  0.1311
 8624SOL    HW230720   3.835   8.786   8.563  0.6898  0.9088  0.3561
 8625SOL     OW30721   2.580   1.165   3.958 -0.1913 -0.1088  0.0625
 8625SOL    HW130722   2.562   1.204   3.873 -0.6081  1.7318  0.9427
 8625SOL    HW230723   2.668   1.128   3.950 -0.8049 -1.3185 -1.5886
 8626SOL     OW30724   4.403   2.103   0.316  0.7109 -0.1620 -0.4010
 8626SOL    HW130725   4.390   2.198   0.311  0.8407 -0.0597  0.8095
 8626SOL    HW230726   4.494   2.090   0.289  0.7753  0.0915 -0.3091
 8627SOL     OW30727   4.276   4.858   3.172  0.0823  0.0301 -0.3708
 8627SOL    HW130728   4.275   4.771   3.213  0.5893 -1.2025 -2.8120
 8627SOL    HW230729   4.248   4.842   3.082  0.4565  2.3903 -0.9554
 8628SOL     OW30730   4.802   4.237   6.770 -0.0441  0.2443 -0.0329
 8628SOL    HW130731   4.871   4.297   6.743 -1.2671  2.5442  1.5621
 8628SOL    HW230732   4.836   4.150   6.751  2.0242  1.4000 -2.0277
 8629SOL     OW30733   0.909   6.375   6.660 -0.2957 -0.3922  0.2464
 8629SOL    HW130734   0.908   6.344   6.570 -0.3550 -2.5151  0.9150
 8629SOL    HW230735   0.818   6.401   6.678 -0.6393 -1.4747  0.1479
 8630SOL     OW30736   5.433   7.803   6.887 -0.0113  0.4141  0.3592
 8630SOL    HW130737   5.517   7.798   6.842  0.0362 -2.4570  0.5813
 8630SOL    HW230738   5.451   7.846   6.970  1.8941 -2.3820  1.5506
 8631SOL     OW30739   9.646   1.196   0.370  0.7776 -0.0811  0.0560
 8631SOL    HW130740   9.604   1.271   0.411 -0.4117 -0.0660 -1.1288
 8631SOL    HW230741   9.651   1.130   0.439  0.6296  0.6336  0.7525
 8632SOL     OW30742   4.433   4.550   1.816  0.0703  0.4779 -0.1504
 8632SOL    HW130743   4.380   4.540   1.737 -1.3339 -0.3199  0.8387
 8632SOL    HW230744   4.505   4.489   1.805 -0.5439 -0.2026 -0.4842
 8633SOL     OW30745   0.646   6.487   2.237 -0.2488  0.4403 -0.6605
 8633SOL    HW130746   0.689   6.477   2.322  0.9801  1.8653 -1.0769
 8633SOL    HW230747   0.698   6.552   2.190  0.0974 -1.4573 -3.1557
 8634SOL     OW30748   7.708   9.672   3.050  0.4101  0.1573 -0.4830
 8634SOL    HW130749   7.683   9.697   2.961  0.1900  0.3003 -0.3825
 8634SOL    HW230750   7.793   9.628   3.040 -0.1565 -0.8907 -0.9093
 8635SOL     OW30751   3.864   4.065   2.584 -0.3090  0.3273 -0.4363
 8635SOL    HW130752   3.936   4.013   2.549 -2.4644 -1.7826 -2.1147
 8635SOL    HW230753   3.812   4.088   2.507 -1.1217  2.3911  0.6394
 8636SOL     OW30754   7.473   3.862   2.187  0.4336  0.0236 -0.3247
 8636SOL    HW130755   7.515   3.798   2.129  0.9305  0.9525 -1.0003
 8636SOL    HW230756   7.520   3.944   2.171 -1.2567  0.9629 -0.6664
 8637SOL     OW30757   2.104   8.372   5.941 -0.3130 -0.0999 -0.0078
 8637SOL    HW130758   2.174   8.338   5.998 -0.4213 -0.5989 -0.1644
 8637SOL    HW230759   2.144   8.380   5.855 -0.3169  0.0760  0.0064
 8638SOL     OW30760   8.164   2.897   3.157 -0.9701  0.8983 -0.3113
 8638SOL    HW130761   8.123   2.909   3.071  0.3333  1.4625 -0.8774
 8638SOL    HW230762   8.098   2.851   3.208 -0.9148 -1.5858 -2.2932
 8639SOL     OW30763   6.960   7.026   4.967 -0.0155  0.4393  0.2343
 8639SOL    HW130764   6.959   6.936   4.999  1.2085  0.3986  0.2069
 8639SOL    HW230765   7.037   7.031   4.911  1.2684  2.0823  1.9795
 8640SOL     OW30766   1.474   7.516   0.384 -0.4630 -0.0619  0.0586
 8640SOL    HW130767   1.388   7.475   0.378  1.3244 -4.2199 -0.0524
 8640SOL    HW230768   1.474   7.580   0.313 -2.8066 -1.2428 -1.1530
 8641SOL     OW30769   6.756   5.352   8.147  0.4072  0.1363 -0.5896
 8641SOL    HW130770   6.671   5.380   8.114  0.0984 -0.0594  0.0231
 8641SOL    HW230771   6.776   5.415   8.217 -0.4580 -1.3275  1.0467
 8642SOL     OW30772   1.553   0.726   0.704 -0.0840  0.0234 -0.1574
 8642SOL    HW130773   1.577   0.640   0.738 -0.7067 -0.0603  0.0774
 8642SOL    HW230774   1.630   0.754   0.654  0.1296 -0.6609 -0.2239
 8643SOL     OW30775   1.795   2.688   4.527  0.1458  0.0885 -0.3020
 8643SOL    HW130776   1.728   2.639   4.575 -0.9020  0.1274 -1.6540
 8643SOL    HW230777   1.747   2.728   4.454  1.8764 -1.1322 -2.2100
 8644SOL     OW30778   5.105   6.787   0.383 -0.3867 -0.4507 -0.0240
 8644SOL    HW130779   5.120   6.702   0.341  0.8415  0.4907 -1.5929
 8644SOL    HW230780   5.103   6.768   0.477  1.9260 -1.9580 -0.2076
 8645SOL     OW30781   4.160   9.546   1.441 -0.4655 -0.0214 -0.3373
 8645SOL    HW130782   4.107   9.472   1.412 -1.1553  1.0110 -1.8159
 8645SOL    HW230783   4.128   9.566   1.528 -0.1624 -1.5335  0.1544
 8646SOL     OW30784   5.047   8.065   6.322 -0.5151 -0.0658 -0.1933
 8646SOL    HW130785   5.002   8.141   6.285 -0.3269  0.3479  0.4157
 8646SOL    HW230786   5.088   8.098   6.402  1.5674 -0.2241 -1.1278
 8647SOL     OW30787   1.172   3.868   8.083 -0.0906 -0.0079 -0.0537
 8647SOL    HW130788   1.093   3.845   8.131 -0.4144 -0.6659 -0.8890
 8647SOL    HW230789   1.158   3.835   7.995  0.8876  0.3553 -0.3625
 8648SOL     OW30790   5.887   1.024   5.739  0.4993  0.1509 -0.0272
 8648SOL    HW130791   5.801   0.993   5.766  0.1278  1.1881  0.0271
 8648SOL    HW230792   5.872   1.066   5.654  0.5971  1.9119  0.7910
 8649SOL     OW30793   1.047   6.675   6.267 -0.5645 -0.1433 -0.0012
 8649SOL    HW130794   0.992   6.597   6.263  0.9561 -1.2202 -0.7405
 8649SOL    HW230795   1.024   6.716   6.351 -2.4454 -0.5405 -0.2744
 8650SOL     OW30796   2.052   0.584   7.219 -0.0985 -0.1642 -0.4357
 8650SOL    HW130797   2.066   0.596   7.125  1.0054 -0.7451 -0.3585
 8650SOL    HW230798   2.140   0.574   7.256 -0.5534 -0.6557  0.5590
 8651SOL     OW30799   0.848   9.517   6.154  0.3602  0.9664 -0.1081
 8651SOL    HW130800   0.867   9.532   6.246  1.3539  1.4256 -0.3766
 8651SOL    HW230801   0.771   9.461   6.154  1.2324 -0.2866  1.0231
 8652SOL     OW30802   7.892   3.541   8.950  0.3726 -0.1966 -0.3728
 8652SOL    HW130803   7.922   3.566   9.037  0.9834 -0.9953 -0.3446
 8652SOL    HW230804   7.820   3.481   8.965 -1.8826  2.3123 -0.4349
 8653SOL     OW30805   6.242   2.096   0.180  0.5309  0.4770  0.4655
 8653SOL    HW130806   6.279   2.179   0.151  1.2926  0.1149  0.3952
 8653SOL    HW230807   6.248   2.098   0.275 -0.2055  0.8452  0.5111
 8654SOL     OW30808   2.464   4.842   6.671  0.3157 -0.0807 -0.0525
 8654SOL    HW130809   2.477   4.772   6.607  1.0460 -0.1496  0.1669
 8654SOL    HW230810   2.398   4.899   6.630 -1.4011 -1.6487  0.3992
 8655SOL     OW30811   0.070   3.262   6.605 -0.5287  0.4099 -0.7523
 8655SOL    HW130812   0.011   3.260   6.680 -0.1239  2.2630 -0.3362
 8655SOL    HW230813   0.016   3.230   6.532 -0.4094 -3.2387  0.5451
 8656SOL     OW30814   0.180   6.060   8.391  0.6050 -0.4549 -0.3707
 8656SOL    HW130815   0.112   6.124   8.370  1.1199  0.2034 -0.0505
 8656SOL    HW230816   0.146   6.013   8.468 -0.8213 -2.1800 -1.9755
 8657SOL     OW30817   1.283   7.705   6.932  0.6013 -0.0836 -0.0096
 8657SOL    HW130818   1.336   7.784   6.925  1.8022 -0.7913  0.6207
 8657SOL    HW230819   1.209   7.731   6.987 -1.5673  1.7797 -3.4669
 8658SOL     OW30820   1.569   8.358   5.804  0.3344  0.7096 -0.2983
 8658SOL    HW130821   1.613   8.274   5.809 -1.6219 -0.3014  1.4202
 8658SOL    HW230822   1.639   8.423   5.815  1.6088 -0.7589  0.6163
 8659SOL     OW30823   1.455   1.897   4.404 -0.6501 -0.2767 -0.3948
 8659SOL    HW130824   1.521   1.924   4.467 -1.9367  0.4107  0.7262
 8659SOL    HW230825   1.502   1.843   4.341  0.6727 -1.0810  1.2074
 8660SOL     OW30826   0.597   4.601   8.291 -0.4563  0.3827 -0.2534
 8660SOL    HW130827   0.606   4.660   8.365 -0.7764 -1.1967  1.0961
 8660SOL    HW230828   0.525   4.637   8.239 -1.8609  0.2282  1.5094
 8661SOL     OW30829   9.524   1.998   1.183  0.1527  0.6534 -0.3999
 8661SOL    HW130830   9.438   1.964   1.207  0.5790  0.0666  0.3037
 8661SOL    HW230831   9.519   2.092   1.205 -1.4443  1.4333 -3.4956
 8662SOL     OW30832   0.984   8.239   9.330  0.8989  0.0884 -0.4388
 8662SOL    HW130833   0.910   8.207   9.381  0.4029  0.8588 -0.6489
 8662SOL    HW230834   0.949   8.251   9.241  1.6749 -0.9644 -0.9139
 8663SOL     OW30835   0.012   8.356   4.091  0.4684  0.4840  0.0145
 8663SOL    HW130836  -0.074   8.315   4.089  0.4711  0.1754  2.6041
 8663SOL    HW230837   0.053   8.331   4.008 -1.1445 -1.1045 -0.3608
 8664SOL     OW30838   0.601   5.418   1.556  0.0204  0.2097  0.4255
 8664SOL    HW130839   0.681   5.421   1.503  0.0592 -1.7397  0.2852
 8664SOL    HW230840   0.530   5.432   1.494  0.1778  0.2561  0.2563
 8665SOL     OW30841   2.744   9.640   9.218  0.7770 -0.2243  0.2201
 8665SOL    HW130842   2.699   9.632   9.302  0.7588 -2.9947  0.0539
 8665SOL    HW230843   2.706   9.717   9.177 -2.4465 -1.2823  0.9367
 8666SOL     OW30844   3.963   5.774   8.596  0.3456  0.4300  0.6114
 8666SOL    HW130845   4.044   5.735   8.629  1.2469  1.9274  0.2700
 8666SOL    HW230846   3.968   5.761   8.501 -0.3218 -0.3714  0.6783
 8667SOL     OW30847   8.169   6.754   9.435  0.0667 -0.3805  0.4042
 8667SOL    HW130848   8.177   6.724   9.526  0.0045 -0.3007  0.4359
 8667SOL    HW230849   8.204   6.682   9.383  2.0002  0.3729  0.5921
 8668SOL     OW30850   4.232   3.865   5.565  0.3807 -0.1529  0.2005
 8668SOL    HW130851   4.294   3.859   5.493  1.3069  1.1057  0.8533
 8668SOL    HW230852   4.277   3.918   5.631 -1.0279 -0.0118  1.0832
 8669SOL     OW30853   5.414   5.202   2.055  0.3355 -0.4167  0.0789
 8669SOL    HW130854   5.443   5.112   2.069  1.1567 -0.2410 -0.4423
 8669SOL    HW230855   5.318   5.197   2.060  0.0585 -2.0072 -3.5269
 8670SOL     OW30856   3.029   0.615   2.106 -0.2593 -0.5898  0.5727
 8670SOL    HW130857   3.090   0.543   2.094  1.5285  1.0115 -0.4315
 8670SOL    HW230858   3.076   0.692   2.075 -2.1292  1.0156  1.5090
 8671SOL     OW30859   5.182   7.989   4.799 -0.5609 -0.2633 -0.7377
 8671SOL    HW130860   5.255   8.045   4.772 -0.7364 -0.5190 -1.7773
 8671SOL    HW230861   5.133   7.972   4.719 -1.8312 -0.0199 -0.0352
 8672SOL     OW30862   6.017   7.981   8.118  0.4435 -0.3284 -0.5836
 8672SOL    HW130863   5.960   7.948   8.048 -1.1898  1.1635 -0.0293
 8672SOL    HW230864   5.957   8.016   8.183  1.9992  1.7987 -0.1852
 8673SOL     OW30865   3.217   5.924   4.877  0.5947  0.5303  0.6231
 8673SOL    HW130866   3.304   5.960   4.896  0.0114  1.4424  1.7331
 8673SOL    HW230867   3.159   6.000   4.883 -0.5940 -0.4590  2.3014
 8674SOL     OW30868   7.888   7.696   4.410  0.0854  0.7413  0.4777
 8674SOL    HW130869   7.905   7.694   4.504  0.6695 -0.1115  0.3696
 8674SOL    HW230870   7.802   7.738   4.401 -1.4720 -1.9498  1.6332
 8675SOL     OW30871   9.731   0.414   5.020  0.3896  0.1080 -0.1855
 8675SOL    HW130872   9.688   0.484   4.972 -0.5536  0.2335  0.8053
 8675SOL    HW230873   9.779   0.364   4.953 -1.0890  0.1094 -1.2922
 8676SOL     OW30874   3.588   1.662   6.477 -0.4473  0.6397 -0.3994
 8676SOL    HW130875   3.616   1.588   6.423 -0.4889 -0.7981  1.4290
 8676SOL    HW230876   3.657   1.728   6.466  0.2024 -0.1528 -1.1578
 8677SOL     OW30877   0.998   9.058   2.461 -0.5715  0.3197  0.5158
 8677SOL    HW130878   0.906   9.032   2.459 -0.3409 -0.4690 -1.2611
 8677SOL    HW230879   1.027   9.051   2.370  1.7362 -1.2240  1.2857
 8678SOL     OW30880   9.416   8.089   3.583 -0.3035  0.3262  0.4103
 8678SOL    HW130881   9.387   8.036   3.509  0.1635 -0.5074  0.7995
 8678SOL    HW230882   9.501   8.125   3.555  0.2289 -0.5857  0.7892
 8679SOL     OW30883   5.345   4.678   1.322 -0.4227 -0.1535 -0.0115
 8679SOL    HW130884   5.413   4.689   1.256  0.5517  0.9305  1.1103
 8679SOL    HW230885   5.332   4.766   1.358 -0.8551 -0.7192  1.2847
 8680SOL     OW30886   4.825   4.278   6.091 -0.1701  0.3478  0.1325
 8680SOL    HW130887   4.870   4.207   6.045 -0.4023 -0.0664  0.5360
 8680SOL    HW230888   4.855   4.358   6.048 -0.5717 -0.0427 -0.9116
 8681SOL     OW30889   7.268   2.009   0.251  0.0233 -0.0212 -0.3503
 8681SOL    HW130890   7.237   1.956   0.178 -1.1603  1.4664 -0.9950
 8681SOL    HW230891   7.196   2.009   0.314  0.0798  0.6400 -0.2745
 8682SOL     OW30892   6.844   7.805   3.660 -0.4633 -0.5659 -0.4437
 8682SOL    HW130893   6.855   7.892   3.621  1.2371 -1.0324 -1.0880
 8682SOL    HW230894   6.749   7.794   3.666 -0.7253  1.1433 -0.7535
 8683SOL     OW30895   7.608   7.692   2.381 -0.0046  0.7009  0.4993
 8683SOL    HW130896   7.598   7.712   2.474 -1.4505  1.2849  0.2524
 8683SOL    HW230897   7.574   7.770   2.336  2.9644  1.5299 -0.5807
 8684SOL     OW30898   8.827   8.071   6.053 -0.2193  0.0528  0.1675
 8684SOL    HW130899   8.812   8.060   6.147 -0.1192  0.0870  0.1874
 8684SOL    HW230900   8.825   8.166   6.040  1.3562  0.1318  0.3968
 8685SOL     OW30901   4.371   2.366   0.282  0.0599  0.1434 -0.2958
 8685SOL    HW130902   4.395   2.385   0.372  0.4530 -1.2176 -0.0819
 8685SOL    HW230903   4.316   2.439   0.255 -0.6035  0.2540  1.2632
 8686SOL     OW30904   1.513   2.526   5.953 -0.2719  0.0354 -0.6197
 8686SOL    HW130905   1.444   2.504   5.890 -0.8099 -1.0175  0.3009
 8686SOL    HW230906   1.471   2.513   6.038  0.7341  0.4990 -0.0470
 8687SOL     OW30907   9.233   7.246   8.444 -0.1006  0.8008  0.2997
 8687SOL    HW130908   9.291   7.177   8.479 -0.9009  0.4512  0.9739
 8687SOL    HW230909   9.270   7.327   8.478 -0.5725  0.5035  1.5783
 8688SOL     OW30910   2.679   5.610   8.956  0.3251 -0.1217 -0.8867
 8688SOL    HW130911   2.587   5.621   8.931  0.0698  1.6997  0.6605
 8688SOL    HW230912   2.687   5.517   8.980 -1.1543 -0.2623 -0.8595
 8689SOL     OW30913   0.561   7.716   2.589  0.2525 -0.4747  0.0948
 8689SOL    HW130914   0.468   7.715   2.570 -0.1689 -0.1550  1.9156
 8689SOL    HW230915   0.592   7.801   2.557 -0.3519 -0.0631  0.5924
 8690SOL     OW30916   4.064   9.697   0.605  0.3148 -0.2961 -0.3172
 8690SOL    HW130917   4.096   9.616   0.567 -1.4018 -0.3790 -1.6892
 8690SOL    HW230918   4.014   9.739   0.535  0.8573  1.7956  0.4539
 8691SOL     OW30919   2.291   9.296   3.461  0.2620  0.2142  0.1503
 8691SOL    HW130920   2.292   9.204   3.433 -1.8233  0.8305 -2.3791
 8691SOL    HW230921   2.274   9.292   3.555  0.1805 -1.9814  0.0932
 8692SOL     OW30922   6.316   5.246   8.492 -0.0644 -0.4183  0.1966
 8692SOL    HW130923   6.283   5.170   8.539 -0.1613  0.1517  1.0636
 8692SOL    HW230924   6.389   5.213   8.440 -0.5256 -1.2274  0.0487
 8693SOL     OW30925   6.882   6.207   9.181  0.1436  0.3716  0.2402
 8693SOL    HW130926   6.863   6.283   9.126 -0.1085 -1.1022 -1.8221
 8693SOL    HW230927   6.811   6.146   9.162  2.6967 -2.2336 -1.8208
 8694SOL     OW30928   2.477   4.529   6.573  0.3388  0.3501 -0.6974
 8694SOL    HW130929   2.571   4.548   6.563  0.0008  2.0761 -0.7719
 8694SOL    HW230930   2.436   4.570   6.497 -0.6817  1.2541  0.3166
 8695SOL     OW30931   9.561   6.537   8.667 -0.3313  0.0549  0.0002
 8695SOL    HW130932   9.489   6.515   8.609 -1.8976 -0.1777  1.9231
 8695SOL    HW230933   9.602   6.614   8.627 -1.8331  0.3700 -0.9806
 8696SOL     OW30934   2.322   9.221   4.166 -0.5257 -0.4330 -0.5810
 8696SOL    HW130935   2.341   9.302   4.120  0.6816  1.5583  2.9839
 8696SOL    HW230936   2.407   9.177   4.173 -0.1514  0.4981  1.6029
 8697SOL     OW30937   5.509   9.497   0.331  0.0305 -0.1267 -0.5596
 8697SOL    HW130938   5.519   9.405   0.357 -1.9092 -1.2442 -3.2651
 8697SOL    HW230939   5.598   9.525   0.309  0.4733 -1.9962 -1.4166
 8698SOL     OW30940   8.478   2.493   6.537  0.9944 -0.7550 -0.1704
 8698SOL    HW130941   8.549   2.537   6.583  1.7407 -2.5641  0.5146
 8698SOL    HW230942   8.456   2.417   6.592 -1.4395 -0.3142 -0.3964
 8699SOL     OW30943   8.682   6.374   5.366 -0.3352  0.4908  0.4903
 8699SOL    HW130944   8.710   6.415   5.284  1.9293 -3.0218 -0.7365
 8699SOL    HW230945   8.740   6.412   5.433  1.0110  0.1289 -0.4174
 8700SOL     OW30946   5.910   3.934   4.828  0.0043 -0.7940  0.0708
 8700SOL    HW130947   5.931   3.895   4.743 -0.8331  0.9928 -1.0270
 8700SOL    HW230948   5.815   3.924   4.835 -0.7089  3.0495 -1.4691
 8701SOL     OW30949   7.565   7.454   8.176  0.6298  0.3165 -0.2497
 8701SOL    HW130950   7.617   7.471   8.255 -1.7794  0.6217  1.3685
 8701SOL    HW230951   7.536   7.540   8.146 -0.7470  0.0388  0.2029
 8702SOL     OW30952   4.291   6.878   8.440  0.0570  0.2810 -0.0442
 8702SOL    HW130953   4.317   6.866   8.349  0.8146  1.1103  0.0510
 8702SOL    HW230954   4.360   6.932   8.478  0.5644 -1.3290  1.4484
 8703SOL     OW30955   4.413   6.571   9.708 -0.0732 -0.5577  0.1230
 8703SOL    HW130956   4.455   6.521   9.777 -1.3086  0.2256  1.4888
 8703SOL    HW230957   4.333   6.523   9.688 -0.7799  0.3207  0.7572
 8704SOL     OW30958   2.030   8.111   3.560 -0.1938  0.1909  0.4542
 8704SOL    HW130959   1.939   8.095   3.584 -0.2084 -1.9648 -0.7721
 8704SOL    HW230960   2.028   8.193   3.512 -1.6120 -0.1161 -0.0647
 8705SOL     OW30961   6.447   7.228   8.143  0.2757  0.2830 -0.0708
 8705SOL    HW130962   6.361   7.263   8.116  0.1470  0.3772  0.4542
 8705SOL    HW230963   6.446   7.234   8.238  1.8809  2.7196 -0.1241
 8706SOL     OW30964   9.102   8.274   1.287 -0.3034 -0.2495 -0.0717
 8706SOL    HW130965   9.055   8.269   1.204  1.5662 -0.4946 -1.1816
 8706SOL    HW230966   9.120   8.183   1.310 -0.6758 -0.1740  0.5387
 8707SOL     OW30967   3.987   8.543   5.716 -0.1983 -0.0713 -0.4376
 8707SOL    HW130968   3.935   8.582   5.787  0.9357 -0.5098  0.6564
 8707SOL    HW230969   3.921   8.504   5.658 -1.2856  2.1009 -0.7793
 8708SOL     OW30970   7.526   9.087   9.387  0.0259  0.1868  0.5088
 8708SOL    HW130971   7.531   9.169   9.436  2.7270  0.7483 -0.5341
 8708SOL    HW230972   7.483   9.110   9.305  0.1634  0.3970  0.4960
 8709SOL     OW30973   3.508   8.425   6.234  0.3829  0.4304  0.7517
 8709SOL    HW130974   3.514   8.385   6.148 -2.4284  2.1266 -0.3476
 8709SOL    HW230975   3.554   8.508   6.225  0.9099  0.1941  1.1985
 8710SOL     OW30976   5.316   9.500   0.524 -0.2583 -0.3154  0.3849
 8710SOL    HW130977   5.276   9.577   0.564 -1.8825 -0.9467  0.0590
 8710SOL    HW230978   5.340   9.527   0.436  2.6549  0.8674  1.4080
 8711SOL     OW30979   9.077   2.263   1.594 -0.0380 -0.3328  0.1604
 8711SOL    HW130980   9.070   2.358   1.607 -0.5145 -0.4700  0.9640
 8711SOL    HW230981   9.001   2.241   1.540  1.5120  0.1179 -2.3445
 8712SOL     OW30982   7.121   4.925   4.445  0.1954  0.0804 -0.3410
 8712SOL    HW130983   7.213   4.911   4.424  0.0646 -0.9252 -0.2878
 8712SOL    HW230984   7.113   4.901   4.537 -0.2141 -0.3489 -0.4794
 8713SOL     OW30985   6.126   3.731   1.955 -0.1798 -0.1575 -0.2248
 8713SOL    HW130986   6.105   3.822   1.935 -1.6303 -0.1386  1.1671
 8713SOL    HW230987   6.166   3.697   1.875 -0.6188  1.3936 -1.1417
 8714SOL     OW30988   8.709   4.392   7.576 -0.1754 -0.4939 -0.2884
 8714SOL    HW130989   8.789   4.374   7.527 -0.3240  0.1304 -0.7685
 8714SOL    HW230990   8.733   4.461   7.637 -0.2814 -0.4819 -0.2596
 8715SOL     OW30991   7.501   2.798   3.177 -0.0530  0.4222  0.2234
 8715SOL    HW130992   7.535   2.752   3.254  3.0335  1.6030 -0.3156
 8715SOL    HW230993   7.457   2.875   3.214 -1.6960 -0.7628  0.8964
 8716SOL     OW30994   0.332   9.660   0.465 -0.1308  0.5384  0.7163
 8716SOL    HW130995   0.401   9.624   0.521  0.2567 -0.2486 -0.2442
 8716SOL    HW230996   0.348   9.621   0.379 -2.3789 -0.5132  0.7115
 8717SOL     OW30997   1.663   9.053   2.539 -0.5791 -0.1218  0.5000
 8717SOL    HW130998   1.604   9.124   2.565  1.3515  1.6763  0.1463
 8717SOL    HW230999   1.662   8.993   2.613 -1.3192  0.8844  1.3290
 8718SOL     OW31000   4.524   0.667   4.943  0.0772  0.0909  0.3499
 8718SOL    HW131001   4.608   0.640   4.908  0.3295  0.4855  0.6483
 8718SOL    HW231002   4.542   0.692   5.034 -0.3116  0.4071  0.3445
 8719SOL     OW31003   0.875   3.954   6.998  0.1474  0.2691 -0.2114
 8719SOL    HW131004   0.959   3.911   7.015 -0.1983  0.0608  1.0207
 8719SOL    HW231005   0.819   3.884   6.964 -0.6322 -0.5028  2.4514
 8720SOL     OW31006   3.839   4.443   6.238 -0.1195  0.3605  0.3809
 8720SOL    HW131007   3.765   4.386   6.219 -1.1473  2.1388 -1.4995
 8720SOL    HW231008   3.914   4.384   6.248 -1.0006 -1.3230 -1.9834
 8721SOL     OW31009   8.514   7.877   0.524 -0.1444  0.2496  0.5555
 8721SOL    HW131010   8.518   7.798   0.577 -1.3227  0.4721  0.9985
 8721SOL    HW231011   8.494   7.845   0.436  0.9458 -0.0467  0.3926
 8722SOL     OW31012   0.872   2.611   9.686 -0.2581 -0.1803 -0.0141
 8722SOL    HW131013   0.941   2.658   9.733  0.9638 -2.6714  0.8497
 8722SOL    HW231014   0.793   2.626   9.739  0.3749 -0.0851  0.9369
 8723SOL     OW31015   6.750   0.619   1.372  0.3677 -0.1641 -0.5542
 8723SOL    HW131016   6.704   0.665   1.444  1.1322 -0.7224  0.3127
 8723SOL    HW231017   6.683   0.563   1.333 -0.4508  1.2688 -1.2874
 8724SOL     OW31018   2.370   8.878   4.279 -0.1346 -0.0617 -0.3924
 8724SOL    HW131019   2.334   8.839   4.200  0.3577  0.6546 -0.9843
 8724SOL    HW231020   2.454   8.916   4.251  1.0672 -1.5967  0.9108
 8725SOL     OW31021   6.011   5.810   1.037  0.3056  0.0663  0.2925
 8725SOL    HW131022   6.081   5.795   0.974 -0.6272 -1.1614 -0.4947
 8725SOL    HW231023   5.988   5.902   1.025  1.4163  0.3526  0.2150
 8726SOL     OW31024   3.854   2.501   9.352  0.5606  0.0593 -0.2659
 8726SOL    HW131025   3.878   2.553   9.275  0.5983 -0.3970 -0.5659
 8726SOL    HW231026   3.929   2.443   9.366 -0.4323 -1.5567 -1.3610
 8727SOL     OW31027   2.011   7.281   1.640 -0.2845 -0.1727 -0.0150
 8727SOL    HW131028   1.925   7.273   1.682 -0.2429 -3.3769 -0.2618
 8727SOL    HW231029   2.074   7.279   1.712 -0.3453 -1.2098  0.0218
 8728SOL     OW31030   5.522   4.914   2.964 -0.1664  0.0698 -0.3505
 8728SOL    HW131031   5.527   4.870   3.049 -0.7613  1.5035  0.4599
 8728SOL    HW231032   5.601   4.967   2.959 -0.9236  1.2949  0.0997
 8729SOL     OW31033   7.760   8.813   7.450  0.5961 -0.5593 -0.1825
 8729SOL    HW131034   7.806   8.859   7.520 -1.9809  3.0609 -0.5775
 8729SOL    HW231035   7.675   8.789   7.488 -0.7794  1.3057 -1.8862
 8730SOL     OW31036   6.257   8.042   1.341  0.1094 -0.4438  0.7055
 8730SOL    HW131037   6.326   8.107   1.331 -1.5126  1.3934  0.8580
 8730SOL    HW231038   6.261   8.017   1.434  0.2861 -0.0149  0.8151
 8731SOL     OW31039   4.037   8.568   8.500 -0.0186  0.0957 -0.0678
 8731SOL    HW131040   4.029   8.634   8.431 -0.0916  0.5041  0.3279
 8731SOL    HW231041   3.961   8.581   8.556 -0.3112 -0.6670 -0.2663
 8732SOL     OW31042   1.595   2.564   4.665  0.4841  0.2199  0.1011
 8732SOL    HW131043   1.605   2.469   4.658 -2.6374 -0.2375  0.3581
 8732SOL    HW231044   1.639   2.587   4.747  1.0717 -1.0082  0.1540
 8733SOL     OW31045   6.061   1.768   4.911  0.1260  0.3246  0.3344
 8733SOL    HW131046   6.127   1.704   4.937 -0.3823 -0.0808  0.6518
 8733SOL    HW231047   5.980   1.735   4.949 -0.3347  0.5947 -0.4021
 8734SOL     OW31048   0.745   3.176   6.423  0.1006 -0.5108  0.5004
 8734SOL    HW131049   0.651   3.161   6.437 -0.1961  2.1847  1.9599
 8734SOL    HW231050   0.749   3.226   6.342  0.0975  0.9119  1.3626
 8735SOL     OW31051   3.272   0.605   6.436 -0.3373  0.0795  0.5963
 8735SOL    HW131052   3.301   0.617   6.346  2.9889 -2.2229  1.1808
 8735SOL    HW231053   3.239   0.516   6.439 -2.8106  0.9250  1.2254
 8736SOL     OW31054   7.975   3.522   4.649 -0.2057 -0.1121 -0.3962
 8736SOL    HW131055   7.922   3.481   4.717 -0.1032 -0.2379 -0.3925
 8736SOL    HW231056   8.008   3.449   4.597  0.4706 -0.0793 -0.0294
 8737SOL     OW31057   1.100   0.959   5.823  0.1655 -0.1213  0.0820
 8737SOL    HW131058   1.146   0.888   5.778  1.0631  0.0183  0.7494
 8737SOL    HW231059   1.085   1.025   5.755  2.3165  0.4898  0.1222
 8738SOL     OW31060   2.569   2.330   9.505  0.0909  0.1053 -0.1577
 8738SOL    HW131061   2.567   2.332   9.600  1.5695  1.6986 -0.1179
 8738SOL    HW231062   2.478   2.344   9.478  0.1133  3.4077  1.0549
 8739SOL     OW31063   4.377   8.104   5.025 -0.2441  0.4536 -0.1713
 8739SOL    HW131064   4.411   8.192   5.039 -1.0305  0.5097  1.6826
 8739SOL    HW231065   4.282   8.113   5.036 -0.1372 -1.0862  3.1974
 8740SOL     OW31066   4.771   1.822   5.882 -0.0009  0.1552 -0.4511
 8740SOL    HW131067   4.723   1.900   5.853 -1.7373 -0.0896  1.5208
 8740SOL    HW231068   4.732   1.750   5.831 -1.0442  0.1080  0.3775
 8741SOL     OW31069   5.537   6.608   6.416 -0.1536  0.0264  0.3612
 8741SOL    HW131070   5.610   6.667   6.433 -0.5583  0.7146 -0.2326
 8741SOL    HW231071   5.517   6.569   6.502  0.7902 -0.0453  0.5573
 8742SOL     OW31072   7.061   1.311   4.070 -0.3451  0.2936 -0.4781
 8742SOL    HW131073   7.060   1.235   4.011 -0.9972 -0.2505  0.2256
 8742SOL    HW231074   7.125   1.370   4.030  1.3801 -1.2886 -0.2072
 8743SOL     OW31075   7.320   2.507   3.319 -0.5372 -0.4437 -0.1846
 8743SOL    HW131076   7.395   2.560   3.346 -1.8048  1.0358  0.5410
 8743SOL    HW231077   7.270   2.492   3.400  0.1953 -3.5409 -0.1716
 8744SOL     OW31078   2.339   0.081   8.540 -0.1473 -0.3844  0.0392
 8744SOL    HW131079   2.402   0.143   8.504 -0.6277  0.6440  0.9161
 8744SOL    HW231080   2.261   0.133   8.556 -1.1629 -1.5928 -0.8051
 8745SOL     OW31081   0.405   3.796   8.763  0.1858  0.3041 -0.2425
 8745SOL    HW131082   0.483   3.849   8.751 -0.1891  0.8941 -0.1351
 8745SOL    HW231083   0.437   3.707   8.773  0.7884  0.4403 -0.9493
 8746SOL     OW31084   6.349   7.323   5.912 -0.3817 -0.5836 -0.1377
 8746SOL    HW131085   6.270   7.283   5.948  0.0215 -2.5516 -1.2326
 8746SOL    HW231086   6.321   7.359   5.828 -0.7171  1.4756  0.7976
 8747SOL     OW31087   0.616   4.745   0.408 -0.3303 -0.1172  0.1060
 8747SOL    HW131088   0.553   4.720   0.476  0.5538  0.4071  1.1459
 8747SOL    HW231089   0.701   4.725   0.447  0.2886  2.0293 -0.0547
 8748SOL     OW31090   9.166   1.448   5.848 -0.3549 -0.5102  0.2300
 8748SOL    HW131091   9.221   1.371   5.867 -0.0907 -0.8351 -1.6695
 8748SOL    HW231092   9.076   1.414   5.851 -0.2672 -0.7732 -0.0282
 8749SOL     OW31093   2.625   0.556   4.913 -0.0581 -0.4069 -0.3738
 8749SOL    HW131094   2.624   0.636   4.860  0.7186 -1.2135 -1.6665
 8749SOL    HW231095   2.626   0.586   5.003 -3.8684  1.0787 -0.6101
 8750SOL     OW31096   7.116   8.821   5.001 -0.7440 -0.1193 -0.6337
 8750SOL    HW131097   7.085   8.794   4.915 -3.5583 -0.8304  0.4764
 8750SOL    HW231098   7.056   8.778   5.062  0.2860  1.4637  1.6295
 8751SOL     OW31099   8.831   2.755   8.720 -0.1795  0.0781  0.1799
 8751SOL    HW131100   8.867   2.825   8.666  1.9860 -1.0480  0.0762
 8751SOL    HW231101   8.829   2.679   8.661  0.0196 -0.5925  1.0234
 8752SOL     OW31102   3.259   3.153   3.113  0.6932  0.6465 -0.3696
 8752SOL    HW131103   3.277   3.189   3.026  1.6082  0.6909 -0.1708
 8752SOL    HW231104   3.215   3.070   3.096 -0.7071  1.4444 -0.8393
 8753SOL     OW31105   1.307   9.461   3.848  0.0228 -0.7463  0.1034
 8753SOL    HW131106   1.383   9.455   3.905 -0.1786  1.1811  0.6651
 8753SOL    HW231107   1.277   9.371   3.837  2.2939 -1.5463 -0.0369
 8754SOL     OW31108   7.855   3.436   1.734  1.0075 -0.7584 -0.2516
 8754SOL    HW131109   7.935   3.419   1.784  0.4744 -1.9147  0.2621
 8754SOL    HW231110   7.808   3.502   1.786  0.2254 -2.3055  1.1305
 8755SOL     OW31111   8.217   4.347   9.284  0.2966  0.3535  0.2110
 8755SOL    HW131112   8.197   4.292   9.360  2.5377 -2.0085 -0.7651
 8755SOL    HW231113   8.166   4.309   9.213  2.0147 -0.6972 -0.5177
 8756SOL     OW31114   7.256   7.920   1.318 -0.3621 -0.5690 -0.2727
 8756SOL    HW131115   7.265   7.825   1.314  3.4698 -0.3512 -0.9665
 8756SOL    HW231116   7.276   7.950   1.229  1.4819  0.9211  0.5705
 8757SOL     OW31117   5.230   9.406   7.718  0.0489  0.5284  0.1927
 8757SOL    HW131118   5.226   9.487   7.668 -0.9816  1.0219  1.0162
 8757SOL    HW231119   5.170   9.346   7.673 -2.0842  1.4700  1.5964
 8758SOL     OW31120   0.488   5.509   6.100 -0.2730 -0.4436 -0.3811
 8758SOL    HW131121   0.565   5.565   6.107 -0.9178  0.7906 -2.1878
 8758SOL    HW231122   0.428   5.558   6.043 -2.6233 -1.1199  1.3691
 8759SOL     OW31123   6.107   5.649   4.391 -0.1336 -0.2333  0.2500
 8759SOL    HW131124   6.140   5.718   4.333 -1.1084  1.0439  1.1681
 8759SOL    HW231125   6.040   5.604   4.339  0.6340 -0.6580 -0.4174
 8760SOL     OW31126   0.631   1.576   1.927  0.2161 -0.1511  0.0869
 8760SOL    HW131127   0.584   1.654   1.957 -0.0061 -0.9087  1.7871
 8760SOL    HW231128   0.562   1.511   1.913  0.4556 -0.2282 -0.8085
 8761SOL     OW31129   4.227   8.415   2.388  0.2971  0.0355 -0.0395
 8761SOL    HW131130   4.202   8.475   2.317 -2.4333 -0.7884  0.1193
 8761SOL    HW231131   4.257   8.336   2.343 -0.7668 -0.2331 -0.2981
 8762SOL     OW31132   6.926   8.124   1.011 -0.0165  0.0880 -0.8283
 8762SOL    HW131133   6.959   8.044   0.970 -1.3252 -0.8012 -0.2020
 8762SOL    HW231134   6.834   8.128   0.985 -0.0803  1.1623 -0.4839
 8763SOL     OW31135   1.089   7.785   8.432 -0.3207 -0.1965 -0.4025
 8763SOL    HW131136   1.065   7.699   8.397  2.0231 -0.5742 -1.2953
 8763SOL    HW231137   1.080   7.775   8.527 -1.4030 -0.9819 -0.5720
 8764SOL     OW31138   1.031   4.114   1.022  0.3513  0.4334 -0.5172
 8764SOL    HW131139   1.119   4.131   1.058  0.1063  2.5284 -0.7837
 8764SOL    HW231140   1.046   4.052   0.951  1.2312 -1.4211  1.2184
 8765SOL     OW31141   3.291   8.654   4.140 -0.8490  0.4099 -0.0324
 8765SOL    HW131142   3.287   8.608   4.223 -2.2988 -0.0622 -0.3317
 8765SOL    HW231143   3.284   8.586   4.074 -0.7412  0.8605 -0.5209
 8766SOL     OW31144   6.091   2.797   2.949 -0.5967  0.1959  0.1015
 8766SOL    HW131145   6.183   2.797   2.976 -0.7386  0.7310  0.6224
 8766SOL    HW231146   6.076   2.710   2.914 -0.8013 -1.2053  3.3009
 8767SOL     OW31147   7.703   5.862   3.662 -0.5614  0.2780  0.4838
 8767SOL    HW131148   7.768   5.840   3.729 -0.4845 -0.6469  0.1190
 8767SOL    HW231149   7.718   5.955   3.644 -1.0429  0.7260  2.2272
 8768SOL     OW31150   4.543   7.073   5.553  0.0673 -0.1551  0.6356
 8768SOL    HW131151   4.537   6.977   5.552  2.8205 -0.4155 -1.0881
 8768SOL    HW231152   4.636   7.091   5.544 -0.5794  2.6316 -2.3984
 8769SOL     OW31153   9.445   8.953   2.573 -0.6207  0.3737  0.5219
 8769SOL    HW131154   9.482   9.040   2.555  0.8674  0.0344  1.7468
 8769SOL    HW231155   9.505   8.892   2.528 -0.0569 -0.1482  1.9332
 8770SOL     OW31156   5.578   3.394   8.864  0.2105  0.5033 -0.4084
 8770SOL    HW131157   5.497   3.373   8.819  0.9708 -0.9400 -1.1828
 8770SOL    HW231158   5.586   3.489   8.857 -0.3441  0.4522 -2.2154
 8771SOL     OW31159   9.393   6.181   6.419 -0.1348  0.1531 -0.2598
 8771SOL    HW131160   9.323   6.129   6.459  1.1121  0.8324  3.1472
 8771SOL    HW231161   9.367   6.272   6.433  0.2261  0.4386 -1.3405
 8772SOL     OW31162   1.155   1.416   0.992 -0.8794 -0.7768 -0.3827
 8772SOL    HW131163   1.203   1.455   0.919 -1.8495  0.7431 -0.2412
 8772SOL    HW231164   1.124   1.490   1.043 -1.8663 -1.7772  0.5134
 8773SOL     OW31165   0.733   2.573   4.693  0.0012 -0.8088  0.6661
 8773SOL    HW131166   0.826   2.557   4.704 -0.1249 -1.7848  0.3452
 8773SOL    HW231167   0.708   2.522   4.616 -0.3934  1.0034 -0.4842
 8774SOL     OW31168   4.002   9.102   7.424  0.1190  0.0444 -0.4531
 8774SOL    HW131169   4.090   9.075   7.452  0.4061  0.0733 -1.2910
 8774SOL    HW231170   3.946   9.027   7.446  0.0755  0.5822  1.4023
 8775SOL     OW31171   7.193   3.789   4.353 -0.7829 -0.2508 -0.1042
 8775SOL    HW131172   7.195   3.803   4.259 -2.3319  0.2828 -0.0806
 8775SOL    HW231173   7.189   3.877   4.391  1.5033 -0.3510  0.5804
 8776SOL     OW31174   2.359   7.481   6.129 -0.1152 -0.3339 -0.0152
 8776SOL    HW131175   2.292   7.534   6.085 -0.9081 -0.3260  1.1603
 8776SOL    HW231176   2.398   7.540   6.193 -0.3041 -0.8671  0.6043
 8777SOL     OW31177   7.140   4.596   8.273  0.8661 -0.1025 -0.1805
 8777SOL    HW131178   7.202   4.638   8.213 -0.7953 -0.9063 -2.6032
 8777SOL    HW231179   7.139   4.504   8.247  0.1515 -0.5095  1.1643
 8778SOL     OW31180   3.427   1.013   9.216 -0.5124 -0.1182 -0.5073
 8778SOL    HW131181   3.411   1.107   9.221  2.0060  0.3199  0.7648
 8778SOL    HW231182   3.358   0.974   9.270  1.7532  1.5565  4.0707
 8779SOL     OW31183   9.484   2.763   8.074  0.7910 -0.2223  0.0118
 8779SOL    HW131184   9.548   2.697   8.046  0.0606 -1.0876  0.3000
 8779SOL    HW231185   9.517   2.794   8.159  0.6378 -0.9603  0.3539
 8780SOL     OW31186   5.858   8.412   4.776 -0.5242  0.0875 -0.8784
 8780SOL    HW131187   5.862   8.499   4.815  0.4694 -0.3416  0.0245
 8780SOL    HW231188   5.888   8.353   4.845 -0.6725 -0.9220 -1.6471
 8781SOL     OW31189   6.105   1.459   7.590 -0.2522  0.2155 -0.0229
 8781SOL    HW131190   6.109   1.552   7.613  1.8413  0.3083 -0.5120
 8781SOL    HW231191   6.047   1.420   7.656 -0.7920  1.7786  0.4637
 8782SOL     OW31192   3.876   8.795   8.128 -0.7064  0.2207  0.3922
 8782SOL    HW131193   3.844   8.731   8.064  0.5447  1.0497 -1.1266
 8782SOL    HW231194   3.848   8.880   8.093 -1.9192  0.5811  2.1253
 8783SOL     OW31195   5.468   0.705   7.612  0.1592 -0.5667 -0.5835
 8783SOL    HW131196   5.396   0.672   7.666 -0.3343 -1.0628 -1.5147
 8783SOL    HW231197   5.521   0.628   7.592  0.2579 -0.4168 -0.9178
 8784SOL     OW31198   4.886   6.174   0.297 -0.4011 -0.7156 -0.2112
 8784SOL    HW131199   4.830   6.096   0.299 -0.0230 -1.0285 -1.1859
 8784SOL    HW231200   4.882   6.205   0.207  0.8798 -0.6711 -0.2712
 8785SOL     OW31201   2.791   4.060   1.829 -0.0752  0.1872  0.1270
 8785SOL    HW131202   2.853   3.995   1.797  0.2106  0.6593 -0.2914
 8785SOL    HW231203   2.705   4.022   1.814  0.0932 -0.1362 -0.0142
 8786SOL     OW31204   3.618   7.040   1.585 -0.3240  0.0547 -0.0016
 8786SOL    HW131205   3.697   6.998   1.549 -0.7207 -0.4830 -0.2670
 8786SOL    HW231206   3.597   7.109   1.523  0.5561  0.9198  0.6375
 8787SOL     OW31207   9.654   3.772   1.368 -0.1196  0.2481  0.3714
 8787SOL    HW131208   9.645   3.730   1.454 -0.8058  0.1488  0.2541
 8787SOL    HW231209   9.614   3.858   1.379 -1.3521 -0.2335 -0.1813
 8788SOL     OW31210   0.359   7.858   8.729  0.3168  0.3254  0.4896
 8788SOL    HW131211   0.369   7.883   8.821  1.5604  0.1547  0.4195
 8788SOL    HW231212   0.327   7.937   8.686  0.0023  0.4903  1.0219
 8789SOL     OW31213   8.578   5.499   3.173 -0.3068 -0.2915 -0.1310
 8789SOL    HW131214   8.591   5.437   3.244 -0.4510 -1.1809 -0.8567
 8789SOL    HW231215   8.662   5.542   3.163  0.2687 -1.4881 -0.6296
 8790SOL     OW31216   5.252   4.611   2.801 -0.1830  0.1680 -0.0150
 8790SOL    HW131217   5.345   4.632   2.813  0.2415 -1.8227  0.6461
 8790SOL    HW231218   5.210   4.695   2.785  1.7997  1.0738 -0.8224
 8791SOL     OW31219   0.229   7.311   2.966 -0.5358  0.0545  0.2004
 8791SOL    HW131220   0.231   7.228   2.918 -0.9957 -0.6349  1.3098
 8791SOL    HW231221   0.292   7.299   3.037 -1.6356  0.0701  1.2237
 8792SOL     OW31222   1.092   0.326   7.212 -0.0049  0.4721 -0.3805
 8792SOL    HW131223   1.092   0.324   7.117 -0.1498 -2.0673 -0.3956
 8792SOL    HW231224   1.001   0.344   7.236 -0.5511 -1.5553 -0.7809
 8793SOL     OW31225   5.834   6.396   7.098 -0.1738  0.0788 -0.1078
 8793SOL    HW131226   5.845   6.479   7.051 -1.5554  0.1161 -0.4180
 8793SOL    HW231227   5.769   6.414   7.166 -0.0597 -0.6014  0.1982
 8794SOL     OW31228   9.140   3.027   6.783  0.3427 -0.0610  0.5652
 8794SOL    HW131229   9.146   2.954   6.844 -2.3821 -0.6161  0.2944
 8794SOL    HW231230   9.227   3.032   6.743  1.2091 -1.7973  2.0874
 8795SOL     OW31231   4.865   5.758   8.787  0.4512  0.1828 -0.2426
 8795SOL    HW131232   4.845   5.706   8.865 -2.1367  0.2262 -0.7764
 8795SOL    HW231233   4.879   5.847   8.821  0.7692 -0.0758  0.3114
 8796SOL     OW31234   4.119   1.092   3.949 -0.2957  0.0769  0.2138
 8796SOL    HW131235   4.143   1.068   3.859 -0.0197 -0.2152  0.3659
 8796SOL    HW231236   4.149   1.019   4.003  0.2327  0.5956  0.6396
 8797SOL     OW31237   8.788   0.909   0.694 -0.0001  0.9800 -0.7110
 8797SOL    HW131238   8.869   0.885   0.738 -0.1471  1.0748 -0.3826
 8797SOL    HW231239   8.762   0.992   0.735 -0.1834  1.0263 -0.9190
 8798SOL     OW31240   1.759   4.100   2.418  0.0158  0.6997 -0.7188
 8798SOL    HW131241   1.779   4.179   2.467 -1.0587  0.7307 -0.3032
 8798SOL    HW231242   1.692   4.126   2.355 -0.0106  0.2276 -0.8933
 8799SOL     OW31243   9.074   7.724   5.148  0.2539  0.2585 -0.1353
 8799SOL    HW131244   9.074   7.767   5.062 -1.5559  0.4700 -0.0750
 8799SOL    HW231245   9.152   7.757   5.191  0.0737  1.8345 -0.9180
 8800SOL     OW31246   8.780   1.719   5.904 -0.1810 -0.3571  0.4269
 8800SOL    HW131247   8.867   1.759   5.895 -0.1454 -0.6138 -0.4009
 8800SOL    HW231248   8.729   1.755   5.832 -0.1075 -1.8750 -0.4320
 8801SOL     OW31249   1.724   2.233   4.729  0.0491  0.1437  0.1138
 8801SOL    HW131250   1.709   2.289   4.805  0.8238 -1.9683  1.9181
 8801SOL    HW231251   1.815   2.248   4.706 -0.0145  0.3331 -0.0153
 8802SOL     OW31252   7.540   0.156   1.560 -0.1548 -0.2590  0.1888
 8802SOL    HW131253   7.633   0.174   1.573  0.4069 -1.5279 -1.7596
 8802SOL    HW231254   7.510   0.227   1.504 -0.1741 -0.3119  0.1331
 8803SOL     OW31255   6.356   2.207   2.979  0.3510  0.0749 -0.0191
 8803SOL    HW131256   6.264   2.187   2.957  0.1727 -0.8852  1.4283
 8803SOL    HW231257   6.351   2.291   3.025  0.3569  0.5888 -0.9324
 8804SOL     OW31258   6.877   8.485   6.288 -0.0983 -0.0531  0.1260
 8804SOL    HW131259   6.901   8.567   6.245 -1.2982  0.3652  0.2274
 8804SOL    HW231260   6.889   8.503   6.381 -1.1910  0.3059  0.2089
 8805SOL     OW31261   6.902   5.196   9.108 -0.1334  0.2111  0.3436
 8805SOL    HW131262   6.982   5.206   9.159  0.0596 -1.1599  0.3450
 8805SOL    HW231263   6.917   5.247   9.029  0.1460  1.1654  0.9996
 8806SOL     OW31264   3.353   0.914   8.984 -0.2050  0.4838 -0.1585
 8806SOL    HW131265   3.392   0.948   9.064 -1.1926  0.2137  0.4583
 8806SOL    HW231266   3.422   0.860   8.944  0.0723  0.0690  0.8630
 8807SOL     OW31267   3.041   2.237   4.421  0.1014 -0.3524 -0.1385
 8807SOL    HW131268   2.978   2.212   4.354  0.3349  0.4387 -0.6728
 8807SOL    HW231269   3.006   2.317   4.459 -0.5734 -1.3556  1.4549
 8808SOL     OW31270   3.490   1.569   4.208 -0.3880  0.0692  0.5850
 8808SOL    HW131271   3.440   1.623   4.270 -3.4047  0.2544 -1.8322
 8808SOL    HW231272   3.456   1.481   4.220 -1.1527  0.1444 -0.9051
 8809SOL     OW31273   6.212   5.321   7.967 -0.3501  0.7650 -0.4734
 8809SOL    HW131274   6.275   5.272   7.914 -1.3714  0.9044 -1.8839
 8809SOL    HW231275   6.136   5.262   7.973  0.5820 -0.3094  2.9940
 8810SOL     OW31276   1.470   1.088   6.622 -0.1616  0.1399 -0.3296
 8810SOL    HW131277   1.405   1.067   6.689  0.3668  1.5781  0.6825
 8810SOL    HW231278   1.532   1.146   6.666  1.6210 -0.8795 -1.3592
 8811SOL     OW31279   4.341   0.077   1.080 -0.0317 -0.6764 -0.0318
 8811SOL    HW131280   4.313   0.005   1.137  1.5102 -0.8580  0.5645
 8811SOL    HW231281   4.333   0.042   0.991 -0.3725 -1.1809  0.1904
 8812SOL     OW31282   0.647   7.735   4.214  0.3571  0.5618 -0.0737
 8812SOL    HW131283   0.688   7.668   4.158  1.9717  1.7037 -0.3378
 8812SOL    HW231284   0.553   7.725   4.197  0.6210 -0.8919 -0.9425
 8813SOL     OW31285   4.102   5.273   8.482 -0.4552  0.2189 -0.1173
 8813SOL    HW131286   4.175   5.325   8.449 -1.0776  0.7223 -0.7344
 8813SOL    HW231287   4.141   5.218   8.550  0.7313 -0.3652 -1.2087
 8814SOL     OW31288   0.324   4.741   4.814 -0.0932  0.4839 -0.0620
 8814SOL    HW131289   0.294   4.733   4.904  0.6955  2.0197  0.3669
 8814SOL    HW231290   0.282   4.821   4.782 -1.6996 -0.8832 -1.6460
 8815SOL     OW31291   1.431   2.624   2.385 -0.1949 -0.1521 -0.5987
 8815SOL    HW131292   1.490   2.687   2.343 -1.1580  0.5613 -0.9205
 8815SOL    HW231293   1.487   2.550   2.407  1.3846  1.5605  1.5436
 8816SOL     OW31294   8.113   6.176   7.379  0.1257 -1.0324 -0.3043
 8816SOL    HW131295   8.027   6.207   7.408  0.1327 -1.1094 -0.2024
 8816SOL    HW231296   8.162   6.256   7.359 -0.0000 -0.9920 -0.4518
 8817SOL     OW31297   7.383   3.720   5.789 -0.3178  0.6041  0.0709
 8817SOL    HW131298   7.290   3.710   5.808 -0.2674  0.3913  0.2080
 8817SOL    HW231299   7.400   3.814   5.798 -0.1610  0.4476  1.7089
 8818SOL     OW31300   1.236   5.139   2.033  0.2607 -0.7228  0.3525
 8818SOL    HW131301   1.222   5.116   1.941  0.0551  1.9520 -0.3875
 8818SOL    HW231302   1.175   5.083   2.081 -0.8059 -1.0799 -1.3097
 8819SOL     OW31303   7.796   9.198   6.682  0.4531  0.0444  0.1559
 8819SOL    HW131304   7.781   9.283   6.639 -0.2873 -0.4721 -0.6416
 8819SOL    HW231305   7.884   9.174   6.656  0.3475  0.1720 -0.3383
 8820SOL     OW31306   0.879   3.560   3.383  0.6042 -0.0753 -0.2535
 8820SOL    HW131307   0.857   3.554   3.476  1.3786 -0.2576 -0.0701
 8820SOL    HW231308   0.803   3.523   3.337 -0.6608  1.8273  0.1799
 8821SOL     OW31309   7.891   0.499   4.932  0.4814 -0.6499  0.1416
 8821SOL    HW131310   7.873   0.592   4.950  1.2892 -0.5306  0.3780
 8821SOL    HW231311   7.980   0.485   4.966  0.0609 -1.7136  0.8425
 8822SOL     OW31312   5.008   1.664   9.380 -0.0481 -0.3671  0.2467
 8822SOL    HW131313   5.073   1.593   9.372 -0.9233 -1.1124 -0.4518
 8822SOL    HW231314   5.003   1.700   9.291 -0.4221 -0.1593  0.3554
 8823SOL     OW31315   7.054   8.301   7.633 -0.2943  0.0419  0.0936
 8823SOL    HW131316   7.021   8.366   7.571  0.1219 -0.0424 -0.2169
 8823SOL    HW231317   7.013   8.219   7.605  0.2057 -0.0683 -0.3110
 8824SOL     OW31318   7.298   3.480   6.550  0.4757  0.0339 -0.3278
 8824SOL    HW131319   7.382   3.436   6.538 -0.0705 -0.7068 -1.6517
 8824SOL    HW231320   7.304   3.557   6.494  0.3310  0.0732 -0.2891
 8825SOL     OW31321   0.321   0.087   5.681 -0.0831 -0.0137  0.5335
 8825SOL    HW131322   0.358   0.033   5.612  0.1909 -0.4862  1.0414
 8825SOL    HW231323   0.303   0.171   5.639 -2.4819 -1.1086 -0.8332
 8826SOL     OW31324   5.326   7.970   1.842 -0.2034 -0.3597 -0.6606
 8826SOL    HW131325   5.266   7.898   1.859 -0.7921  0.1965 -0.3171
 8826SOL    HW231326   5.410   7.928   1.825 -0.6839 -1.1509 -1.1418
 8827SOL     OW31327   5.596   5.477   0.270 -0.4175 -0.5511  0.0302
 8827SOL    HW131328   5.619   5.565   0.300 -0.6032 -0.3055 -0.5477
 8827SOL    HW231329   5.656   5.419   0.318 -0.5695 -0.1511  0.7263
 8828SOL     OW31330   0.686   7.824   1.289 -0.0073  0.5175  0.3136
 8828SOL    HW131331   0.609   7.854   1.337  0.5438  0.6196  1.1657
 8828SOL    HW231332   0.677   7.863   1.202 -0.2355  1.6595  0.8255
 8829SOL     OW31333   2.487   4.350   8.948 -0.4665 -0.0574  0.2464
 8829SOL    HW131334   2.492   4.406   8.870  2.1805  1.1014  1.1661
 8829SOL    HW231335   2.506   4.262   8.915 -1.3636  0.0661 -0.6813
 8830SOL     OW31336   9.335   1.507   8.363  0.4238 -0.0623 -0.5912
 8830SOL    HW131337   9.291   1.591   8.355  1.2205  0.3792 -0.4889
 8830SOL    HW231338   9.341   1.474   8.273 -0.8229 -0.5173 -0.5232
 8831SOL     OW31339   9.240   9.667   8.965 -0.0054  0.7108 -0.1280
 8831SOL    HW131340   9.306   9.613   8.921 -0.9996  0.6644 -1.6320
 8831SOL    HW231341   9.245   9.752   8.921  0.8692  1.5960  1.5715
 8832SOL     OW31342   6.290   6.724   4.216  0.1104  0.0191 -0.2948
 8832SOL    HW131343   6.272   6.633   4.191 -1.7237  1.0946 -3.4534
 8832SOL    HW231344   6.382   6.723   4.244  0.3815 -2.6649 -0.9772
 8833SOL     OW31345   2.394   4.461   0.333 -0.0659 -0.2796 -0.5661
 8833SOL    HW131346   2.368   4.528   0.270 -0.6907  0.8879  0.8767
 8833SOL    HW231347   2.454   4.506   0.393  3.0063 -2.1153 -1.9907
 8834SOL     OW31348   7.103   0.802   1.453  0.1744 -0.6488  0.2412
 8834SOL    HW131349   7.134   0.735   1.392 -0.2231 -0.8106  0.2140
 8834SOL    HW231350   7.010   0.812   1.432  0.1928 -0.2142  0.3629
 8835SOL     OW31351   3.451   0.103   2.250 -0.3190  0.1346 -0.5988
 8835SOL    HW131352   3.422   0.079   2.338 -1.4387  1.1104 -0.6795
 8835SOL    HW231353   3.517   0.037   2.228 -0.3196 -0.3686  0.7981
 8836SOL     OW31354   6.615   5.998   9.536  0.1515  0.2934 -0.1671
 8836SOL    HW131355   6.613   5.953   9.621  1.7087  0.8087  0.1821
 8836SOL    HW231356   6.614   6.091   9.559  0.6564  0.4355 -0.7091
 8837SOL     OW31357   8.777   8.530   4.640 -0.3008 -0.2439 -0.5226
 8837SOL    HW131358   8.858   8.581   4.647  0.1552 -1.0273  0.1957
 8837SOL    HW231359   8.713   8.580   4.690 -0.2430  0.3356 -1.0175
 8838SOL     OW31360   4.515   4.314   1.285 -0.3943 -0.3156  0.4394
 8838SOL    HW131361   4.564   4.328   1.365 -0.3279  1.4328  0.1355
 8838SOL    HW231362   4.426   4.342   1.306 -0.3593  0.2267 -0.0921
 8839SOL     OW31363   5.382   6.194   5.450  0.4987 -0.3434  0.3036
 8839SOL    HW131364   5.411   6.102   5.445  1.9939  0.0841  0.5817
 8839SOL    HW231365   5.309   6.199   5.388 -0.8104 -2.1221  1.5684
 8840SOL     OW31366   8.443   1.373   3.683 -0.1150  0.5186 -0.9035
 8840SOL    HW131367   8.534   1.361   3.655 -0.0557  0.0918 -0.5366
 8840SOL    HW231368   8.425   1.297   3.738 -0.7932  0.4492 -1.2213
 8841SOL     OW31369   8.549   6.201   6.834  0.2529 -0.6009 -0.1892
 8841SOL    HW131370   8.546   6.145   6.757  0.4907 -0.7996 -0.0544
 8841SOL    HW231371   8.574   6.143   6.905 -0.4815 -0.5272  0.1386
 8842SOL     OW31372   0.756   4.755   9.295  0.4113  0.3554  0.6100
 8842SOL    HW131373   0.730   4.821   9.230  0.1576 -0.1693  0.1626
 8842SOL    HW231374   0.842   4.726   9.266  0.3269  0.1691  0.5400
 8843SOL     OW31375   3.210   7.323   6.781 -0.0371 -0.1880 -0.3862
 8843SOL    HW131376   3.131   7.304   6.831 -1.1464 -2.1259 -2.6373
 8843SOL    HW231377   3.208   7.418   6.766 -2.2338 -0.2508 -0.7813
 8844SOL     OW31378   5.946   6.896   7.701 -0.2173  0.1773 -0.1764
 8844SOL    HW131379   5.931   6.903   7.796  0.8902  0.0565  0.0176
 8844SOL    HW231380   5.951   6.802   7.685  2.1927  0.2123  0.0974
 8845SOL     OW31381   8.677   6.448   7.445 -0.2260 -0.2459 -0.1387
 8845SOL    HW131382   8.610   6.516   7.439 -1.3062 -1.3284 -1.0237
 8845SOL    HW231383   8.760   6.495   7.436 -0.7539  1.2870  2.2459
 8846SOL     OW31384   3.856   8.500   6.087  0.2837  0.1363 -0.4680
 8846SOL    HW131385   3.935   8.541   6.052 -0.5666  0.3190 -2.2643
 8846SOL    HW231386   3.888   8.447   6.160  2.3208 -1.0120 -2.0756
 8847SOL     OW31387   7.635   1.039   5.508  0.6187  0.1249  0.7725
 8847SOL    HW131388   7.551   0.996   5.520  1.1400 -1.0833  0.2498
 8847SOL    HW231389   7.680   0.987   5.442  0.7884  2.2245 -0.8687
 8848SOL     OW31390   6.929   1.825   2.265 -1.0109 -0.0012 -0.0638
 8848SOL    HW131391   6.849   1.853   2.220 -1.1267 -0.2878 -0.0411
 8848SOL    HW231392   6.996   1.887   2.237 -0.6523 -1.1759 -2.0365
 8849SOL     OW31393   5.912   1.485   5.611  0.2572 -0.1435  0.3185
 8849SOL    HW131394   5.854   1.553   5.644 -2.4941  0.3262 -4.4777
 8849SOL    HW231395   5.858   1.406   5.609  1.5906 -1.0931  0.7223
 8850SOL     OW31396   2.678   4.877   9.200  0.9939  0.4514 -0.0797
 8850SOL    HW131397   2.723   4.958   9.176  2.8406 -0.6495 -0.4690
 8850SOL    HW231398   2.743   4.808   9.188 -0.5407 -1.1227  0.2046
 8851SOL     OW31399   2.150   7.468   7.314 -0.6898  0.4065  0.5514
 8851SOL    HW131400   2.057   7.448   7.318 -0.2270 -2.6174 -1.2140
 8851SOL    HW231401   2.175   7.450   7.224  1.7200  0.6570  1.1001
 8852SOL     OW31402   5.134   6.747   8.756 -0.1388 -0.6241 -0.1094
 8852SOL    HW131403   5.210   6.733   8.698  0.7259  0.6549  0.6559
 8852SOL    HW231404   5.078   6.807   8.706 -0.0677 -0.6284 -0.1961
 8853SOL     OW31405   1.032   2.077   6.946 -0.0778  0.1279 -0.2729
 8853SOL    HW131406   1.023   2.165   6.983 -0.1955 -0.6284  1.6179
 8853SOL    HW231407   0.959   2.070   6.884 -0.8441  0.9089  0.5041
 8854SOL     OW31408   9.578   8.445   3.611  0.1255  0.1177  0.2364
 8854SOL    HW131409   9.483   8.439   3.614  0.0398  0.8012 -0.6144
 8854SOL    HW231410   9.597   8.534   3.642  0.2683  1.0269 -2.1996
 8855SOL     OW31411   8.751   2.380   6.366  0.5811  0.2238 -0.4769
 8855SOL    HW131412   8.780   2.401   6.277 -1.4889  1.8925 -0.8495
 8855SOL    HW231413   8.785   2.452   6.419  0.4991  0.0599 -0.2025
 8856SOL     OW31414   1.235   7.001   5.339  0.1603  0.4608  0.2504
 8856SOL    HW131415   1.249   7.095   5.324  1.1452  0.3478  0.3844
 8856SOL    HW231416   1.306   6.959   5.290  0.3326 -0.1574  1.0140
 8857SOL     OW31417   8.115   3.765   6.674 -0.1446  0.0936 -0.1921
 8857SOL    HW131418   8.033   3.813   6.664 -0.9493 -1.1047  0.4636
 8857SOL    HW231419   8.089   3.678   6.702  1.3266 -0.5016 -0.5630
 8858SOL     OW31420   7.930   9.267   5.242 -0.0560 -0.1965  0.1694
 8858SOL    HW131421   7.974   9.328   5.184  0.6972 -0.0645  0.8562
 8858SOL    HW231422   7.886   9.205   5.184  2.3643 -1.3064 -0.6045
 8859SOL     OW31423   5.624   1.580   5.345  0.0825  0.0018  0.3871
 8859SOL    HW131424   5.569   1.632   5.404  0.0915  0.1579  0.2581
 8859SOL    HW231425   5.683   1.644   5.305  1.9880 -0.4485  2.2854
 8860SOL     OW31426   2.352   5.279   7.357 -0.1489 -0.0633  0.1924
 8860SOL    HW131427   2.421   5.247   7.415  0.6189  0.5102 -0.3902
 8860SOL    HW231428   2.323   5.361   7.398 -0.0171  0.0390  0.0810
 8861SOL     OW31429   3.792   3.643   0.042 -0.0893  0.1242 -0.4947
 8861SOL    HW131430   3.726   3.637   0.111 -2.1067 -0.6665 -2.3628
 8861SOL    HW231431   3.867   3.685   0.084 -1.9270  1.5375  1.6325
 8862SOL     OW31432   3.341   7.797   8.288 -0.4415 -0.4087  0.0229
 8862SOL    HW131433   3.408   7.785   8.356 -0.2235  0.8708  0.0635
 8862SOL    HW231434   3.272   7.847   8.331 -1.2104 -1.2836 -0.1661
 8863SOL     OW31435   4.576   0.513   2.282  0.3521  0.4752  0.5193
 8863SOL    HW131436   4.606   0.496   2.371  2.1545  0.2614 -0.0901
 8863SOL    HW231437   4.626   0.590   2.254 -0.9017  1.1272  0.0126
 8864SOL     OW31438   1.189   2.254   4.584 -0.3952 -0.2509 -0.5667
 8864SOL    HW131439   1.153   2.167   4.571  1.2193 -1.1823  0.8614
 8864SOL    HW231440   1.270   2.240   4.634 -0.2102  2.0723 -0.0964
 8865SOL     OW31441   5.939   2.119   9.057  0.2613 -0.3360  0.0489
 8865SOL    HW131442   5.868   2.177   9.027  2.2308  2.7042  0.8059
 8865SOL    HW231443   5.999   2.115   8.983  0.4912 -0.8087  0.2609
 8866SOL     OW31444   2.625   5.788   8.278 -0.3158  0.1032  0.3636
 8866SOL    HW131445   2.577   5.711   8.308 -0.5566  1.5577  4.3029
 8866SOL    HW231446   2.712   5.755   8.255 -0.5950 -1.4291  1.3593
 8867SOL     OW31447   3.632   6.983   0.554 -0.5085 -0.3389 -0.4198
 8867SOL    HW131448   3.685   7.063   0.553 -0.3967 -0.3615  0.9235
 8867SOL    HW231449   3.622   6.959   0.462 -0.9246  1.4746 -0.8985
 8868SOL     OW31450   1.945   2.061   2.915  0.0937 -0.4691  0.1891
 8868SOL    HW131451   1.878   2.076   2.982  0.4608 -2.0998  0.9658
 8868SOL    HW231452   2.026   2.050   2.964  1.2885  2.7515 -0.7985
 8869SOL     OW31453   3.778   7.200   3.349  0.5094 -0.4873 -0.5033
 8869SOL    HW131454   3.734   7.127   3.306 -0.6992  0.1007 -0.3176
 8869SOL    HW231455   3.706   7.252   3.387  1.4190  0.0703  0.5128
 8870SOL     OW31456   6.098   2.795   2.144 -0.1485 -0.0990  0.5188
 8870SOL    HW131457   6.026   2.856   2.163  1.4101  2.3086 -0.8597
 8870SOL    HW231458   6.112   2.803   2.050  0.0022 -2.8561  0.2176
 8871SOL     OW31459   2.186   0.329   2.662 -0.7931  0.6269 -0.7606
 8871SOL    HW131460   2.099   0.366   2.673 -2.1266 -2.3649 -0.2331
 8871SOL    HW231461   2.245   0.394   2.700 -3.1679  1.0044  2.7764
 8872SOL     OW31462   8.815   6.640   0.201 -0.2152  0.1394 -0.0679
 8872SOL    HW131463   8.731   6.667   0.237 -0.8785 -2.3229  0.4006
 8872SOL    HW231464   8.875   6.712   0.223 -1.6576  0.8532  1.7624
 8873SOL     OW31465   3.180   3.788   6.440  0.0208 -0.3521  0.2008
 8873SOL    HW131466   3.179   3.828   6.526 -1.4681 -0.7353  0.3959
 8873SOL    HW231467   3.273   3.784   6.416  0.2675  3.4843 -0.0192
 8874SOL     OW31468   3.907   4.522   3.864 -0.2178  0.0136  0.5507
 8874SOL    HW131469   3.864   4.469   3.797  0.2398 -0.4428  0.6127
 8874SOL    HW231470   3.999   4.495   3.860 -0.4195 -1.0633  2.3370
 8875SOL     OW31471   1.379   0.923   8.357 -0.1638  0.0908  0.3588
 8875SOL    HW131472   1.288   0.892   8.355 -0.4282  0.7956  0.9453
 8875SOL    HW231473   1.375   1.010   8.318  0.4948 -0.3956 -0.8329
 8876SOL     OW31474   8.061   3.562   8.198  0.0627  0.4451 -0.7613
 8876SOL    HW131475   8.094   3.635   8.145 -0.8255  0.0935 -1.8382
 8876SOL    HW231476   7.970   3.552   8.170 -0.8687  1.0711  1.7850
 8877SOL     OW31477   1.256   5.517   8.561  0.1264 -0.3413 -0.4410
 8877SOL    HW131478   1.262   5.447   8.496  1.8580  0.4060 -1.1571
 8877SOL    HW231479   1.243   5.596   8.509  0.7186  0.1643  0.1625
 8878SOL     OW31480   1.208   6.748   4.429 -0.2218 -0.9185 -0.4527
 8878SOL    HW131481   1.161   6.778   4.507  0.0818  1.7627 -1.2077
 8878SOL    HW231482   1.294   6.789   4.435 -0.5236  0.2169 -2.6385
 8879SOL     OW31483   8.941   3.677   5.840 -0.0106 -0.1074 -0.3555
 8879SOL    HW131484   8.930   3.750   5.902 -0.9721 -0.3725 -0.1945
 8879SOL    HW231485   8.915   3.600   5.890 -1.5595 -0.2365 -1.3006
 8880SOL     OW31486   0.737   3.897   7.291  0.3498  0.2318 -0.5473
 8880SOL    HW131487   0.711   3.904   7.200  0.1614 -1.0629 -0.6136
 8880SOL    HW231488   0.742   3.803   7.308 -0.6424  0.4277  1.0702
 8881SOL     OW31489   1.170   1.575   5.956 -0.0808 -0.4714 -0.4184
 8881SOL    HW131490   1.218   1.607   6.032  1.0123 -1.1890 -0.7794
 8881SOL    HW231491   1.206   1.488   5.940 -1.1854 -0.8401 -1.0021
 8882SOL     OW31492   9.447   5.474   7.038 -0.3922  0.0819  0.3325
 8882SOL    HW131493   9.432   5.566   7.062 -2.1810 -0.0847 -0.0022
 8882SOL    HW231494   9.363   5.431   7.054 -0.2120 -1.0630 -1.5073
 8883SOL     OW31495   8.130   3.659   9.283 -0.4951  0.2931 -0.3030
 8883SOL    HW131496   8.148   3.692   9.371 -0.2319 -1.6157  0.4038
 8883SOL    HW231497   8.204   3.689   9.230 -0.0938  0.5378  0.3822
 8884SOL     OW31498   5.311   4.204   3.623  0.3805  0.3557  0.5052
 8884SOL    HW131499   5.282   4.289   3.588 -1.9808 -1.7151 -3.2445
 8884SOL    HW231500   5.264   4.195   3.706 -0.8605  1.9413  0.0368
 8885SOL     OW31501   2.202   9.252   4.698 -0.3062 -0.0696 -0.2890
 8885SOL    HW131502   2.259   9.228   4.625 -0.6474  0.0261 -0.5885
 8885SOL    HW231503   2.261   9.287   4.764  0.1126 -0.9963 -0.1565
 8886SOL     OW31504   8.678   6.897   6.564 -0.1110  0.1930 -0.0206
 8886SOL    HW131505   8.755   6.909   6.510 -0.1903  0.9252  0.0175
 8886SOL    HW231506   8.606   6.887   6.502 -0.0553 -0.0349 -0.0507
 8887SOL     OW31507   8.868   7.139   1.642 -0.0195 -0.5998 -0.8912
 8887SOL    HW131508   8.826   7.222   1.662  0.4171 -0.6279  0.1880
 8887SOL    HW231509   8.844   7.122   1.551  0.7920  1.2620 -1.5221
 8888SOL     OW31510   0.396   4.637   7.632 -0.0801 -0.3610  0.6781
 8888SOL    HW131511   0.365   4.573   7.568  0.4194 -0.9055  0.9740
 8888SOL    HW231512   0.468   4.681   7.588 -0.5814  0.1759  0.3832
 8889SOL     OW31513   9.007   2.762   1.583  0.4724 -0.1450 -0.3739
 8889SOL    HW131514   9.016   2.715   1.500 -0.7719 -0.9238 -0.0912
 8889SOL    HW231515   8.966   2.845   1.558 -1.3247 -1.0018 -0.3894
 8890SOL     OW31516   1.983   2.575   4.810 -0.1310 -0.3661 -0.6898
 8890SOL    HW131517   1.961   2.660   4.773 -0.3040 -0.6841 -1.3380
 8890SOL    HW231518   1.905   2.548   4.857 -0.6221 -0.8177 -1.7269
 8891SOL     OW31519   3.101   6.952   5.020 -0.0594 -0.1555  0.5976
 8891SOL    HW131520   3.038   6.941   5.091 -0.1070  2.0306  0.9787
 8891SOL    HW231521   3.099   7.046   5.001  0.0302 -0.6357 -2.2521
 8892SOL     OW31522   1.629   0.294   5.728  0.0366  0.0702 -0.4269
 8892SOL    HW131523   1.691   0.367   5.729 -1.4224  1.4028 -1.8613
 8892SOL    HW231524   1.587   0.297   5.814  0.1538  0.7780 -0.3873
 8893SOL     OW31525   3.275   2.824   1.835  0.0050 -0.8551  0.1057
 8893SOL    HW131526   3.289   2.902   1.781  0.1192 -1.4437 -0.7481
 8893SOL    HW231527   3.260   2.858   1.923  1.9960  0.0419  0.1516
 8894SOL     OW31528   2.086   2.318   2.152 -0.0056 -0.1189  0.1413
 8894SOL    HW131529   2.088   2.255   2.080 -0.3547 -0.7460  0.6740
 8894SOL    HW231530   2.041   2.394   2.115 -0.7364 -0.6688 -0.1333
 8895SOL     OW31531   3.389   5.395   1.481  0.4219 -0.2199 -0.2761
 8895SOL    HW131532   3.377   5.366   1.391 -0.5519 -1.8443  0.3510
 8895SOL    HW231533   3.316   5.455   1.497  0.9111  0.5160 -0.7121
 8896SOL     OW31534   8.548   7.551   7.328  0.2729 -0.8139 -0.1880
 8896SOL    HW131535   8.545   7.588   7.416 -1.5677 -0.2481 -0.4364
 8896SOL    HW231536   8.480   7.483   7.329 -0.7014  0.0835 -1.5089
 8897SOL     OW31537   9.519   2.271   5.792  0.2575 -0.0365 -0.5687
 8897SOL    HW131538   9.477   2.187   5.778 -1.8559  0.7400  0.6682
 8897SOL    HW231539   9.498   2.295   5.882 -1.6086  2.9852 -1.6185
 8898SOL     OW31540   7.816   0.014   1.135  0.8187  0.3710  0.8237
 8898SOL    HW131541   7.776   0.094   1.170  1.3921  1.2929 -0.5460
 8898SOL    HW231542   7.902   0.042   1.102  1.7960 -1.1699  1.8980
 8899SOL     OW31543   5.605   2.605   9.582 -0.3702  0.0228 -0.2132
 8899SOL    HW131544   5.690   2.633   9.548  0.7697 -1.3538  1.3468
 8899SOL    HW231545   5.612   2.613   9.677 -1.8976 -0.3558 -0.0268
 8900SOL     OW31546   7.831   3.158   3.542 -0.4351 -1.0368  0.2826
 8900SOL    HW131547   7.918   3.118   3.537  0.0672  0.1111 -0.6746
 8900SOL    HW231548   7.834   3.210   3.622 -0.1281 -0.7712  0.1021
 8901SOL     OW31549   5.658   6.955   5.672  0.4088 -0.3674 -0.0476
 8901SOL    HW131550   5.714   6.924   5.601  1.0864  0.6784  0.0091
 8901SOL    HW231551   5.673   7.050   5.676 -0.5204 -0.2262  0.7088
 8902SOL     OW31552   9.087   2.816   7.540  0.3113 -0.2293 -0.2760
 8902SOL    HW131553   8.994   2.807   7.519  0.2991  0.9304 -0.7618
 8902SOL    HW231554   9.126   2.735   7.507 -0.5637 -0.8902  0.2497
 8903SOL     OW31555   8.729   0.608   9.092  0.1047 -0.2470  0.1924
 8903SOL    HW131556   8.655   0.565   9.049  0.3639 -0.3753 -0.1265
 8903SOL    HW231557   8.699   0.697   9.108 -0.8347 -0.8074  1.8294
 8904SOL     OW31558   0.345   6.889   0.608  0.3044  0.0810  0.4402
 8904SOL    HW131559   0.378   6.947   0.539  0.8819 -0.2688  0.4148
 8904SOL    HW231560   0.252   6.876   0.586  0.8209 -1.2733 -1.1901
 8905SOL     OW31561   4.600   2.060   3.437  0.2079 -0.1699  0.2972
 8905SOL    HW131562   4.639   2.133   3.485  1.4726  0.5399 -1.6921
 8905SOL    HW231563   4.650   2.056   3.356 -0.5510 -2.5859 -0.1195
 8906SOL     OW31564   7.809   9.264   9.659  0.0840  0.0917  0.0599
 8906SOL    HW131565   7.877   9.329   9.643  0.2265 -0.2873 -0.9322
 8906SOL    HW231566   7.730   9.315   9.678  0.9561  0.5730  2.9807
 8907SOL     OW31567   5.802   5.000   9.112  0.1040  0.0395  0.0517
 8907SOL    HW131568   5.822   4.964   9.026 -1.5259  1.5222 -0.9890
 8907SOL    HW231569   5.746   4.934   9.153 -1.9469  0.7817 -1.4051
 8908SOL     OW31570   2.030   1.877   7.040 -0.1330 -0.1585  0.3364
 8908SOL    HW131571   2.096   1.821   6.999  0.0691  1.2534 -1.3652
 8908SOL    HW231572   1.947   1.841   7.010 -0.0105  0.3181 -0.5836
 8909SOL     OW31573   6.801   5.559   8.998  0.5696  0.0727  0.7149
 8909SOL    HW131574   6.802   5.623   9.069 -0.6382  0.8098  0.0880
 8909SOL    HW231575   6.722   5.578   8.948  0.0606 -2.0394  0.6120
 8910SOL     OW31576   5.948   0.181   8.282  0.2953  0.4932  0.1972
 8910SOL    HW131577   6.021   0.219   8.331 -0.5428  0.7222  1.3034
 8910SOL    HW231578   5.986   0.104   8.239  0.8404 -0.3332  2.0578
 8911SOL     OW31579   7.428   3.691   3.898 -0.2975 -0.1997 -0.3848
 8911SOL    HW131580   7.507   3.744   3.910 -1.6276  1.2227  3.9090
 8911SOL    HW231581   7.365   3.749   3.857 -0.1136 -0.2912 -0.8040
 8912SOL     OW31582   7.651   4.439   3.512  0.1821 -0.1086 -0.0046
 8912SOL    HW131583   7.650   4.469   3.421 -0.5956  1.5014  0.5071
 8912SOL    HW231584   7.714   4.496   3.556 -1.1555  0.7020  0.9401
 8913SOL     OW31585   9.518   9.313   5.740 -0.5847  0.7775  0.3018
 8913SOL    HW131586   9.574   9.279   5.670 -1.0859  2.2025 -0.8677
 8913SOL    HW231587   9.538   9.259   5.816  0.1970 -0.6544 -0.8635
 8914SOL     OW31588   6.592   6.308   3.309 -0.0902 -0.1544 -0.5261
 8914SOL    HW131589   6.680   6.326   3.343 -1.0386  1.6811  1.1828
 8914SOL    HW231590   6.542   6.387   3.330 -1.8560 -0.6397 -2.5920
 8915SOL     OW31591   9.583   4.733   4.081 -0.0393 -0.0966 -0.4119
 8915SOL    HW131592   9.523   4.804   4.104 -0.7650 -0.6749 -0.4691
 8915SOL    HW231593   9.622   4.705   4.164 -0.4561 -0.2456 -0.2649
 8916SOL     OW31594   0.788   7.414   0.354 -0.4943  0.4242 -0.2071
 8916SOL    HW131595   0.838   7.433   0.274  2.0889 -0.4820  1.0472
 8916SOL    HW231596   0.828   7.471   0.420 -0.7230 -0.7619  0.9844
 8917SOL     OW31597   5.226   2.788   4.412 -0.9269 -0.0332  0.2383
 8917SOL    HW131598   5.182   2.848   4.351 -1.3357  0.4196  0.9607
 8917SOL    HW231599   5.298   2.751   4.362 -0.7327  0.9891 -0.2614
 8918SOL     OW31600   6.729   4.729   2.384 -0.1514 -0.0936 -0.2282
 8918SOL    HW131601   6.666   4.707   2.315 -0.2598 -0.8652  0.0997
 8918SOL    HW231602   6.674   4.747   2.461 -0.0253  0.6184 -0.2971
 8919SOL     OW31603   6.140   6.768   3.302 -0.4275  0.2390  0.2017
 8919SOL    HW131604   6.072   6.833   3.284 -0.1303  0.1965 -1.1391
 8919SOL    HW231605   6.098   6.706   3.361 -1.1785  0.8471  0.3271
 8920SOL     OW31606   5.191   3.705   8.407  0.7163  0.0104 -0.0180
 8920SOL    HW131607   5.108   3.708   8.455  0.2495  0.0454 -0.7958
 8920SOL    HW231608   5.221   3.615   8.416 -0.5129 -0.5911 -1.5102
 8921SOL     OW31609   8.680   1.149   7.367 -0.0199 -0.3227 -0.0729
 8921SOL    HW131610   8.741   1.169   7.296 -0.1453  0.5995  0.0712
 8921SOL    HW231611   8.714   1.068   7.405  1.5054  0.5139  0.4305
 8922SOL     OW31612   4.014   7.303   7.516  0.3216 -0.6249  0.2747
 8922SOL    HW131613   4.024   7.330   7.607  1.4857 -0.3737  0.0865
 8922SOL    HW231614   3.956   7.369   7.478  0.3003 -0.4037  0.6867
 8923SOL     OW31615   9.015   8.445   7.497 -0.6698 -0.0308 -0.1135
 8923SOL    HW131616   8.936   8.490   7.467 -0.3632  1.2161  0.8565
 8923SOL    HW231617   9.087   8.503   7.470 -0.2920  0.2874  1.4719
 8924SOL     OW31618   6.849   8.712   0.375  0.2149 -0.2373  0.2096
 8924SOL    HW131619   6.931   8.691   0.419  0.5316 -0.6595 -0.5694
 8924SOL    HW231620   6.785   8.653   0.414  0.3242 -0.0733  0.6456
 8925SOL     OW31621   4.957   9.061   0.862 -0.5026  0.3686  0.2656
 8925SOL    HW131622   5.020   9.098   0.924 -2.1111  1.0765  1.5335
 8925SOL    HW231623   4.928   8.979   0.903 -0.2010 -0.1193 -0.4647
 8926SOL     OW31624   6.455   3.053   7.365  0.3496 -0.0009 -0.3463
 8926SOL    HW131625   6.518   2.982   7.356 -0.1919 -0.5547  0.1353
 8926SOL    HW231626   6.500   3.118   7.419  0.6383 -0.2266 -0.3134
 8927SOL     OW31627   9.746   4.121   5.446  0.4540 -0.1580  0.7925
 8927SOL    HW131628   9.763   4.028   5.429 -0.5176 -0.7906  3.0006
 8927SOL    HW231629   9.652   4.125   5.462 -0.0181  1.6825 -1.7391
 8928SOL     OW31630   2.799   8.398   9.407  0.4407 -0.1627  0.0820
 8928SOL    HW131631   2.886   8.412   9.444  1.1313  0.8446 -1.7977
 8928SOL    HW231632   2.809   8.322   9.350 -0.2228 -0.7299  0.6873
 8929SOL     OW31633   6.252   8.397   7.932  0.1024 -0.3574 -0.2059
 8929SOL    HW131634   6.158   8.410   7.948  0.6511  2.2212  1.5363
 8929SOL    HW231635   6.264   8.302   7.939 -2.7620 -1.1937 -3.3754
 8930SOL     OW31636   4.156   1.367   4.724  0.2693  0.1943  0.9738
 8930SOL    HW131637   4.185   1.410   4.804  1.6010  1.3069 -0.0730
 8930SOL    HW231638   4.222   1.389   4.658 -1.4495  0.4035 -0.7821
 8931SOL     OW31639   0.739   7.639   8.449  1.1389 -0.1730  0.3517
 8931SOL    HW131640   0.812   7.616   8.392  0.6000  0.6115 -0.7137
 8931SOL    HW231641   0.677   7.567   8.438  0.6086  0.4335 -0.8774
 8932SOL     OW31642   8.733   7.387   7.648  0.7661 -0.0830 -0.4220
 8932SOL    HW131643   8.817   7.417   7.614  0.3746  2.3909  0.5978
 8932SOL    HW231644   8.734   7.413   7.740 -1.3759  0.6067 -0.5487
 8933SOL     OW31645   6.383   8.653   3.460 -0.2771 -0.4152 -0.1419
 8933SOL    HW131646   6.337   8.714   3.403 -1.4313 -1.3136 -0.2030
 8933SOL    HW231647   6.314   8.612   3.512  0.6349 -0.5207  1.0289
 8934SOL     OW31648   4.527   0.451   2.933  0.2182  0.3014  0.0637
 8934SOL    HW131649   4.457   0.516   2.938  1.3852  1.5497  0.7252
 8934SOL    HW231650   4.488   0.378   2.885 -1.5308  0.9501  0.4263
 8935SOL     OW31651   7.155   9.683   6.438  0.4677 -0.6645 -1.0399
 8935SOL    HW131652   7.131   9.680   6.530  2.0183 -0.7482 -0.6046
 8935SOL    HW231653   7.081   9.725   6.395 -0.0710 -0.1770  0.3072
 8936SOL     OW31654   6.016   5.532   5.517 -0.5703 -0.0995 -0.6408
 8936SOL    HW131655   6.042   5.624   5.519 -2.7922  0.5580  0.1825
 8936SOL    HW231656   6.088   5.487   5.562  0.1944  1.3086 -0.3800
 8937SOL     OW31657   3.154   4.907   6.097  0.4870  0.3305  0.3058
 8937SOL    HW131658   3.232   4.856   6.077 -0.5462 -0.7738 -1.1923
 8937SOL    HW231659   3.105   4.854   6.159  0.2237  0.2982  0.0741
 8938SOL     OW31660   5.211   4.802   0.966 -0.4558 -0.0069 -0.2344
 8938SOL    HW131661   5.161   4.858   1.026  1.8778  1.4444  0.4892
 8938SOL    HW231662   5.182   4.713   0.986 -1.4524  0.6360  1.3762
 8939SOL     OW31663   0.118   0.164   1.268 -0.2449  0.5739  0.0192
 8939SOL    HW131664   0.172   0.139   1.193 -2.8509 -2.2292 -1.1061
 8939SOL    HW231665   0.094   0.255   1.251 -0.2445  0.2072 -2.2501
 8940SOL     OW31666   2.671   0.669   5.959  0.2930 -0.2074 -0.2690
 8940SOL    HW131667   2.756   0.703   5.932  0.4687 -1.2788 -1.1499
 8940SOL    HW231668   2.618   0.747   5.975  1.6740  0.4953  1.1695
 8941SOL     OW31669   4.129   9.140   2.101 -0.1873  0.4149 -0.6466
 8941SOL    HW131670   4.175   9.224   2.105 -0.4638  0.5193  2.2722
 8941SOL    HW231671   4.172   9.086   2.167 -0.0819 -1.7801 -2.4021
 8942SOL     OW31672   9.312   7.297   2.975 -0.2712 -0.3294  0.7146
 8942SOL    HW131673   9.345   7.289   3.064 -0.7136  0.2017  0.9304
 8942SOL    HW231674   9.222   7.262   2.979 -0.2662 -0.3777  0.4570
 8943SOL     OW31675   8.237   4.203   5.190  0.2284  0.4019  0.3799
 8943SOL    HW131676   8.274   4.220   5.104  0.3891  1.2614  0.6070
 8943SOL    HW231677   8.312   4.190   5.247  0.1470  0.6219  0.5411
 8944SOL     OW31678   5.205   5.378   1.845  0.0930  0.0697  0.0475
 8944SOL    HW131679   5.183   5.308   1.906  0.1267  1.8301  2.2140
 8944SOL    HW231680   5.127   5.434   1.843  0.4396  0.5480 -0.8125
 8945SOL     OW31681   9.617   5.827   2.097 -0.0133  0.6742 -0.9816
 8945SOL    HW131682   9.590   5.825   2.005  1.0230  0.4590 -1.2977
 8945SOL    HW231683   9.685   5.760   2.104 -0.3963  0.3712  0.0553
 8946SOL     OW31684   7.219   7.202   3.740  0.9206 -0.7221  0.3680
 8946SOL    HW131685   7.160   7.160   3.677  0.6132  0.2597 -0.0128
 8946SOL    HW231686   7.270   7.263   3.687 -0.7230  1.6233  1.2970
 8947SOL     OW31687   3.786   3.955   2.948 -0.3182  0.0149  0.0058
 8947SOL    HW131688   3.740   3.884   2.904  2.2696 -2.4747  0.9907
 8947SOL    HW231689   3.779   3.936   3.041 -1.2843  2.2727  0.4611
 8948SOL     OW31690   9.605   6.455   7.648  0.2602  0.9182  0.2642
 8948SOL    HW131691   9.584   6.535   7.697  0.1531  0.8739  0.2906
 8948SOL    HW231692   9.699   6.443   7.661  0.6249  1.9659 -1.1008
 8949SOL     OW31693   9.234   2.088   7.399  0.4131 -0.0424  0.4417
 8949SOL    HW131694   9.290   2.018   7.431  0.0598 -0.0996  0.9616
 8949SOL    HW231695   9.205   2.133   7.479 -1.5900 -1.0276  0.3289
 8950SOL     OW31696   1.312   2.140   8.766 -0.4311  0.3223 -0.0523
 8950SOL    HW131697   1.387   2.161   8.710 -0.2350  0.3252  0.2105
 8950SOL    HW231698   1.339   2.062   8.814 -0.9240 -0.1853 -0.5778
 8951SOL     OW31699   4.001   1.890   5.247 -0.6836  0.3480 -0.0617
 8951SOL    HW131700   3.976   1.868   5.157  0.0151 -1.0144  0.0650
 8951SOL    HW231701   4.002   1.806   5.293 -1.2086  1.0474  1.2766
 8952SOL     OW31702   2.338   3.534   4.592 -0.0610  0.2490  0.7795
 8952SOL    HW131703   2.391   3.503   4.665  3.0026 -1.0351 -1.6997
 8952SOL    HW231704   2.309   3.621   4.617  2.8136  0.8061  2.6518
 8953SOL     OW31705   6.978   4.818   4.851  0.2714 -1.1851 -0.2855
 8953SOL    HW131706   7.070   4.822   4.879  0.3185 -0.2266 -0.5148
 8953SOL    HW231707   6.952   4.727   4.864  0.7709 -1.1283  1.3301
 8954SOL     OW31708   9.702   7.064   9.554 -0.2855 -0.6099  0.6480
 8954SOL    HW131709   9.694   6.991   9.615 -0.5924 -0.3186  0.9628
 8954SOL    HW231710   9.614   7.101   9.549  0.0016  0.1549  1.0238
 8955SOL     OW31711   8.161   7.588   3.172 -0.2362 -0.0304  0.1809
 8955SOL    HW131712   8.187   7.674   3.204 -1.0233  0.6906 -1.0511
 8955SOL    HW231713   8.243   7.538   3.169  0.3140  0.8313  0.4236
 8956SOL     OW31714   5.554   1.434   1.355  0.0070 -0.0222 -0.2501
 8956SOL    HW131715   5.635   1.448   1.305  0.0408 -2.3147 -0.9631
 8956SOL    HW231716   5.485   1.437   1.289 -0.7392  3.0198  0.4921
 8957SOL     OW31717   1.899   4.769   5.686 -0.0051  0.0410 -0.3616
 8957SOL    HW131718   1.893   4.682   5.725 -1.5244 -0.0672 -0.7671
 8957SOL    HW231719   1.936   4.754   5.599 -2.5884 -0.5997 -1.4493
 8958SOL     OW31720   2.964   5.918   7.452 -0.0342  0.2910 -0.1215
 8958SOL    HW131721   3.040   5.938   7.397 -0.4666 -0.1085 -0.8950
 8958SOL    HW231722   2.999   5.910   7.540  0.8812 -0.2258 -0.5147
 8959SOL     OW31723   8.034   3.791   6.313 -0.0003  0.2269 -0.0183
 8959SOL    HW131724   8.014   3.838   6.233  0.9322  0.3630 -0.1900
 8959SOL    HW231725   8.099   3.846   6.357 -1.1132  0.5759  1.2475
 8960SOL     OW31726   4.900   4.991   4.382  0.2571  0.0874 -0.4217
 8960SOL    HW131727   4.822   5.013   4.433 -0.3771 -2.7547  0.0514
 8960SOL    HW231728   4.963   4.961   4.448  0.4110 -1.0232 -1.0382
 8961SOL     OW31729   4.340   7.765   0.842 -0.0940 -0.5385  0.1041
 8961SOL    HW131730   4.428   7.729   0.833 -0.2476 -1.0138  0.4968
 8961SOL    HW231731   4.291   7.699   0.890 -1.3133 -1.3608 -2.1326
 8962SOL     OW31732   6.720   7.873   1.021 -0.2209  0.5988  0.2785
 8962SOL    HW131733   6.660   7.947   1.014  1.6081  1.9492 -2.7891
 8962SOL    HW231734   6.698   7.817   0.946  0.2547 -0.5651  0.9752
 8963SOL     OW31735   5.562   7.157   1.463  0.4065  0.4549  0.3898
 8963SOL    HW131736   5.522   7.072   1.444  0.3966  0.6992 -0.8016
 8963SOL    HW231737   5.603   7.146   1.548  3.9176 -2.0489 -1.3665
 8964SOL     OW31738   8.499   1.582   3.087 -0.1884  0.3054  0.1174
 8964SOL    HW131739   8.450   1.611   3.010  0.5692  1.3800  0.0345
 8964SOL    HW231740   8.555   1.655   3.110 -0.2060 -0.0964  1.5482
 8965SOL     OW31741   5.388   5.279   0.441 -0.0264  0.2743  0.0949
 8965SOL    HW131742   5.463   5.278   0.500 -0.2066 -1.2502  0.3602
 8965SOL    HW231743   5.417   5.232   0.363 -0.7790 -0.6670  0.3499
 8966SOL     OW31744   3.151   4.982   5.174 -0.5080  0.1244 -0.3112
 8966SOL    HW131745   3.224   4.964   5.114 -0.1357 -0.1387  0.2075
 8966SOL    HW231746   3.080   4.926   5.142  0.3573 -1.6938  0.7392
 8967SOL     OW31747   4.563   9.073   4.289 -0.3664 -0.1742  0.1546
 8967SOL    HW131748   4.647   9.092   4.246  0.3904 -2.0045  0.7022
 8967SOL    HW231749   4.519   9.157   4.294  0.8897  0.6231 -1.3174
 8968SOL     OW31750   1.916   7.135   9.451  0.2870  0.6380 -0.6237
 8968SOL    HW131751   1.828   7.111   9.421 -0.6298  1.5544  1.1573
 8968SOL    HW231752   1.904   7.219   9.495  2.3282  1.4424 -1.5065
 8969SOL     OW31753   7.223   5.135   6.178 -0.3358  0.6887  0.0733
 8969SOL    HW131754   7.148   5.165   6.127 -0.8429  0.1392  0.4916
 8969SOL    HW231755   7.291   5.200   6.160 -1.0872  1.5174  0.1388
 8970SOL     OW31756   3.805   6.748   5.985 -0.1619  0.5402  0.1518
 8970SOL    HW131757   3.733   6.687   6.000  1.5430 -1.3177  1.3820
 8970SOL    HW231758   3.798   6.772   5.893 -2.6389  0.9043  0.3690
 8971SOL     OW31759   9.731   1.601   5.867 -0.1592  0.5005 -0.1116
 8971SOL    HW131760   9.803   1.540   5.884  0.6483  1.5758  0.4219
 8971SOL    HW231761   9.652   1.549   5.881  0.5059 -0.3029  0.8289
 8972SOL     OW31762   6.966   9.067   7.572 -0.0673  0.4919 -0.4670
 8972SOL    HW131763   7.044   9.042   7.522  0.3575  0.6206  0.1204
 8972SOL    HW231764   6.929   9.140   7.523 -0.6287 -0.4730 -1.5296
 8973SOL     OW31765   6.010   5.949   4.060  0.1088 -0.5722  0.1098
 8973SOL    HW131766   5.989   5.889   3.988  0.5685  0.6525 -1.1042
 8973SOL    HW231767   5.957   6.027   4.042  2.1874  0.7880 -0.4323
 8974SOL     OW31768   7.438   8.773   4.211  0.3544  0.0168  0.1899
 8974SOL    HW131769   7.433   8.703   4.276  0.9432  0.2847  0.5320
 8974SOL    HW231770   7.385   8.741   4.137 -1.4350  0.2915  1.3065
 8975SOL     OW31771   2.693   8.897   2.784  0.5931  0.0605  0.7240
 8975SOL    HW131772   2.600   8.915   2.804  0.6558  0.0102  1.0767
 8975SOL    HW231773   2.694   8.878   2.691  0.0107 -1.4524  0.9963
 8976SOL     OW31774   8.609   1.131   6.790  0.2315 -0.3207  0.7242
 8976SOL    HW131775   8.556   1.210   6.786 -0.2986 -0.5786  2.1953
 8976SOL    HW231776   8.560   1.072   6.848  0.2874 -1.9824 -0.8137
 8977SOL     OW31777   6.631   3.611   7.759  0.0651  0.2531 -0.5211
 8977SOL    HW131778   6.585   3.666   7.695  0.8510 -0.0835 -1.4010
 8977SOL    HW231779   6.564   3.589   7.824 -0.5763  1.1962 -0.8372
 8978SOL     OW31780   9.618   2.278   0.405 -0.0434  0.0232  0.2717
 8978SOL    HW131781   9.686   2.213   0.423  0.2895 -0.0713 -1.2536
 8978SOL    HW231782   9.636   2.309   0.317 -1.2093  0.9673  0.3340
 8979SOL     OW31783   3.196   9.447   5.922  0.2155 -0.1133  0.5129
 8979SOL    HW131784   3.153   9.509   5.981  0.1996 -0.3154  0.7173
 8979SOL    HW231785   3.132   9.378   5.909  0.7722 -0.8418  1.5013
 8980SOL     OW31786   8.847   2.998   4.281  0.3408  0.8433 -0.2107
 8980SOL    HW131787   8.909   2.986   4.208  0.5261  0.9691 -0.0732
 8980SOL    HW231788   8.828   2.909   4.311  0.8805  0.8291  0.1028
 8981SOL     OW31789   6.125   0.327   1.954 -0.0096  0.6110  0.3809
 8981SOL    HW131790   6.079   0.345   2.036  0.3194  0.8657  0.5088
 8981SOL    HW231791   6.064   0.271   1.905 -0.7452  1.4821  0.2632
 8982SOL     OW31792   7.054   5.375   0.670 -0.6724 -0.7904 -0.0456
 8982SOL    HW131793   6.967   5.411   0.654  0.2106  1.5855  0.1233
 8982SOL    HW231794   7.114   5.446   0.648  1.2300 -2.3261 -0.0335
 8983SOL     OW31795   5.333   1.376   7.621  0.0355  0.4492 -0.3116
 8983SOL    HW131796   5.414   1.418   7.592 -0.8339  2.5954  0.1807
 8983SOL    HW231797   5.318   1.411   7.709 -1.4435  0.1280 -0.4092
 8984SOL     OW31798   2.390   1.543   0.428 -0.3420 -1.0032  0.8641
 8984SOL    HW131799   2.304   1.502   0.440  0.2433 -2.8467 -0.6396
 8984SOL    HW231800   2.447   1.470   0.402  1.3565  0.4071  0.4981
 8985SOL     OW31801   3.761   7.439   5.821  0.2699  0.5012 -0.1459
 8985SOL    HW131802   3.765   7.497   5.897 -1.4592  1.0437 -0.4297
 8985SOL    HW231803   3.667   7.427   5.805  0.5803  0.9678 -2.6085
 8986SOL     OW31804   0.719   2.715   4.210  0.6811  0.3476 -0.2508
 8986SOL    HW131805   0.802   2.751   4.178  1.5645  1.1034  2.5733
 8986SOL    HW231806   0.723   2.622   4.189  1.3938  0.6681 -1.7230
 8987SOL     OW31807   8.284   0.126   5.252 -0.8031  0.0582 -0.0796
 8987SOL    HW131808   8.333   0.060   5.202 -0.0588  0.2808  0.3505
 8987SOL    HW231809   8.350   0.170   5.305 -0.8641  2.7956 -2.0796
 8988SOL     OW31810   7.515   2.371   0.953 -0.4257  0.3739 -0.2367
 8988SOL    HW131811   7.497   2.325   0.871 -2.1005  2.2567 -1.0087
 8988SOL    HW231812   7.600   2.411   0.940 -0.3449  0.0475 -0.7537
 8989SOL     OW31813   3.530   5.317   2.602  0.2184  0.1213 -0.1748
 8989SOL    HW131814   3.490   5.246   2.552  1.1943 -0.1628 -0.5713
 8989SOL    HW231815   3.622   5.292   2.610  0.3602  0.8389  0.5836
 8990SOL     OW31816   3.978   6.634   9.472  0.4318  0.3888  0.1604
 8990SOL    HW131817   3.972   6.615   9.379 -0.0536  1.3902 -0.0349
 8990SOL    HW231818   3.899   6.686   9.491  0.8698  0.7830  0.9776
 8991SOL     OW31819   4.342   1.215   9.034 -0.3595  0.5320  0.5198
 8991SOL    HW131820   4.266   1.272   9.049  0.1008  1.2903 -0.0093
 8991SOL    HW231821   4.328   1.142   9.095 -0.1728  1.9637  2.3760
 8992SOL     OW31822   3.725   3.317   7.663 -0.1040 -0.2750 -0.2763
 8992SOL    HW131823   3.639   3.315   7.621  0.1603 -1.7178 -0.7842
 8992SOL    HW231824   3.779   3.369   7.603 -0.3509 -0.2662 -0.4946
 8993SOL     OW31825   8.452   5.644   4.109 -0.3124 -0.0232  0.1061
 8993SOL    HW131826   8.528   5.661   4.165 -2.0422 -0.2779  2.7567
 8993SOL    HW231827   8.460   5.552   4.085  0.5919  0.1522 -0.3167
 8994SOL     OW31828   4.181   9.498   7.079 -0.1380 -0.1848  0.0952
 8994SOL    HW131829   4.161   9.430   7.144  0.0523  0.3617  0.7386
 8994SOL    HW231830   4.095   9.522   7.044 -0.1194 -1.5781 -1.0188
 8995SOL     OW31831   6.277   0.089   1.170  0.5470  0.1030 -0.0945
 8995SOL    HW131832   6.191   0.100   1.130  0.5489 -0.8805 -0.3887
 8995SOL    HW231833   6.299   0.176   1.203  0.3869  0.9010 -1.9254
 8996SOL     OW31834   2.499   8.698   3.629 -0.8168  0.0549  0.3006
 8996SOL    HW131835   2.545   8.764   3.682  0.7417 -1.3371  0.7551
 8996SOL    HW231836   2.536   8.707   3.542  0.6850 -1.3018  0.7445
 8997SOL     OW31837   9.688   5.392   8.498  0.4230 -0.0484  0.1651
 8997SOL    HW131838   9.625   5.417   8.566  0.3680 -2.1857  0.9780
 8997SOL    HW231839   9.660   5.441   8.421 -1.3915  0.1162  0.8641
 8998SOL     OW31840   5.835   8.937   2.790  1.0256  0.5876  0.2277
 8998SOL    HW131841   5.768   8.918   2.725  0.9522  0.0065  0.4681
 8998SOL    HW231842   5.824   9.030   2.809  0.5493  0.5853 -0.0294
 8999SOL     OW31843   5.495   0.821   0.034 -0.1751 -0.8334  0.3109
 8999SOL    HW131844   5.438   0.875   0.089  0.4880 -0.2486  0.4402
 8999SOL    HW231845   5.496   0.736   0.078  0.3139 -0.3876  1.2100
 9000SOL     OW31846   3.468   2.766   0.099  0.2043 -0.2238 -0.5574
 9000SOL    HW131847   3.555   2.726   0.092  0.5053  0.3609 -0.1997
 9000SOL    HW231848   3.441   2.750   0.189 -0.0077 -0.3069 -0.6369
 9001SOL     OW31849   2.730   7.683   6.991  0.0978  0.0193  0.0641
 9001SOL    HW131850   2.740   7.743   6.917  0.6201  0.0087  0.1207
 9001SOL    HW231851   2.805   7.624   6.984  0.5506  0.4564  1.0106
 9002SOL     OW31852   3.036   9.707   5.768 -0.4888 -0.7622 -0.3018
 9002SOL    HW131853   2.973   9.661   5.713 -1.1800 -0.4398  0.2181
 9002SOL    HW231854   3.114   9.717   5.712 -1.9284  1.5875 -2.0708
 9003SOL     OW31855   0.099   4.010   2.233 -0.6518  0.6905 -0.5111
 9003SOL    HW131856   0.013   4.045   2.259 -0.4829 -0.2808  1.5077
 9003SOL    HW231857   0.148   4.003   2.315  1.2723  0.9336 -1.5947
 9004SOL     OW31858   1.412   1.358   2.073  0.2913 -0.1755  0.6699
 9004SOL    HW131859   1.366   1.440   2.092 -0.1211  0.0624 -1.1244
 9004SOL    HW231860   1.354   1.290   2.107 -0.4247  0.2121  0.2666
 9005SOL     OW31861   5.890   2.238   6.195 -0.3208 -0.5502 -0.1705
 9005SOL    HW131862   5.804   2.279   6.183  0.4705  0.5296 -3.1063
 9005SOL    HW231863   5.942   2.305   6.240 -0.1116  0.2056 -1.4847
 9006SOL     OW31864   7.437   6.835   8.184  0.2716 -0.2338 -0.5266
 9006SOL    HW131865   7.492   6.881   8.120  0.5640  0.6278  0.3332
 9006SOL    HW231866   7.494   6.822   8.260  0.3050 -2.3337 -0.8458
 9007SOL     OW31867   4.143   1.807   9.490 -0.1194 -0.3317  0.0022
 9007SOL    HW131868   4.202   1.732   9.499 -0.7833 -1.1430 -1.8553
 9007SOL    HW231869   4.055   1.769   9.494 -0.5121  0.6472  1.1125
 9008SOL     OW31870   0.310   2.689   3.017 -0.1128 -0.0753  0.3021
 9008SOL    HW131871   0.359   2.621   3.063 -2.1636 -2.1569 -0.4110
 9008SOL    HW231872   0.220   2.657   3.014 -0.7542  1.6305 -2.0292
 9009SOL     OW31873   7.726   3.656   4.417 -0.3989 -0.3622  0.3056
 9009SOL    HW131874   7.709   3.585   4.479  0.8719  0.4304  1.6317
 9009SOL    HW231875   7.766   3.725   4.470 -2.7514  1.9262 -0.6359
 9010SOL     OW31876   7.242   3.223   5.557 -0.6204  0.1106 -0.0701
 9010SOL    HW131877   7.156   3.265   5.554 -0.6421  0.1330  0.6286
 9010SOL    HW231878   7.260   3.213   5.650 -0.0190 -0.2164 -0.2174
 9011SOL     OW31879   6.056   8.585   3.078 -0.2473 -0.1012 -0.3286
 9011SOL    HW131880   5.974   8.631   3.059 -0.9122 -0.3658  1.6482
 9011SOL    HW231881   6.118   8.655   3.100  0.5971  0.2247 -3.3546
 9012SOL     OW31882   6.491   1.175   8.847  0.4272 -0.2442 -0.0589
 9012SOL    HW131883   6.477   1.222   8.765  0.6643 -0.2832 -0.1258
 9012SOL    HW231884   6.430   1.101   8.843  0.3748 -0.1954 -0.1597
 9013SOL     OW31885   1.307   5.197   8.519  0.1607  0.1103 -0.1086
 9013SOL    HW131886   1.301   5.242   8.435 -1.1789 -0.7694 -0.5193
 9013SOL    HW231887   1.315   5.104   8.496  0.2122 -0.1063  0.7363
 9014SOL     OW31888   8.356   4.182   9.575 -0.5273  0.0100 -0.2780
 9014SOL    HW131889   8.269   4.185   9.534 -0.6010  0.9825 -0.0741
 9014SOL    HW231890   8.341   4.141   9.660 -0.3815 -2.0007 -1.1478
 9015SOL     OW31891   2.076   9.547   4.273 -0.0728  0.1069 -0.5204
 9015SOL    HW131892   2.148   9.517   4.328 -1.2960 -2.1774 -0.0494
 9015SOL    HW231893   2.049   9.631   4.311  2.1262  0.8890 -0.5749
 9016SOL     OW31894   1.895   7.857   7.232 -0.7326  0.2687 -0.5578
 9016SOL    HW131895   1.829   7.809   7.183 -1.4144  2.5432 -2.0573
 9016SOL    HW231896   1.845   7.906   7.297 -0.5427  1.7164 -1.4585
 9017SOL     OW31897   6.208   4.243   8.752 -0.0743  0.1192 -0.2159
 9017SOL    HW131898   6.264   4.196   8.691  1.5795 -0.1917  1.4302
 9017SOL    HW231899   6.264   4.257   8.829 -1.2612  2.6627  0.2903
 9018SOL     OW31900   4.996   0.689   2.045 -0.2849 -0.0269  0.6984
 9018SOL    HW131901   4.911   0.681   2.089 -0.7451 -1.9608 -0.3920
 9018SOL    HW231902   5.060   0.673   2.114 -0.8481  0.2789  1.3086
 9019SOL     OW31903   5.342   5.580   8.885  0.0244  0.5388  0.7062
 9019SOL    HW131904   5.274   5.646   8.868  0.0205  0.3286 -0.1178
 9019SOL    HW231905   5.404   5.590   8.813  0.4002  0.1132  0.9625
 9020SOL     OW31906   2.486   1.736   4.772  0.5117  0.7808  0.7245
 9020SOL    HW131907   2.554   1.670   4.758 -0.1750  0.1378  0.3164
 9020SOL    HW231908   2.524   1.818   4.738  0.1639 -0.0652 -1.9726
 9021SOL     OW31909   9.007   4.362   8.600 -0.4213 -0.4430  0.0628
 9021SOL    HW131910   8.926   4.384   8.645 -0.0533  1.3603 -0.0608
 9021SOL    HW231911   8.990   4.380   8.508  0.2739  0.5521  0.1065
 9022SOL     OW31912   5.703   1.585   3.838 -0.8984 -0.4262  0.1255
 9022SOL    HW131913   5.798   1.587   3.825 -0.8882  0.0957  0.2554
 9022SOL    HW231914   5.685   1.496   3.866 -0.5098 -0.6725 -0.3687
 9023SOL     OW31915   2.004   1.209   5.958 -0.3699  0.2437  0.2486
 9023SOL    HW131916   2.070   1.176   5.897 -0.9432  0.0237 -0.2610
 9023SOL    HW231917   2.027   1.170   6.042  0.8753  1.1383  0.3496
 9024SOL     OW31918   6.892   2.460   5.007 -0.2674  0.1354  0.1210
 9024SOL    HW131919   6.825   2.399   5.038  0.4311 -1.0399 -0.6216
 9024SOL    HW231920   6.876   2.467   4.913 -0.8960  1.8286  0.3209
 9025SOL     OW31921   5.555   7.028   4.393  0.4614 -0.2403 -0.3254
 9025SOL    HW131922   5.647   7.018   4.369 -0.0255 -1.3140 -1.9002
 9025SOL    HW231923   5.511   7.052   4.311 -0.8602 -1.1924  0.0750
 9026SOL     OW31924   4.203   4.859   9.493 -0.5171  0.2891 -0.5908
 9026SOL    HW131925   4.123   4.867   9.441  0.9806 -0.0794 -3.1061
 9026SOL    HW231926   4.245   4.945   9.487  0.0819 -0.0060 -0.7150
 9027SOL     OW31927   4.186   4.600   2.867  0.0066  0.1111  0.1011
 9027SOL    HW131928   4.181   4.514   2.911 -0.7043  0.0570 -0.0601
 9027SOL    HW231929   4.219   4.580   2.780  1.1078  0.1754  0.4950
 9028SOL     OW31930   3.682   8.126   1.210  0.3576  0.7766 -1.3962
 9028SOL    HW131931   3.771   8.145   1.180  0.4983  0.9476 -0.8841
 9028SOL    HW231932   3.655   8.205   1.256  0.8459 -0.1144  0.5226
 9029SOL     OW31933   2.261   0.715   2.217 -0.9623  0.1216 -0.0891
 9029SOL    HW131934   2.292   0.781   2.279 -2.3267 -0.6255  1.4859
 9029SOL    HW231935   2.317   0.639   2.235 -1.5619 -0.1950  0.4639
 9030SOL     OW31936   2.159   9.372   1.883  0.3151 -0.1779 -0.0144
 9030SOL    HW131937   2.116   9.410   1.806 -2.0048 -1.0224  0.7888
 9030SOL    HW231938   2.141   9.434   1.954 -1.0185 -1.3119  0.6738
 9031SOL     OW31939   2.858   9.206   5.073  0.3218 -0.2043  0.0505
 9031SOL    HW131940   2.870   9.113   5.092 -0.8060 -0.1715  1.0405
 9031SOL    HW231941   2.902   9.251   5.146  1.0392  0.0481 -0.5326
 9032SOL     OW31942   7.562   4.159   4.543 -0.4181  0.4805 -0.5683
 9032SOL    HW131943   7.540   4.247   4.512 -1.5050  0.6257  0.5446
 9032SOL    HW231944   7.632   4.174   4.608  0.6752  0.3283 -1.6686
 9033SOL     OW31945   4.608   2.446   9.086  0.0248 -0.1642  0.0550
 9033SOL    HW131946   4.633   2.529   9.126 -0.3284  0.0958 -0.2615
 9033SOL    HW231947   4.515   2.455   9.068  0.1927 -0.2304 -0.9178
 9034SOL     OW31948   9.699   9.402   4.755  0.4809 -0.1894 -0.0869
 9034SOL    HW131949   9.636   9.469   4.729 -0.0969 -1.7845 -3.3191
 9034SOL    HW231950   9.777   9.422   4.703  1.3811 -0.3122  1.1898
 9035SOL     OW31951   2.136   5.620   6.406 -0.2654 -0.2258 -0.3139
 9035SOL    HW131952   2.183   5.672   6.341  0.0116 -0.6933 -0.4927
 9035SOL    HW231953   2.166   5.530   6.391 -1.8827 -0.6826 -1.0235
 9036SOL     OW31954   7.468   8.562   4.698 -0.1247  0.2018 -0.1517
 9036SOL    HW131955   7.508   8.504   4.763  0.5044  0.3899 -0.3566
 9036SOL    HW231956   7.378   8.574   4.727  0.4201  1.0951  1.2536
 9037SOL     OW31957   7.549   4.715   4.505 -0.2671  0.3550 -0.2316
 9037SOL    HW131958   7.592   4.699   4.421  0.3680 -0.5172  0.2383
 9037SOL    HW231959   7.616   4.756   4.559 -0.1078 -0.6784  0.3871
 9038SOL     OW31960   2.383   4.832   9.161 -0.0320 -0.5595 -0.1724
 9038SOL    HW131961   2.472   4.856   9.188 -0.1896 -0.2870  0.1265
 9038SOL    HW231962   2.343   4.916   9.136 -0.7964 -0.3922  1.4874
 9039SOL     OW31963   0.792   7.947   1.754 -0.4028  0.0434 -0.0552
 9039SOL    HW131964   0.814   7.860   1.721  1.4400  0.0480  1.0013
 9039SOL    HW231965   0.817   8.006   1.683 -0.6618 -0.2127 -0.3636
 9040SOL     OW31966   9.215   8.030   3.366  0.3990  0.3312 -0.3388
 9040SOL    HW131967   9.159   8.100   3.400  0.7865  0.1836  0.6277
 9040SOL    HW231968   9.166   7.950   3.385  0.2372  0.2948 -0.8949
 9041SOL     OW31969   4.081   9.666   2.001 -0.4680  0.5097  0.0163
 9041SOL    HW131970   4.114   9.682   1.913 -2.2417  1.6632 -0.4921
 9041SOL    HW231971   3.998   9.620   1.988 -0.6190  0.4528  1.0981
 9042SOL     OW31972   1.059   3.226   7.213  0.3343  0.6562  0.3308
 9042SOL    HW131973   0.997   3.172   7.163 -1.5094  2.0626  0.9891
 9042SOL    HW231974   1.091   3.290   7.150 -2.0534  2.4823  0.8333
 9043SOL     OW31975   0.454   8.403   0.110 -0.5656  0.0033 -0.2325
 9043SOL    HW131976   0.440   8.420   0.016  1.6602 -0.1101 -0.6438
 9043SOL    HW231977   0.547   8.381   0.116 -0.5323  0.5815  2.1021
 9044SOL     OW31978   6.298   0.120   8.230 -0.3068  0.0565 -0.0558
 9044SOL    HW131979   6.275   0.029   8.248  0.0915  0.1818  1.2320
 9044SOL    HW231980   6.378   0.135   8.281 -1.0906  1.4868  0.8259
 9045SOL     OW31981   4.793   0.140   3.068 -0.6620  0.1468  0.2144
 9045SOL    HW131982   4.704   0.171   3.084 -0.9618 -0.3860 -0.3841
 9045SOL    HW231983   4.834   0.210   3.017 -1.0962 -0.0906 -0.4751
 9046SOL     OW31984   4.915   9.150   0.064 -0.4457 -0.1960 -1.0039
 9046SOL    HW131985   4.899   9.235   0.025  1.3109  0.0422 -1.2803
 9046SOL    HW231986   4.993   9.117   0.019 -2.2870 -2.9559 -2.4986
 9047SOL     OW31987   8.030   5.047   1.772 -0.0761 -0.0229 -0.1601
 9047SOL    HW131988   7.989   5.133   1.766 -1.7002 -0.8001 -1.1600
 9047SOL    HW231989   8.123   5.065   1.785 -0.4044  1.8650 -0.1615
 9048SOL     OW31990   3.665   1.210   5.276 -0.2821 -0.2488 -0.1081
 9048SOL    HW131991   3.623   1.289   5.309 -2.5472 -1.4152 -0.0094
 9048SOL    HW231992   3.717   1.179   5.350  0.4594  0.9951 -0.0747
 9049SOL     OW31993   9.535   0.094   9.588 -0.8179 -0.3377  0.3177
 9049SOL    HW131994   9.589   0.173   9.598 -1.9694  0.6493 -0.9339
 9049SOL    HW231995   9.457   0.112   9.640 -0.2537 -1.5259  1.6503
 9050SOL     OW31996   8.658   0.611   6.777  0.5956 -0.5259  0.6422
 9050SOL    HW131997   8.614   0.611   6.692 -2.1418 -0.1003  1.9574
 9050SOL    HW231998   8.703   0.695   6.780  0.4702 -0.4113 -0.2705
 9051SOL     OW31999   1.871   5.369   6.336  0.3199  0.0738 -0.4771
 9051SOL    HW132000   1.888   5.379   6.429  0.5917 -0.6327 -0.4438
 9051SOL    HW232001   1.932   5.430   6.294  1.8370 -1.2254 -0.2732
 9052SOL     OW32002   2.493   4.002   0.489  0.4433  0.2955  0.3950
 9052SOL    HW132003   2.416   4.035   0.535 -0.4246 -0.4196 -0.5150
 9052SOL    HW232004   2.526   3.931   0.545 -0.0972  0.0054  0.3531
 9053SOL     OW32005   5.542   5.439   9.525 -0.7396  0.4591  0.0477
 9053SOL    HW132006   5.636   5.460   9.524 -0.1088 -1.9674  0.2120
 9053SOL    HW232007   5.508   5.480   9.604  0.2848  0.9949  0.2229
 9054SOL     OW32008   7.771   9.128   5.464  0.0967 -0.1018 -0.5326
 9054SOL    HW132009   7.842   9.063   5.466  0.3414  0.0580 -2.3062
 9054SOL    HW232010   7.801   9.194   5.401 -0.2501  1.6506  1.0265
 9055SOL     OW32011   2.819   4.298   1.295 -0.3202 -0.1786 -0.0963
 9055SOL    HW132012   2.872   4.226   1.328 -0.5605 -0.1797  0.2883
 9055SOL    HW232013   2.832   4.368   1.359  0.0666  0.1899 -0.5663
 9056SOL     OW32014   4.124   6.628   6.347 -0.3725  0.1297 -0.1368
 9056SOL    HW132015   4.185   6.688   6.305 -0.5254  0.4043  0.0309
 9056SOL    HW232016   4.134   6.645   6.441  0.2516 -0.7560 -0.0368
 9057SOL     OW32017   1.138   8.315   4.913  0.1615 -0.0014 -0.2188
 9057SOL    HW132018   1.105   8.233   4.949  0.6690  0.1755  0.6807
 9057SOL    HW232019   1.232   8.311   4.926  0.2457  0.5112 -0.6208
 9058SOL     OW32020   1.913   9.429   7.830  0.7890  0.2418  0.6449
 9058SOL    HW132021   1.877   9.349   7.792  0.5989  0.3471  0.6001
 9058SOL    HW232022   1.958   9.400   7.910  1.0975  0.0359  0.3964
 9059SOL     OW32023   5.898   3.645   6.901  0.5773 -0.4676 -0.4317
 9059SOL    HW132024   5.862   3.602   6.979 -1.8764 -1.6185 -2.0855
 9059SOL    HW232025   5.981   3.599   6.884  1.1062 -0.2646  1.3706
 9060SOL     OW32026   2.517   1.769   0.493  0.0897 -0.1657 -0.4325
 9060SOL    HW132027   2.536   1.795   0.403  1.3115 -0.0573 -0.1620
 9060SOL    HW232028   2.473   1.685   0.486  0.5247 -0.3368 -1.1092
 9061SOL     OW32029   0.558   4.016   4.462 -0.3955  0.3788 -0.0343
 9061SOL    HW132030   0.584   3.944   4.406  1.8645  0.4443  0.8175
 9061SOL    HW232031   0.617   4.088   4.438 -1.3016  1.3168  0.4605
 9062SOL     OW32032   2.433   6.315   5.431 -0.9792  0.3795  0.4043
 9062SOL    HW132033   2.502   6.362   5.384 -0.6207 -0.1152  0.4275
 9062SOL    HW232034   2.419   6.235   5.380 -2.1191  0.8529 -0.0530
 9063SOL     OW32035   4.217   5.940   1.749  0.3475  0.0741 -0.3814
 9063SOL    HW132036   4.124   5.960   1.737  1.0403  3.1302 -1.4960
 9063SOL    HW232037   4.232   5.862   1.695 -1.4433 -0.2312 -0.5122
 9064SOL     OW32038   1.568   2.143   7.375 -0.0479  0.3601 -0.3066
 9064SOL    HW132039   1.654   2.115   7.404  0.3080  1.5185 -0.2122
 9064SOL    HW232040   1.584   2.196   7.297 -0.5956  1.2415  0.1620
 9065SOL     OW32041   4.872   4.415   0.746  0.2991  0.4424  0.4040
 9065SOL    HW132042   4.919   4.449   0.822  0.9668 -0.0027  0.1924
 9065SOL    HW232043   4.826   4.338   0.779 -0.1904  0.8036  0.5795
 9066SOL     OW32044   8.025   4.134   7.062 -0.1868  0.1125  0.4231
 9066SOL    HW132045   8.062   4.116   7.149  1.9010  2.0203  0.0595
 9066SOL    HW232046   8.039   4.228   7.050 -0.9185  0.0006 -1.7624
 9067SOL     OW32047   0.118   4.885   1.408  0.2502 -0.2220  0.3628
 9067SOL    HW132048   0.162   4.802   1.425 -1.4485 -0.9272  1.5242
 9067SOL    HW232049   0.077   4.874   1.322 -0.0317 -0.6336  0.5464
 9068SOL     OW32050   0.046   6.297   3.808  0.2430  0.0949  0.2809
 9068SOL    HW132051   0.039   6.330   3.718 -0.8376 -2.1430 -0.5222
 9068SOL    HW232052   0.064   6.204   3.798 -0.8051 -0.3900  2.3789
 9069SOL     OW32053   7.917   5.713   8.555 -0.2408 -0.4706  0.1091
 9069SOL    HW132054   7.836   5.690   8.601 -0.5333 -0.7076 -0.5223
 9069SOL    HW232055   7.889   5.769   8.483  0.1245 -0.7881 -0.2828
 9070SOL     OW32056   6.609   3.511   6.182 -0.2251  0.2333 -0.1459
 9070SOL    HW132057   6.526   3.498   6.228  1.2924 -0.0386  2.7880
 9070SOL    HW232058   6.662   3.564   6.243  2.6552 -1.8165 -0.6445
 9071SOL     OW32059   7.971   8.112   6.798 -0.1631 -0.0182 -0.0499
 9071SOL    HW132060   7.967   8.143   6.708 -2.2073  0.9251  0.3000
 9071SOL    HW232061   7.966   8.017   6.792 -1.6084  0.0798 -0.9379
 9072SOL     OW32062   3.056   7.228   2.788 -0.3569 -0.2446 -0.3643
 9072SOL    HW132063   3.100   7.292   2.732 -2.3370  1.5877  0.0132
 9072SOL    HW232064   3.007   7.173   2.728  0.1058 -0.3807 -0.6166
 9073SOL     OW32065   8.501   3.261   0.097  0.3785  0.8696 -0.1925
 9073SOL    HW132066   8.593   3.289   0.097  0.7932 -0.3893 -0.7520
 9073SOL    HW232067   8.484   3.237   0.006  0.2966 -1.3191  0.3457
 9074SOL     OW32068   6.378   3.951   5.071  0.2528 -0.0450  0.3862
 9074SOL    HW132069   6.423   3.928   5.153  0.9573 -0.4363 -0.0989
 9074SOL    HW232070   6.351   3.867   5.035 -1.2519  0.2076  0.8630
 9075SOL     OW32071   7.218   5.495   5.231  0.6086  0.3495  0.0811
 9075SOL    HW132072   7.291   5.551   5.204 -1.0619  2.7881  0.3077
 9075SOL    HW232073   7.193   5.529   5.317 -0.3611 -0.8907  0.3071
 9076SOL     OW32074   3.866   7.120   7.359 -0.0779 -0.7037  0.0401
 9076SOL    HW132075   3.925   7.186   7.395  0.6382 -1.0984 -0.3832
 9076SOL    HW232076   3.792   7.170   7.324  1.1319  0.0445 -1.6104
 9077SOL     OW32077   0.467   1.462   8.831  0.4658  0.4061 -0.0698
 9077SOL    HW132078   0.542   1.460   8.772  0.9269 -0.3966  0.5137
 9077SOL    HW232079   0.419   1.381   8.813 -0.1426  0.8051 -0.2800
 9078SOL     OW32080   8.671   8.647   2.674 -0.5869 -0.6202 -0.5846
 9078SOL    HW132081   8.577   8.663   2.670 -0.9995 -2.2731  1.0172
 9078SOL    HW232082   8.699   8.684   2.758  0.1168 -0.5203 -0.8496
 9079SOL     OW32083   0.962   4.899   8.616  0.8027  0.0476  0.0689
 9079SOL    HW132084   1.012   4.931   8.691  0.1420  1.4475 -0.0641
 9079SOL    HW232085   0.874   4.935   8.628  0.3940 -0.6272 -0.8019
 9080SOL     OW32086   4.908   1.102   6.654  0.0245  0.9679  0.4497
 9080SOL    HW132087   4.934   1.095   6.745 -0.2031 -0.1196  0.4565
 9080SOL    HW232088   4.851   1.179   6.650 -0.6411  0.5460  1.4009
 9081SOL     OW32089   1.540   7.071   2.453  0.0275  0.7161  0.2620
 9081SOL    HW132090   1.594   7.063   2.374 -0.3575 -0.7406  0.1132
 9081SOL    HW232091   1.462   7.118   2.424 -1.9210 -3.0274 -1.3120
 9082SOL     OW32092   5.589   9.237   7.221  0.4089  0.3837  0.2502
 9082SOL    HW132093   5.635   9.213   7.302  0.7985 -1.4626 -0.4538
 9082SOL    HW232094   5.509   9.280   7.250  1.2029  1.0276  1.5737
 9083SOL     OW32095   0.426   2.042   7.892  0.8685  0.1608 -0.2869
 9083SOL    HW132096   0.343   2.018   7.934  1.7314 -1.4122  0.6356
 9083SOL    HW232097   0.406   2.040   7.799  0.1222 -1.3885 -0.1370
 9084SOL     OW32098   0.662   0.187   4.107 -0.1605  0.1690  0.3366
 9084SOL    HW132099   0.625   0.101   4.086 -1.3469  0.5010  0.9446
 9084SOL    HW232100   0.587   0.246   4.102  0.7702  1.3145 -0.8119
 9085SOL     OW32101   5.980   5.179   6.230  0.0577  0.4551  0.1700
 9085SOL    HW132102   6.000   5.133   6.148 -4.8982  0.9422 -1.6640
 9085SOL    HW232103   5.986   5.272   6.207 -1.0618  0.5974  0.4192
 9086SOL     OW32104   4.127   3.783   6.405 -0.2553 -0.1795  0.1343
 9086SOL    HW132105   4.215   3.808   6.376 -0.0493  1.4069  1.8965
 9086SOL    HW232106   4.068   3.830   6.345  0.0059 -2.2667 -1.8801
 9087SOL     OW32107   7.321   0.933   6.343  0.2235 -0.3219  0.6844
 9087SOL    HW132108   7.313   1.001   6.410  0.0466  0.9612 -0.5895
 9087SOL    HW232109   7.286   0.973   6.264 -1.8078 -2.6055  0.3170
 9088SOL     OW32110   8.016   3.243   8.050 -0.4066  0.4591  0.0774
 9088SOL    HW132111   8.072   3.240   8.128 -0.4335  0.7550  0.1088
 9088SOL    HW232112   7.978   3.156   8.044  3.5739 -1.4285 -2.5077
 9089SOL     OW32113   1.408   5.819   4.136 -0.1666  0.2700  0.2066
 9089SOL    HW132114   1.377   5.907   4.159  1.2957  0.9818 -0.4340
 9089SOL    HW232115   1.457   5.791   4.213 -2.1035 -0.7765  1.1414
 9090SOL     OW32116   5.950   3.480   8.956  0.4312  0.0572 -0.0789
 9090SOL    HW132117   6.010   3.507   8.887  1.0093  0.0946  0.4348
 9090SOL    HW232118   5.941   3.385   8.945  0.7330  0.0244 -0.0313
 9091SOL     OW32119   0.927   6.145   6.445 -0.3525 -0.0305  0.4641
 9091SOL    HW132120   0.994   6.077   6.452 -0.5965 -0.2290  0.8779
 9091SOL    HW232121   0.958   6.201   6.373  1.4623  1.2316  2.1056
 9092SOL     OW32122   6.553   3.053   7.709 -0.5927  0.3557  0.5603
 9092SOL    HW132123   6.620   3.015   7.652 -0.3177  1.6745 -0.0373
 9092SOL    HW232124   6.507   3.115   7.653 -0.9546  0.9752  1.5254
 9093SOL     OW32125   3.946   0.205   8.170  0.2722  0.1293  0.0934
 9093SOL    HW132126   4.014   0.192   8.103 -0.5195  1.1642 -0.9449
 9093SOL    HW232127   3.910   0.117   8.184  0.1814 -0.0521 -1.1535
 9094SOL     OW32128   0.005   4.366   8.603  0.6621  0.2067  0.0785
 9094SOL    HW132129   0.032   4.283   8.642  0.1745  0.8893  1.9986
 9094SOL    HW232130  -0.015   4.345   8.512 -0.5865 -2.0480  0.7923
 9095SOL     OW32131   1.302   4.128   0.267 -0.3976  0.0429 -0.4024
 9095SOL    HW132132   1.344   4.042   0.266  0.5192  0.4033  1.7783
 9095SOL    HW232133   1.208   4.109   0.277 -0.1177 -0.7396  1.0666
 9096SOL     OW32134   5.145   2.807   0.502 -0.0234  0.2791  0.3634
 9096SOL    HW132135   5.060   2.796   0.460  0.2128  0.4264 -0.1740
 9096SOL    HW232136   5.205   2.824   0.429  0.6139 -0.6796  0.6488
 9097SOL     OW32137   8.447   9.544   8.286 -0.3969  0.1332  0.0859
 9097SOL    HW132138   8.540   9.563   8.272  0.0672  0.0955  2.5479
 9097SOL    HW232139   8.402   9.586   8.213  1.6444 -1.4106 -2.2069
 9098SOL     OW32140   3.345   2.274   4.286 -0.1541  0.8207 -0.2989
 9098SOL    HW132141   3.268   2.318   4.323  0.0198  0.9444 -0.0882
 9098SOL    HW232142   3.388   2.341   4.233  0.0261  0.8596 -0.1016
 9099SOL     OW32143   9.653   8.348   8.667 -0.3330  0.2233  0.8936
 9099SOL    HW132144   9.731   8.360   8.614 -1.0880 -2.0298 -0.8539
 9099SOL    HW232145   9.682   8.295   8.742  0.3255  1.7854  1.8011
 9100SOL     OW32146   0.060   1.200   2.461 -0.0955 -0.0779  0.1889
 9100SOL    HW132147   0.109   1.277   2.489  0.9317 -0.9701  0.9109
 9100SOL    HW232148  -0.029   1.232   2.448  0.2233  1.1531  0.8795
 9101SOL     OW32149   7.542   7.385   9.264  0.6402  0.1724  0.0613
 9101SOL    HW132150   7.568   7.463   9.313 -0.4938  0.8421 -0.3730
 9101SOL    HW232151   7.602   7.382   9.189  0.1189  1.1382 -0.4044
 9102SOL     OW32152   9.267   1.199   5.048 -0.1818 -0.7504 -0.8188
 9102SOL    HW132153   9.235   1.270   5.103 -0.0835  1.7687 -3.7027
 9102SOL    HW232154   9.188   1.149   5.026 -0.3853 -1.0939  0.6345
 9103SOL     OW32155   3.555   3.917   8.006  0.0147  0.7225 -0.5092
 9103SOL    HW132156   3.527   3.843   7.952 -2.5943 -0.4542  2.1790
 9103SOL    HW232157   3.512   3.993   7.968 -0.4132  0.2085 -1.0640
 9104SOL     OW32158   6.667   7.738   2.061  0.3114 -0.1003  0.2536
 9104SOL    HW132159   6.673   7.830   2.037 -2.2640 -0.1158 -0.7279
 9104SOL    HW232160   6.701   7.735   2.151  1.0882  1.6573  0.0696
 9105SOL     OW32161   6.307   2.859   7.103  0.1616 -0.1616  0.2966
 9105SOL    HW132162   6.290   2.764   7.104 -1.5275  0.0947 -0.1457
 9105SOL    HW232163   6.330   2.878   7.012  0.0833 -0.0881  0.2922
 9106SOL     OW32164   1.066   6.504   0.757  0.0463 -0.1073 -0.3704
 9106SOL    HW132165   1.005   6.543   0.694  0.2808  2.3313  0.7928
 9106SOL    HW232166   1.014   6.438   0.802 -1.2035  0.6370 -0.6501
 9107SOL     OW32167   5.936   9.638   5.837 -0.2562 -0.6007 -0.1463
 9107SOL    HW132168   5.898   9.653   5.924 -1.1518  1.6866 -0.8473
 9107SOL    HW232169   5.874   9.578   5.795 -0.2283 -1.1152  0.5311
 9108SOL     OW32170   5.089   3.247   1.954 -0.4096 -0.9117 -0.0652
 9108SOL    HW132171   5.148   3.230   2.028  0.5863  0.3648 -0.5176
 9108SOL    HW232172   5.131   3.205   1.879 -0.2416 -0.3015 -0.3225
 9109SOL     OW32173   9.529   4.763   7.312 -0.0323 -0.1937  0.0100
 9109SOL    HW132174   9.620   4.737   7.303 -0.4035 -1.3854 -0.4420
 9109SOL    HW232175   9.479   4.684   7.293 -1.2619  1.1227 -2.8710
 9110SOL     OW32176   4.439   7.059   3.675 -0.2197  0.3094  0.7728
 9110SOL    HW132177   4.360   7.106   3.648 -1.6605 -0.6952  2.8908
 9110SOL    HW232178   4.473   7.110   3.749 -1.8519 -1.8052  3.1552
 9111SOL     OW32179   2.581   6.457   8.584 -0.4481 -0.4969  0.0359
 9111SOL    HW132180   2.650   6.391   8.593  1.2025  1.2791  1.2196
 9111SOL    HW232181   2.601   6.501   8.502  1.1686  1.3521  1.3258
 9112SOL     OW32182   0.943   3.943   6.416 -0.2793 -0.2175 -0.1569
 9112SOL    HW132183   0.857   3.905   6.399 -0.2900 -0.5522  0.6189
 9112SOL    HW232184   0.992   3.874   6.461 -0.2159  0.5903  1.0707
 9113SOL     OW32185   7.409   8.318   3.608  0.5067  0.1085 -0.1529
 9113SOL    HW132186   7.341   8.251   3.613 -0.3753  0.8863 -1.1302
 9113SOL    HW232187   7.387   8.379   3.678 -0.4138  0.8680 -1.0654
 9114SOL     OW32188   0.437   7.608   1.366 -0.5223 -0.1705  0.4247
 9114SOL    HW132189   0.469   7.694   1.393  0.0997  0.9252 -3.1855
 9114SOL    HW232190   0.342   7.612   1.381 -0.4422  0.9717  0.7747
 9115SOL     OW32191   3.338   9.475   0.612  0.0315 -0.1936 -0.8694
 9115SOL    HW132192   3.377   9.561   0.600 -0.8701  0.0857 -2.0979
 9115SOL    HW232193   3.343   9.435   0.525 -2.0352 -0.2861 -0.9834
 9116SOL     OW32194   6.186   1.211   4.582  0.2618 -0.4586 -0.1960
 9116SOL    HW132195   6.157   1.230   4.671  3.1635  0.3832  0.6884
 9116SOL    HW232196   6.272   1.172   4.592  2.1159  2.4932 -2.6252
 9117SOL     OW32197   5.183   1.808   6.240 -0.0610 -0.4395 -0.1187
 9117SOL    HW132198   5.179   1.717   6.209 -0.2734 -0.2165 -0.7621
 9117SOL    HW232199   5.215   1.801   6.330 -0.0097 -1.1480 -0.1836
 9118SOL     OW32200   5.842   5.030   2.507  0.2700 -0.1559 -0.2809
 9118SOL    HW132201   5.799   4.986   2.433  0.3320  1.0341 -1.0592
 9118SOL    HW232202   5.928   5.055   2.473 -0.6146  2.6746 -0.7335
 9119SOL     OW32203   6.555   6.566   9.114  0.1399 -0.1020 -0.1737
 9119SOL    HW132204   6.632   6.509   9.102  0.0880 -0.1437 -0.3084
 9119SOL    HW232205   6.480   6.507   9.102  0.0868 -0.0271 -0.2085
 9120SOL     OW32206   9.463   7.418   5.326 -0.6938  0.0721  0.8229
 9120SOL    HW132207   9.541   7.418   5.269 -0.4849 -3.9491  0.8112
 9120SOL    HW232208   9.484   7.480   5.395  1.2895  1.2146 -0.6934
 9121SOL     OW32209   3.433   2.861   9.203 -0.2429 -0.0688  0.4243
 9121SOL    HW132210   3.367   2.926   9.182 -0.7609  0.4928  3.3762
 9121SOL    HW232211   3.415   2.788   9.144 -2.4375  0.7380  0.0122
 9122SOL     OW32212   2.579   0.948   3.133  0.6483  0.5595  0.4226
 9122SOL    HW132213   2.584   0.860   3.171  0.4193  0.4088  0.1070
 9122SOL    HW232214   2.485   0.966   3.126  0.6407  0.1201 -1.1101
 9123SOL     OW32215   2.607   3.577   5.945 -0.2504  0.0122 -0.2691
 9123SOL    HW132216   2.677   3.564   5.881  0.6551  0.6756  0.5520
 9123SOL    HW232217   2.620   3.507   6.009 -1.3292 -0.8247 -0.9223
 9124SOL     OW32218   0.594   8.355   1.713  0.0307 -0.3167  0.9727
 9124SOL    HW132219   0.598   8.278   1.655 -1.5970  0.3633 -0.1316
 9124SOL    HW232220   0.648   8.331   1.788  3.4550 -0.7042 -1.3930
 9125SOL     OW32221   1.112   3.850   5.971  0.1727  0.0397 -0.4530
 9125SOL    HW132222   1.174   3.894   6.030  0.1258 -1.4561  0.7603
 9125SOL    HW232223   1.027   3.858   6.014 -0.0347 -0.2344 -0.8033
 9126SOL     OW32224   6.398   5.180   6.014 -0.1740  0.0676 -0.1564
 9126SOL    HW132225   6.416   5.124   5.939 -2.4074 -1.7947  0.5888
 9126SOL    HW232226   6.413   5.124   6.090 -0.7192  1.0411  0.6940
 9127SOL     OW32227   0.022   7.820   0.401  0.1764  0.6190 -0.1069
 9127SOL    HW132228   0.047   7.786   0.486 -1.6778  0.6808  0.5012
 9127SOL    HW232229   0.051   7.753   0.339  0.3787 -0.0549  0.6967
 9128SOL     OW32230   0.181   8.849   4.111 -0.4482  0.7862 -0.6182
 9128SOL    HW132231   0.140   8.765   4.090 -1.1398  0.5943  1.2577
 9128SOL    HW232232   0.128   8.915   4.066 -1.4208  0.3693 -0.1129
 9129SOL     OW32233   8.689   6.966   5.078 -0.3221  0.5242  0.1587
 9129SOL    HW132234   8.607   6.958   5.126 -0.5784 -1.1614 -0.5305
 9129SOL    HW232235   8.741   6.890   5.104  0.9279  1.3991  0.3579
 9130SOL     OW32236   9.555   8.559   9.132 -0.2986  0.0276  0.4679
 9130SOL    HW132237   9.462   8.556   9.109 -0.2129 -0.4599  0.1724
 9130SOL    HW232238   9.570   8.476   9.178  0.6647 -1.3737 -2.1321
 9131SOL     OW32239   1.351   1.137   2.970 -0.2395  0.1419  0.0429
 9131SOL    HW132240   1.300   1.169   2.895  1.4857  1.2170 -0.7315
 9131SOL    HW232241   1.419   1.083   2.930  0.2798  0.1701  0.8827
 9132SOL     OW32242   6.686   3.811   0.921 -0.6694  0.1059 -0.0568
 9132SOL    HW132243   6.759   3.758   0.889 -0.7039  0.0215  0.0036
 9132SOL    HW232244   6.712   3.901   0.903 -0.8173  0.0440 -0.5928
 9133SOL     OW32245   1.887   5.894   7.230  0.1555  0.2099  0.1567
 9133SOL    HW132246   1.889   5.807   7.271 -0.3663  0.4542  0.7013
 9133SOL    HW232247   1.795   5.915   7.221  0.2047 -0.1720 -1.9110
 9134SOL     OW32248   8.868   3.230   9.406  0.2687 -0.0603 -0.0094
 9134SOL    HW132249   8.803   3.299   9.394  0.1714  0.0332  0.9455
 9134SOL    HW232250   8.948   3.265   9.368  0.1992  0.5654  0.4032
 9135SOL     OW32251   8.035   0.435   2.387  0.4501 -0.5782 -0.2609
 9135SOL    HW132252   7.992   0.367   2.335 -1.1199 -0.9878  1.4914
 9135SOL    HW232253   8.129   0.416   2.377  0.0772 -3.5295  0.7542
 9136SOL     OW32254   8.078   2.315   0.462  0.5082 -0.1611  0.6127
 9136SOL    HW132255   8.086   2.259   0.385  0.6956 -2.1555  2.0076
 9136SOL    HW232256   7.988   2.302   0.492  0.9624 -0.8703  1.7518
 9137SOL     OW32257   9.496   2.383   4.509  0.2780  0.4308  0.6867
 9137SOL    HW132258   9.544   2.318   4.458 -0.5960  0.8615 -0.7616
 9137SOL    HW232259   9.537   2.382   4.595  0.3917 -1.9254  0.6766
 9138SOL     OW32260   8.064   7.479   1.915  0.3756 -0.4058  0.5552
 9138SOL    HW132261   8.109   7.464   1.998 -2.2376 -0.1117  2.1279
 9138SOL    HW232262   8.015   7.399   1.899 -0.1288  0.0081 -0.0293
 9139SOL     OW32263   5.799   4.645   2.286 -0.4968 -0.3120  0.0952
 9139SOL    HW132264   5.766   4.563   2.323  0.1192 -0.3265  0.6180
 9139SOL    HW232265   5.874   4.667   2.340 -0.7202  0.6573  0.0222
 9140SOL     OW32266   9.135   7.935   4.480 -0.4775 -0.3013 -0.0932
 9140SOL    HW132267   9.054   7.976   4.509  0.3426  0.8739  0.6187
 9140SOL    HW232268   9.109   7.879   4.406 -2.3119 -1.8284  1.6033
 9141SOL     OW32269   6.594   8.896   4.002  0.8402 -0.0428 -0.0950
 9141SOL    HW132270   6.553   8.979   4.023  0.6315  0.5558 -2.5279
 9141SOL    HW232271   6.640   8.871   4.082  0.1197  1.9177  1.0031
 9142SOL     OW32272   5.270   4.241   3.152 -0.1061  0.6458 -0.2075
 9142SOL    HW132273   5.277   4.262   3.058  0.3875  0.0407 -0.3152
 9142SOL    HW232274   5.352   4.195   3.172 -0.6793 -0.1890  0.2637
 9143SOL     OW32275   5.222   6.685   6.830  0.0908  0.1485 -0.4971
 9143SOL    HW132276   5.246   6.648   6.745 -0.5465  2.2476 -1.6791
 9143SOL    HW232277   5.305   6.707   6.871  0.4161 -1.1999 -0.4146
 9144SOL     OW32278   6.681   0.596   4.969 -0.3280 -0.1100 -0.1112
 9144SOL    HW132279   6.608   0.658   4.970  1.7141  2.4916 -0.0409
 9144SOL    HW232280   6.737   0.624   5.042  1.9024 -0.4220 -1.5951
 9145SOL     OW32281   6.760   5.155   8.411 -0.1995 -0.0882  0.2151
 9145SOL    HW132282   6.830   5.146   8.347 -0.1157  0.7760  0.1796
 9145SOL    HW232283   6.745   5.066   8.443  2.3360 -0.0481  1.7566
 9146SOL     OW32284   7.317   7.336   8.709  0.1027  0.0163 -0.0190
 9146SOL    HW132285   7.361   7.252   8.722 -0.4852 -0.3579 -0.4020
 9146SOL    HW232286   7.291   7.336   8.617  0.0543  0.5944 -0.0075
 9147SOL     OW32287   4.642   6.531   9.490  0.3471 -0.3070 -0.5293
 9147SOL    HW132288   4.623   6.542   9.397 -1.4325  2.3749  0.0541
 9147SOL    HW232289   4.656   6.619   9.523 -2.9081 -0.6809  2.4555
 9148SOL     OW32290   9.688   0.423   2.714 -0.4280 -0.1645  0.3488
 9148SOL    HW132291   9.726   0.500   2.758 -0.1753  0.7247 -1.3555
 9148SOL    HW232292   9.606   0.407   2.761 -0.4349  1.0877  0.8028
 9149SOL     OW32293   2.800   0.322   9.287  0.2143 -0.6579 -0.5482
 9149SOL    HW132294   2.750   0.343   9.366  0.6370 -1.6942  0.0114
 9149SOL    HW232295   2.868   0.389   9.284  0.0751 -0.4936 -0.1438
 9150SOL     OW32296   1.417   0.331   5.286 -0.1568  0.0695 -0.2320
 9150SOL    HW132297   1.334   0.316   5.332 -0.3887  2.0353  0.0962
 9150SOL    HW232298   1.480   0.274   5.330 -1.3159 -1.4891 -0.5160
 9151SOL     OW32299   6.931   7.090   2.417  0.2732  0.0826  0.2382
 9151SOL    HW132300   6.871   7.154   2.380  0.4607 -0.3295 -0.8243
 9151SOL    HW232301   6.877   7.038   2.478  0.1432  1.2593  1.1554
 9152SOL     OW32302   8.834   6.082   5.892 -0.2311  0.0866  0.6524
 9152SOL    HW132303   8.889   6.066   5.815 -3.2967 -1.2957 -1.4540
 9152SOL    HW232304   8.840   6.001   5.943 -1.3369 -0.6371 -0.3223
 9153SOL     OW32305   4.329   7.209   0.034 -0.0003  0.5436  0.2442
 9153SOL    HW132306   4.249   7.187   0.083  0.6213 -0.4097  0.8675
 9153SOL    HW232307   4.394   7.147   0.066  1.3801  2.1742  0.7661
 9154SOL     OW32308   2.938   0.311   1.956 -0.1281 -0.1959  0.2594
 9154SOL    HW132309   2.959   0.296   1.864 -2.3851  0.8507 -0.5095
 9154SOL    HW232310   3.002   0.377   1.984 -0.2773  0.5393 -1.0117
 9155SOL     OW32311   7.864   3.092   4.667  0.3720  0.4337  0.6329
 9155SOL    HW132312   7.855   3.107   4.573  0.0389  1.8821  0.8644
 9155SOL    HW232313   7.877   2.997   4.675  0.7810  0.3246 -0.8850
 9156SOL     OW32314   9.324   7.607   8.220  0.0319  0.7532  0.0451
 9156SOL    HW132315   9.318   7.642   8.131 -0.5427  0.6540  0.0410
 9156SOL    HW232316   9.384   7.533   8.212  0.0059  0.7600 -0.2518
 9157SOL     OW32317   8.414   1.635   4.402 -0.3306 -0.5244  0.1290
 9157SOL    HW132318   8.399   1.643   4.308  1.2985 -0.1734 -0.1314
 9157SOL    HW232319   8.508   1.648   4.413 -0.1514 -2.5465  1.6009
 9158SOL     OW32320   7.566   8.381   8.224  0.3406 -0.0853  0.1347
 9158SOL    HW132321   7.568   8.471   8.191  1.3064  0.0381  0.4761
 9158SOL    HW232322   7.524   8.387   8.310 -0.7823 -0.1717 -0.3949
 9159SOL     OW32323   6.632   2.609   6.185  0.3194  0.3045 -0.1529
 9159SOL    HW132324   6.725   2.597   6.207  0.9455  2.4700 -1.3443
 9159SOL    HW232325   6.591   2.633   6.268  1.0550  0.4492  0.1792
 9160SOL     OW32326   9.693   3.917   5.764  0.2968  0.6159  0.1604
 9160SOL    HW132327   9.729   4.000   5.733  1.4728  1.2372  2.8983
 9160SOL    HW232328   9.621   3.942   5.822  0.7219 -0.2522  1.0930
 9161SOL     OW32329   2.281   8.072   4.053  0.4678 -0.0857 -0.3279
 9161SOL    HW132330   2.351   8.067   3.987  0.4874 -1.1088 -0.2501
 9161SOL    HW232331   2.213   8.014   4.019  0.1925 -0.0877  0.2251
 9162SOL     OW32332   2.239   6.780   4.191  0.3602  0.0443 -0.6120
 9162SOL    HW132333   2.311   6.717   4.186  0.3279 -0.0259 -0.1942
 9162SOL    HW232334   2.184   6.758   4.116 -0.4794 -1.4513  0.3830
 9163SOL     OW32335   2.670   0.428   5.295 -0.4804  0.0478  0.0257
 9163SOL    HW132336   2.705   0.488   5.230  0.0676  0.4210  0.6551
 9163SOL    HW232337   2.643   0.483   5.368  0.9842 -0.5074  1.0480
 9164SOL     OW32338   9.330   8.986   2.956  0.1913 -0.1738  0.2816
 9164SOL    HW132339   9.415   9.022   2.932  0.4770 -1.7833 -1.3380
 9164SOL    HW232340   9.322   8.906   2.904 -2.1981 -0.2221  0.5928
 9165SOL     OW32341   1.584   1.076   6.923  0.6492 -0.1498 -0.5163
 9165SOL    HW132342   1.555   1.153   6.875  1.1601  0.1963 -0.2788
 9165SOL    HW232343   1.530   1.076   7.002  0.4422 -0.2062 -0.6562
 9166SOL     OW32344   9.103   5.705   2.610 -0.3677  0.3650  0.0153
 9166SOL    HW132345   9.085   5.627   2.661 -0.1825  0.6770  0.5697
 9166SOL    HW232346   9.197   5.721   2.622 -0.3430  0.5000 -0.3381
 9167SOL     OW32347   7.593   4.569   6.590  0.0659 -0.1173  0.0176
 9167SOL    HW132348   7.629   4.564   6.678  0.6921 -0.1280 -0.2307
 9167SOL    HW232349   7.500   4.586   6.602 -0.3039 -2.3442  0.7319
 9168SOL     OW32350   4.736   7.877   9.645  0.0369 -0.2417 -0.0462
 9168SOL    HW132351   4.760   7.806   9.586  0.9009 -0.4379  0.5218
 9168SOL    HW232352   4.814   7.932   9.650 -0.6473  0.7930 -0.5360
 9169SOL     OW32353   9.519   5.219   6.030  0.0532  0.0531  0.6312
 9169SOL    HW132354   9.580   5.214   6.104  1.4483 -2.1297 -0.5905
 9169SOL    HW232355   9.572   5.250   5.957 -1.1064  1.2942  0.2735
 9170SOL     OW32356   8.023   4.050   7.743 -0.8323  0.3609 -0.1292
 9170SOL    HW132357   8.106   4.095   7.726  0.0883 -1.0265  0.5131
 9170SOL    HW232358   8.046   3.980   7.803 -2.3167 -0.6537 -0.6986
 9171SOL     OW32359   5.782   2.953   8.847  0.4877  0.1967  0.2143
 9171SOL    HW132360   5.691   2.969   8.871  0.2403  0.7903 -1.0681
 9171SOL    HW232361   5.832   3.014   8.902  0.0323  0.6290  0.1546
 9172SOL     OW32362   6.135   8.530   8.973 -0.1198 -0.3779  0.2016
 9172SOL    HW132363   6.045   8.508   8.947 -0.4145  0.6352  0.3208
 9172SOL    HW232364   6.189   8.470   8.922 -0.7579  0.5561 -1.6964
 9173SOL     OW32365   0.214   8.016   2.399  0.5289  0.4497  0.3337
 9173SOL    HW132366   0.245   7.953   2.464  0.9203 -0.7056 -0.9053
 9173SOL    HW232367   0.259   7.991   2.318  0.1339  1.8871 -0.3766
 9174SOL     OW32368   6.665   3.546   5.444 -0.0081  0.1897 -0.1627
 9174SOL    HW132369   6.716   3.513   5.370  1.3560  2.2148 -0.1912
 9174SOL    HW232370   6.683   3.484   5.514  1.8885  0.4012 -0.4099
 9175SOL     OW32371   3.327   2.099   5.206 -0.3845 -0.1873  0.2600
 9175SOL    HW132372   3.406   2.153   5.210 -0.7190  0.4995 -1.6376
 9175SOL    HW232373   3.262   2.147   5.257  0.0231 -0.0889  0.7012
 9176SOL     OW32374   1.910   6.817   3.500  0.4602  0.0591  0.8365
 9176SOL    HW132375   1.893   6.723   3.489 -0.0990  0.0634  1.5380
 9176SOL    HW232376   1.823   6.855   3.516  0.7886  0.5559  1.4770
 9177SOL     OW32377   7.275   6.597   5.132 -0.4085  0.1706  0.1042
 9177SOL    HW132378   7.215   6.563   5.199  0.8968 -1.2212  0.6240
 9177SOL    HW232379   7.265   6.692   5.136 -2.0357  0.0037  0.6693
 9178SOL     OW32380   1.119   1.576   5.518 -0.3943  0.4910 -0.3238
 9178SOL    HW132381   1.119   1.618   5.604  0.2328  0.7202 -0.4299
 9178SOL    HW232382   1.136   1.647   5.456 -1.3415  0.4158 -0.6923
 9179SOL     OW32383   2.049   3.837   9.219  0.0492 -0.2350 -0.3038
 9179SOL    HW132384   2.088   3.909   9.269 -0.2769 -0.9254  0.9825
 9179SOL    HW232385   2.118   3.771   9.214 -0.1412 -0.4431 -0.1842
 9180SOL     OW32386   8.773   0.214   9.444  0.5869  0.2054  0.0470
 9180SOL    HW132387   8.770   0.124   9.412  1.9800  0.2188 -0.2080
 9180SOL    HW232388   8.767   0.207   9.539 -0.9692 -0.0222 -0.0490
 9181SOL     OW32389   1.671   4.987   5.274  0.3582  0.2708 -0.3997
 9181SOL    HW132390   1.633   5.015   5.191  0.4343 -0.7017 -0.7716
 9181SOL    HW232391   1.645   4.895   5.283  1.0730  0.1224  0.2314
 9182SOL     OW32392   2.119   4.886   9.696 -0.1590 -0.0888  0.4246
 9182SOL    HW132393   2.117   4.826   9.621 -0.6697 -0.2206  0.5461
 9182SOL    HW232394   2.212   4.896   9.715 -0.0923 -2.3579  1.6254
 9183SOL     OW32395   5.460   6.487   6.171  0.4026 -0.2631  0.6652
 9183SOL    HW132396   5.520   6.513   6.101  0.5393  0.2406  0.9600
 9183SOL    HW232397   5.494   6.532   6.248 -0.1934 -0.1986  0.8911
 9184SOL     OW32398   5.861   2.967   7.512  0.0363 -0.3113  0.8024
 9184SOL    HW132399   5.780   2.970   7.563  0.2093 -2.4686  1.2852
 9184SOL    HW232400   5.841   2.908   7.439  0.3722  1.2631 -0.6138
 9185SOL     OW32401   8.370   8.417   1.776 -0.0088 -0.0694 -0.2311
 9185SOL    HW132402   8.328   8.488   1.727 -0.4009  0.0795  0.3110
 9185SOL    HW232403   8.388   8.455   1.863 -0.8045 -0.8260  0.2763
 9186SOL     OW32404   7.620   0.673   1.914  0.9123  0.9068 -0.5550
 9186SOL    HW132405   7.621   0.732   1.838  1.5360  0.9351 -0.5225
 9186SOL    HW232406   7.691   0.611   1.898  0.1180 -0.0048 -0.7080
 9187SOL     OW32407   2.050   2.313   8.090 -0.7554 -0.1394 -0.0394
 9187SOL    HW132408   1.986   2.366   8.043  0.6477  1.2516 -0.4996
 9187SOL    HW232409   2.101   2.269   8.021  1.2340  1.8199  0.0521
 9188SOL     OW32410   3.530   7.066   4.029  0.2587 -0.0938 -0.5091
 9188SOL    HW132411   3.584   7.142   4.008  2.2538 -1.2173  0.2389
 9188SOL    HW232412   3.593   6.994   4.040 -1.5504 -1.8835 -1.2540
 9189SOL     OW32413   5.541   9.080   5.375  0.0868 -0.4087  0.1954
 9189SOL    HW132414   5.512   9.125   5.295 -1.3485 -1.6689 -0.0529
 9189SOL    HW232415   5.633   9.104   5.384 -0.2074  1.2569 -0.7880
 9190SOL     OW32416   5.377   6.384   9.716 -0.1509 -0.1685 -0.3511
 9190SOL    HW132417   5.333   6.460   9.678 -0.7945 -0.8933 -1.0644
 9190SOL    HW232418   5.308   6.320   9.730  0.8913 -2.1748 -3.5031
 9191SOL     OW32419   7.096   2.357   9.480  0.3464 -0.4660  0.4219
 9191SOL    HW132420   7.114   2.372   9.572  0.4872 -1.3501  0.5521
 9191SOL    HW232421   7.133   2.433   9.435 -1.1901  0.8108  1.2089
 9192SOL     OW32422   2.596   4.662   3.242  0.3483  0.0710 -0.2801
 9192SOL    HW132423   2.608   4.740   3.188 -0.0141 -1.3252 -2.4735
 9192SOL    HW232424   2.684   4.627   3.253  0.3662  0.0757 -0.4044
 9193SOL     OW32425   3.994   3.165   7.681 -0.1570  0.0735  0.0976
 9193SOL    HW132426   4.035   3.078   7.682 -2.3939 -1.0949 -1.0811
 9193SOL    HW232427   3.962   3.174   7.592 -2.1791  0.9927  0.8736
 9194SOL     OW32428   9.723   4.374   7.964 -0.0031  0.2883 -0.3552
 9194SOL    HW132429   9.678   4.427   8.030  2.0592  1.2835  0.3236
 9194SOL    HW232430   9.759   4.438   7.903 -0.4948 -0.5526 -1.5639
 9195SOL     OW32431   5.569   2.236   0.955  0.1411  0.2876 -0.3660
 9195SOL    HW132432   5.644   2.262   1.008  1.4747 -3.2277 -0.2657
 9195SOL    HW232433   5.606   2.181   0.886 -2.2430 -0.8145 -0.8754
 9196SOL     OW32434   9.410   1.248   7.099 -0.5013  0.1856 -0.4086
 9196SOL    HW132435   9.389   1.296   7.179  1.5328  0.8665 -0.2221
 9196SOL    HW232436   9.416   1.157   7.127  0.5255  0.4551  0.3342
 9197SOL     OW32437   2.347   3.339   7.764  0.0289  0.2508  0.4341
 9197SOL    HW132438   2.272   3.382   7.723 -0.7814  0.0062  1.5885
 9197SOL    HW232439   2.400   3.411   7.799  0.0685  0.4009  0.0766
 9198SOL     OW32440   1.661   1.688   6.095  0.3162  0.3359  0.2885
 9198SOL    HW132441   1.696   1.665   6.009  0.0528  0.1177  0.2358
 9198SOL    HW232442   1.728   1.660   6.157  0.0857 -0.4303  0.2118
 9199SOL     OW32443   3.668   3.219   2.845 -0.1369  0.9926 -0.1733
 9199SOL    HW132444   3.677   3.197   2.938 -1.7649  0.3924 -0.1230
 9199SOL    HW232445   3.745   3.182   2.804 -1.5888 -2.9329  0.2630
 9200SOL     OW32446   1.553   8.505   6.854  0.2317  0.4288  0.3295
 9200SOL    HW132447   1.622   8.441   6.875  0.0975  0.1210 -0.1660
 9200SOL    HW232448   1.545   8.557   6.934  0.2787 -0.2302  0.7733
 9201SOL     OW32449   6.764   8.548   5.970 -0.3043 -0.4192  0.2937
 9201SOL    HW132450   6.753   8.548   5.874 -0.4289 -0.5419  0.3075
 9201SOL    HW232451   6.856   8.527   5.983 -0.1060  0.3391  0.1832
 9202SOL     OW32452   0.728   4.236   7.336 -0.5339  0.1043 -0.0976
 9202SOL    HW132453   0.704   4.247   7.244  0.0642  1.6274 -0.0899
 9202SOL    HW232454   0.808   4.184   7.334 -0.9389 -0.5301 -0.3761
 9203SOL     OW32455   2.650   7.371   2.250 -0.0702  0.8664 -0.1045
 9203SOL    HW132456   2.559   7.350   2.225  0.4036 -0.3388 -0.9321
 9203SOL    HW232457   2.689   7.404   2.169  0.9370 -1.1588 -0.5019
 9204SOL     OW32458   2.323   6.339   5.096  0.0084  0.3986  0.0275
 9204SOL    HW132459   2.395   6.392   5.064  0.0262  0.5221  0.2729
 9204SOL    HW232460   2.247   6.397   5.095  0.0724  0.4981  0.5020
 9205SOL     OW32461   7.745   6.224   2.460 -0.7479  0.7514 -0.0106
 9205SOL    HW132462   7.740   6.318   2.442 -0.8244  0.8359  0.4493
 9205SOL    HW232463   7.713   6.215   2.549  2.9922  0.8147  1.5293
 9206SOL     OW32464   0.480   1.556   2.329  0.4198 -0.0769 -0.6584
 9206SOL    HW132465   0.399   1.559   2.380  1.0944  4.2722  0.5337
 9206SOL    HW232466   0.490   1.644   2.293  3.8597 -0.8590 -2.0822
 9207SOL     OW32467   0.500   7.161   7.588 -0.2016 -1.0109  1.0932
 9207SOL    HW132468   0.499   7.144   7.682  0.8381  1.5249  1.6508
 9207SOL    HW232469   0.590   7.141   7.561  0.4213  1.1176  1.3463
 9208SOL     OW32470   1.448   2.527   2.731 -0.2921 -0.4957  0.4375
 9208SOL    HW132471   1.365   2.499   2.693 -0.0566 -0.3647 -0.1851
 9208SOL    HW232472   1.513   2.467   2.695  0.0299  0.0520  0.0902
 9209SOL     OW32473   8.303   1.994   9.017  0.8330 -0.0979 -0.3040
 9209SOL    HW132474   8.362   2.068   9.033 -2.7746  2.4229  3.5541
 9209SOL    HW232475   8.293   1.952   9.102 -0.9858 -1.9800 -1.3511
 9210SOL     OW32476   0.646   4.072   5.812 -0.0922  0.1355 -0.5270
 9210SOL    HW132477   0.595   4.005   5.857 -1.4417  1.5877  0.2015
 9210SOL    HW232478   0.712   4.099   5.875 -1.6556  1.7994  0.5035
 9211SOL     OW32479   6.080   4.651   8.277 -0.4360  0.7121 -0.3631
 9211SOL    HW132480   6.110   4.741   8.268  0.5650  0.5563  1.0112
 9211SOL    HW232481   6.152   4.606   8.322 -1.7710 -0.2335  0.9517
 9212SOL     OW32482   3.315   1.100   3.772 -0.0600 -0.2021  0.1733
 9212SOL    HW132483   3.220   1.098   3.772 -0.1789  2.0805  1.7114
 9212SOL    HW232484   3.339   1.107   3.865  1.6601 -1.4095 -0.1302
 9213SOL     OW32485   8.272   2.119   3.885 -0.4172  0.3183 -0.0442
 9213SOL    HW132486   8.211   2.084   3.951  0.3098  0.1274  0.5327
 9213SOL    HW232487   8.335   2.170   3.935  1.0106 -1.0200 -0.3944
 9214SOL     OW32488   0.042   3.888   5.292  0.0767  0.2667 -0.1102
 9214SOL    HW132489   0.065   3.811   5.343 -0.3832  1.3031  1.7370
 9214SOL    HW232490   0.061   3.863   5.201  0.5628 -1.7603  0.4996
 9215SOL     OW32491   2.630   7.088   5.276  0.6297 -0.1919  0.1872
 9215SOL    HW132492   2.585   7.046   5.349  1.2065 -0.1005  0.5929
 9215SOL    HW232493   2.598   7.041   5.199  0.7991 -0.9623  0.5816
 9216SOL     OW32494   2.497   3.093   1.679  0.3273 -0.5219  0.1651
 9216SOL    HW132495   2.477   3.172   1.628  2.0607 -0.3054 -0.2450
 9216SOL    HW232496   2.476   3.021   1.620  0.1795 -0.3242 -0.0260
 9217SOL     OW32497   0.821   7.660   9.453 -0.2247 -0.0164  0.5200
 9217SOL    HW132498   0.816   7.571   9.418 -0.1996 -0.1923  0.9508
 9217SOL    HW232499   0.913   7.671   9.478 -0.0962  0.3542 -0.0957
 9218SOL     OW32500   3.467   1.653   7.269  0.3173 -0.1738 -0.8486
 9218SOL    HW132501   3.472   1.597   7.346  0.1203  1.9245  0.7506
 9218SOL    HW232502   3.548   1.635   7.221  0.6970 -1.1228  0.1039
 9219SOL     OW32503   5.140   6.120   4.674 -0.4282  0.9227  0.2728
 9219SOL    HW132504   5.188   6.170   4.740 -1.8879  1.2536  1.1355
 9219SOL    HW232505   5.106   6.044   4.722  1.7450 -0.9815 -1.0164
 9220SOL     OW32506   3.148   2.229   9.748  0.0435 -0.4148 -0.7731
 9220SOL    HW132507   3.113   2.286   9.816  0.7423 -0.8840 -0.0056
 9220SOL    HW232508   3.222   2.278   9.711 -1.0416  0.3429 -2.0219
 9221SOL     OW32509   1.006   2.449   1.980  0.2473  0.4991  0.2926
 9221SOL    HW132510   1.056   2.528   2.001 -0.4605  0.9600  0.2646
 9221SOL    HW232511   0.918   2.481   1.962  0.1432 -0.2078 -0.4959
 9222SOL     OW32512   7.820   3.848   5.053 -0.1298 -0.0374 -0.1502
 9222SOL    HW132513   7.839   3.756   5.036  0.9886  0.1221  0.1508
 9222SOL    HW232514   7.906   3.888   5.067 -0.6342  0.9541  0.2137
 9223SOL     OW32515   5.955   5.893   5.112  0.3939 -0.5407  0.1891
 9223SOL    HW132516   5.929   5.805   5.140  0.1242  0.5214  3.7546
 9223SOL    HW232517   5.873   5.943   5.111  0.6432 -0.1203 -1.0664
 9224SOL     OW32518   3.984   0.781   1.524 -0.1914  0.3423  0.3799
 9224SOL    HW132519   3.899   0.738   1.512 -0.6130  1.1535  0.4261
 9224SOL    HW232520   4.046   0.708   1.532 -0.9587 -0.2635  0.9553
 9225SOL     OW32521   9.435   3.572   8.077  0.3041 -0.1715  0.2744
 9225SOL    HW132522   9.436   3.661   8.112  2.4753 -0.6129  1.5160
 9225SOL    HW232523   9.385   3.522   8.141 -0.3787  0.0275 -0.0990
 9226SOL     OW32524   7.508   5.138   6.900  0.2364  0.5946 -0.4816
 9226SOL    HW132525   7.427   5.188   6.910  0.5067  0.7772  1.1759
 9226SOL    HW232526   7.482   5.061   6.849 -0.8719  0.8849 -0.3893
 9227SOL     OW32527   7.731   1.776   0.072  0.1362 -0.2223 -0.1698
 9227SOL    HW132528   7.739   1.681   0.084  1.0981 -0.1436 -0.1086
 9227SOL    HW232529   7.652   1.799   0.120 -0.2783 -1.0355 -0.4326
 9228SOL     OW32530   6.929   4.842   0.979  0.5847 -0.0220  1.1048
 9228SOL    HW132531   6.890   4.929   0.969 -0.1332 -0.2344  1.8798
 9228SOL    HW232532   6.918   4.801   0.893  1.1974  0.7506  0.6454
 9229SOL     OW32533   7.178   9.201   7.840 -0.5119 -0.6293 -0.5048
 9229SOL    HW132534   7.184   9.122   7.786 -1.1842 -0.4322 -0.8813
 9229SOL    HW232535   7.085   9.223   7.839 -0.7963 -1.4518  1.9516
 9230SOL     OW32536   7.668   7.447   9.535  0.3057  0.5586  0.3980
 9230SOL    HW132537   7.724   7.507   9.584  0.7225 -0.1940  0.8687
 9230SOL    HW232538   7.594   7.500   9.507  0.6522  1.2805  0.8238
 9231SOL     OW32539   1.247   5.967   8.961  0.1803  0.0914  0.5484
 9231SOL    HW132540   1.187   6.026   8.914 -0.3193 -1.1374 -0.4260
 9231SOL    HW232541   1.192   5.893   8.985  0.7651  0.0751  1.8928
 9232SOL     OW32542   8.786   5.086   8.004  0.0374  0.3545 -0.6843
 9232SOL    HW132543   8.798   4.995   8.031  2.7515  0.6826 -0.4486
 9232SOL    HW232544   8.859   5.132   8.046 -1.6354  2.7774 -0.2605
 9233SOL     OW32545   4.217   2.792   1.357 -0.0248 -0.0365 -0.4854
 9233SOL    HW132546   4.282   2.830   1.297 -0.6187  0.0290 -1.0987
 9233SOL    HW232547   4.198   2.706   1.320  1.7493 -1.2482  1.2250
 9234SOL     OW32548   8.413   1.966   5.829 -0.2962  0.2300 -0.0475
 9234SOL    HW132549   8.464   2.033   5.874  1.3653 -1.0825  0.0885
 9234SOL    HW232550   8.464   1.886   5.837 -3.0792 -1.5500  1.4387
 9235SOL     OW32551   9.162   4.495   2.116  0.4144 -0.2998 -0.2821
 9235SOL    HW132552   9.091   4.432   2.124  0.8213 -0.7787 -0.3902
 9235SOL    HW232553   9.231   4.462   2.174  0.1616  0.7179  0.6388
 9236SOL     OW32554   0.880   8.089   8.508  0.0414 -0.2047  0.0202
 9236SOL    HW132555   0.809   8.063   8.449 -0.6603  0.3433  0.5988
 9236SOL    HW232556   0.959   8.049   8.471 -0.5188 -0.5481 -0.8186
 9237SOL     OW32557   0.315   2.390   3.931 -0.1143 -0.4222  0.1874
 9237SOL    HW132558   0.326   2.299   3.903 -0.0956 -0.6344  0.8790
 9237SOL    HW232559   0.276   2.433   3.855  1.1786 -0.6797 -0.6578
 9238SOL     OW32560   0.418   6.979   4.207  0.1531 -0.0945  0.2025
 9238SOL    HW132561   0.368   7.059   4.197 -1.3013 -0.9549  0.3076
 9238SOL    HW232562   0.464   6.990   4.291  0.8952  1.0791 -0.3348
 9239SOL     OW32563   5.255   5.193   8.754 -0.7424 -0.1160  0.2226
 9239SOL    HW132564   5.290   5.249   8.823  1.2911 -1.2568  0.1978
 9239SOL    HW232565   5.242   5.252   8.679  0.2275  0.5306  0.5477
 9240SOL     OW32566   5.141   5.733   8.821 -0.4731 -0.0723  0.4727
 9240SOL    HW132567   5.049   5.726   8.797 -1.0195 -0.5867  2.5321
 9240SOL    HW232568   5.143   5.716   8.915  1.8898 -1.3250  0.2758
 9241SOL     OW32569   3.105   8.756   0.237  0.2622 -0.8656  0.5225
 9241SOL    HW132570   3.167   8.827   0.223 -0.1580 -0.8026 -1.2104
 9241SOL    HW232571   3.085   8.723   0.149  0.2780 -3.0028  1.2499
 9242SOL     OW32572   8.599   5.054   5.201 -0.2805 -0.7606 -0.0085
 9242SOL    HW132573   8.615   5.005   5.121  1.2256 -0.2651 -0.0324
 9242SOL    HW232574   8.664   5.021   5.263 -0.6796 -0.3350  0.6532
 9243SOL     OW32575   4.765   7.204   7.398 -0.2622 -0.3960 -0.0999
 9243SOL    HW132576   4.793   7.249   7.478  1.1477  2.2364 -1.9256
 9243SOL    HW232577   4.673   7.230   7.387  0.1542  1.0103 -0.4189
 9244SOL     OW32578   2.243   1.850   6.500  0.0022 -0.1785  0.1699
 9244SOL    HW132579   2.205   1.828   6.415  1.9851  0.9899 -1.1058
 9244SOL    HW232580   2.200   1.791   6.562 -2.2252 -0.3963 -1.4669
 9245SOL     OW32581   5.918   3.984   2.508  0.2914 -0.2081 -0.3880
 9245SOL    HW132582   6.007   4.016   2.497  0.1229  1.1819  1.8411
 9245SOL    HW232583   5.913   3.907   2.451  2.7810 -0.0923 -0.8466
 9246SOL     OW32584   1.254   0.959   1.511 -0.0287  0.0760  0.2595
 9246SOL    HW132585   1.272   1.006   1.430 -1.2410  0.3755  0.1347
 9246SOL    HW232586   1.292   1.013   1.580  0.0869  0.3565 -0.0227
 9247SOL     OW32587   2.194   7.489   8.340  0.1728 -0.0080 -0.0889
 9247SOL    HW132588   2.174   7.568   8.291  0.6370 -0.0546 -0.3562
 9247SOL    HW232589   2.207   7.422   8.273 -0.7753 -0.4453  0.1538
 9248SOL     OW32590   8.768   0.992   1.776  0.3126  0.4747 -0.0703
 9248SOL    HW132591   8.696   0.972   1.716  0.0277 -0.0108  0.4299
 9248SOL    HW232592   8.825   0.916   1.771  0.6733  0.7545 -0.2801
 9249SOL     OW32593   6.667   8.805   5.940 -0.2576  0.2978  0.2829
 9249SOL    HW132594   6.700   8.723   5.977  2.6868  0.6517 -1.3100
 9249SOL    HW232595   6.609   8.778   5.869  2.8585 -0.5996 -2.1126
 9250SOL     OW32596   3.528   1.621   5.672 -0.6400 -0.2411 -0.2485
 9250SOL    HW132597   3.597   1.554   5.673 -1.0732 -0.6802  0.3385
 9250SOL    HW232598   3.489   1.617   5.759 -0.6455  0.8116 -0.1938
 9251SOL     OW32599   0.121   5.249   1.369 -0.2773  0.3232 -0.1012
 9251SOL    HW132600   0.134   5.169   1.420 -1.3138 -0.9624 -1.7543
 9251SOL    HW232601   0.030   5.274   1.386 -0.1996  0.7018 -0.2287
 9252SOL     OW32602   6.439   5.349   6.302  0.8390  0.0647  0.1209
 9252SOL    HW132603   6.499   5.419   6.330 -0.5950  1.6153 -0.4714
 9252SOL    HW232604   6.385   5.390   6.235 -0.1037 -1.6409 -0.2133
 9253SOL     OW32605   5.293   6.797   1.256  1.1035  0.6284 -0.8784
 9253SOL    HW132606   5.288   6.812   1.162 -0.6445 -0.0510 -0.9357
 9253SOL    HW232607   5.275   6.703   1.266 -0.7427  1.0410  0.2071
 9254SOL     OW32608   8.441   5.624   5.592  0.5938  0.3035  0.0707
 9254SOL    HW132609   8.418   5.708   5.553  1.6309  0.7449  0.3878
 9254SOL    HW232610   8.427   5.636   5.686  1.6210  0.4219  0.2152
 9255SOL     OW32611   6.695   8.138   4.068  0.1134  0.4194 -0.1616
 9255SOL    HW132612   6.627   8.081   4.032  1.2774 -1.0538 -0.1596
 9255SOL    HW232613   6.742   8.171   3.991 -0.9663  1.9548 -0.1927
 9256SOL     OW32614   2.620   0.990   5.833  0.3110  0.6224 -0.9131
 9256SOL    HW132615   2.598   1.044   5.909  0.3896  0.8414 -1.0443
 9256SOL    HW232616   2.538   0.986   5.783 -0.0420 -0.4212 -0.2748
 9257SOL     OW32617   5.332   5.834   3.204 -0.1269  0.3706 -0.3521
 9257SOL    HW132618   5.396   5.770   3.234 -1.0690 -1.3522 -1.8498
 9257SOL    HW232619   5.302   5.878   3.284  1.7872  0.1796  0.5179
 9258SOL     OW32620   9.472   2.316   1.716  0.5901 -0.3036  0.1636
 9258SOL    HW132621   9.402   2.261   1.753  1.7061 -1.6156  0.4180
 9258SOL    HW232622   9.504   2.367   1.790  1.4933 -1.4749  0.6042
 9259SOL     OW32623   0.131   6.659   7.730 -0.1386 -0.2060 -0.2287
 9259SOL    HW132624   0.141   6.566   7.709  0.1343 -0.1988 -0.1366
 9259SOL    HW232625   0.214   6.698   7.704 -0.0104 -0.0986  0.3502
 9260SOL     OW32626   0.621   4.606   3.098 -0.5867 -0.0385 -0.2092
 9260SOL    HW132627   0.641   4.585   3.007 -0.2245  0.5939 -0.2775
 9260SOL    HW232628   0.525   4.601   3.104 -0.5338 -1.4023 -0.2917
 9261SOL     OW32629   3.277   0.257   4.330 -0.1899 -0.2896  0.3170
 9261SOL    HW132630   3.351   0.272   4.270  1.5560 -0.5241  2.2721
 9261SOL    HW232631   3.246   0.170   4.308  0.4790 -0.4059 -0.2151
 9262SOL     OW32632   6.409   3.280   7.595 -0.1633 -0.4619 -0.9539
 9262SOL    HW132633   6.476   3.305   7.659 -1.2301 -1.0110  0.4394
 9262SOL    HW232634   6.369   3.363   7.569  0.1379 -0.2515 -0.7598
 9263SOL     OW32635   5.623   1.942   2.032 -0.1039  0.1211 -0.2821
 9263SOL    HW132636   5.598   1.851   2.047 -0.7664  0.0642 -1.6063
 9263SOL    HW232637   5.543   1.992   2.047 -0.1995  0.2891 -1.2968
 9264SOL     OW32638   1.508   4.572   3.804 -0.2842  0.0819 -0.0396
 9264SOL    HW132639   1.419   4.566   3.769 -0.2405  0.6071 -0.2374
 9264SOL    HW232640   1.559   4.514   3.747 -0.9783 -2.4633  1.7266
 9265SOL     OW32641   4.084   5.900   0.102 -0.4364  0.2185 -0.0763
 9265SOL    HW132642   4.143   5.933   0.170  2.9830  0.8236 -3.0149
 9265SOL    HW232643   4.029   5.976   0.080  0.0204  0.7106  0.4351
 9266SOL     OW32644   5.433   7.391   4.714 -0.0591  0.4003 -0.0823
 9266SOL    HW132645   5.509   7.385   4.773 -0.5050  0.6375  0.5254
 9266SOL    HW232646   5.445   7.319   4.652  0.1496 -0.1785  0.6167
 9267SOL     OW32647   6.632   1.301   1.488  0.1853  0.6008  0.4197
 9267SOL    HW132648   6.685   1.262   1.419 -1.4775 -2.4417  0.7228
 9267SOL    HW232649   6.612   1.389   1.456  0.8440 -0.1393 -2.2163
 9268SOL     OW32650   8.877   9.153   6.559 -0.7285  0.4896  0.1196
 9268SOL    HW132651   8.900   9.069   6.519  0.4630  0.4419  0.8363
 9268SOL    HW232652   8.908   9.146   6.650  0.0848  1.9453  0.0056
 9269SOL     OW32653   6.070   1.086   0.596  0.0740  0.9911 -0.7023
 9269SOL    HW132654   6.012   1.118   0.527  0.3043  1.5628 -0.6342
 9269SOL    HW232655   6.102   1.165   0.640 -0.2870  0.6256  0.2452
 9270SOL     OW32656   1.032   3.720   3.212  0.0464  0.1583 -0.2624
 9270SOL    HW132657   0.956   3.678   3.252 -0.3869  0.7885 -0.4037
 9270SOL    HW232658   0.995   3.783   3.150  0.6858  0.3226 -0.4873
 9271SOL     OW32659   7.837   5.540   6.715  0.3410  0.1752 -0.3554
 9271SOL    HW132660   7.769   5.473   6.728 -1.7595  2.4894  1.5017
 9271SOL    HW232661   7.919   5.491   6.717 -1.1495 -2.7587 -2.5462
 9272SOL     OW32662   2.345   2.207   7.003 -0.4264  0.3032  0.1345
 9272SOL    HW132663   2.351   2.297   7.034 -0.6729  0.9482 -1.5393
 9272SOL    HW232664   2.434   2.172   7.010 -0.7661 -0.2402  3.1668
 9273SOL     OW32665   0.093   8.977   4.863 -0.1810 -0.1596  0.1768
 9273SOL    HW132666   0.026   8.992   4.797 -0.2831 -0.7603  0.1359
 9273SOL    HW232667   0.174   8.967   4.813 -0.3694 -1.3203  0.0732
 9274SOL     OW32668   2.711   8.547   6.629 -0.1793  0.3176 -0.2842
 9274SOL    HW132669   2.665   8.503   6.558  0.3498 -0.3440 -0.2317
 9274SOL    HW232670   2.736   8.476   6.689  0.1593  0.7587  0.1035
 9275SOL     OW32671   5.704   0.455   0.732  0.1024  0.3548  0.2020
 9275SOL    HW132672   5.621   0.499   0.713  0.3691  1.0502  0.6088
 9275SOL    HW232673   5.701   0.376   0.679  0.5029  1.8635 -2.2081
 9276SOL     OW32674   8.020   6.949   7.953  0.5986 -0.0554  0.4149
 9276SOL    HW132675   8.080   7.022   7.939  0.2645  0.3474  1.0452
 9276SOL    HW232676   7.993   6.957   8.045 -2.8745  1.6681 -0.6090
 9277SOL     OW32677   0.228   1.202   5.349 -0.9711 -0.1163  0.2285
 9277SOL    HW132678   0.312   1.157   5.350 -0.6246  0.4398 -1.2514
 9277SOL    HW232679   0.217   1.236   5.438  0.0344 -0.7753  0.6188
 9278SOL     OW32680   4.264   8.304   0.875  0.4726 -0.7784  0.1655
 9278SOL    HW132681   4.204   8.376   0.895 -1.0200 -1.2860 -2.0304
 9278SOL    HW232682   4.348   8.346   0.858 -0.2676  0.4231 -0.6496
 9279SOL     OW32683   3.842   6.534   6.623  0.0754  0.0143  0.0959
 9279SOL    HW132684   3.813   6.445   6.643  0.1005 -0.1651 -0.6366
 9279SOL    HW232685   3.918   6.547   6.680  1.3900 -1.2341 -1.2487
 9280SOL     OW32686   7.937   2.498   3.678 -0.3023  0.0285  0.3181
 9280SOL    HW132687   7.915   2.566   3.741  0.7493 -1.0297  1.8820
 9280SOL    HW232688   7.855   2.482   3.631 -0.6627  2.0807  0.1472
 9281SOL     OW32689   3.232   9.365   1.748 -0.1907  0.2365 -0.0926
 9281SOL    HW132690   3.289   9.406   1.684 -0.6325 -0.7336 -1.1565
 9281SOL    HW232691   3.166   9.432   1.769  0.3325  0.7763 -0.1621
 9282SOL     OW32692   5.694   3.587   1.589 -0.2880  0.3650  0.3296
 9282SOL    HW132693   5.774   3.580   1.539  0.2653  0.7543  1.1308
 9282SOL    HW232694   5.694   3.510   1.646 -1.4233 -0.6267 -0.9479
 9283SOL     OW32695   6.660   5.942   1.618 -0.6381 -0.1577  0.5104
 9283SOL    HW132696   6.603   5.921   1.692 -0.9038  1.7541  0.9015
 9283SOL    HW232697   6.745   5.904   1.643 -1.2505 -1.4572  0.7431
 9284SOL     OW32698   7.266   4.085   4.433 -0.2411 -0.4010 -0.0602
 9284SOL    HW132699   7.343   4.095   4.489 -0.0482 -0.9044 -0.2293
 9284SOL    HW232700   7.224   4.171   4.434 -1.3205 -0.8692  2.4107
 9285SOL     OW32701   6.486   3.557   9.350  0.3662  0.3686  0.0521
 9285SOL    HW132702   6.537   3.492   9.397 -1.5407 -2.3617 -1.3582
 9285SOL    HW232703   6.539   3.579   9.274 -0.4790 -2.7462 -1.6247
 9286SOL     OW32704   8.914   7.235   8.332  0.0395 -0.0291 -0.3236
 9286SOL    HW132705   8.977   7.304   8.353  0.2677  0.2549 -1.8756
 9286SOL    HW232706   8.946   7.159   8.381  1.8496 -0.0005 -1.3693
 9287SOL     OW32707   8.512   8.014   4.309 -0.5127  0.9019 -0.0626
 9287SOL    HW132708   8.440   7.952   4.296  0.0885 -0.0457  0.9785
 9287SOL    HW232709   8.586   7.959   4.333  0.6066  1.8557 -1.2112
 9288SOL     OW32710   7.620   5.935   2.161 -0.1064 -0.1546 -0.1986
 9288SOL    HW132711   7.673   5.960   2.085 -0.7866  0.4515 -0.4977
 9288SOL    HW232712   7.682   5.931   2.234  0.1116  2.4329 -0.1303
 9289SOL     OW32713   8.462   7.235   8.829 -0.0905  0.3691  0.4725
 9289SOL    HW132714   8.523   7.303   8.801 -0.5683 -0.1642 -2.0436
 9289SOL    HW232715   8.514   7.181   8.889  1.0331  1.5113  0.5863
 9290SOL     OW32716   5.643   6.964   3.787 -0.0361  0.1254  0.4498
 9290SOL    HW132717   5.621   6.959   3.694 -1.2323 -2.1208  0.7826
 9290SOL    HW232718   5.737   6.981   3.789  0.2324 -0.9535 -1.2053
 9291SOL     OW32719   1.704   6.616   2.770  0.0922  0.2894  1.0775
 9291SOL    HW132720   1.669   6.672   2.700  0.7518  0.0667  0.5537
 9291SOL    HW232721   1.635   6.553   2.787  0.4590 -0.5885 -0.4416
 9292SOL     OW32722   0.223   8.152   1.329 -0.3179 -0.2349 -0.0119
 9292SOL    HW132723   0.158   8.220   1.312 -1.0567 -1.2665 -1.6532
 9292SOL    HW232724   0.303   8.185   1.288 -0.5715 -0.1620 -0.4658
 9293SOL     OW32725   0.771   6.344   7.528  0.3569 -0.9260  0.2558
 9293SOL    HW132726   0.703   6.325   7.593 -0.8807  0.3329 -0.6223
 9293SOL    HW232727   0.729   6.329   7.444  0.9008  0.6583 -0.3293
 9294SOL     OW32728   6.391   8.904   8.419 -0.1744  0.5361 -0.4440
 9294SOL    HW132729   6.318   8.842   8.413 -0.7340  1.2251 -0.9445
 9294SOL    HW232730   6.453   8.875   8.353 -0.6154  0.7300 -0.9545
 9295SOL     OW32731   3.072   6.840   7.577  0.3406 -0.3803  0.4283
 9295SOL    HW132732   3.033   6.906   7.635  0.3339 -0.2289  0.2518
 9295SOL    HW232733   3.125   6.890   7.515 -1.9998 -0.2298 -1.6187
 9296SOL     OW32734   7.396   3.104   8.944  0.0073  0.1828 -0.4076
 9296SOL    HW132735   7.386   3.020   8.987  1.0570 -0.2761 -1.0050
 9296SOL    HW232736   7.314   3.119   8.899 -0.2647 -0.4158 -0.1157
 9297SOL     OW32737   6.817   4.649   7.585 -0.3041  0.5177  0.2595
 9297SOL    HW132738   6.749   4.655   7.517  0.1352 -0.5085 -0.2908
 9297SOL    HW232739   6.826   4.738   7.617  0.6855  1.3920 -2.2220
 9298SOL     OW32740   1.841   8.912   7.137  0.3968 -0.4423  0.1051
 9298SOL    HW132741   1.898   8.836   7.142  1.1113 -0.0275 -1.2454
 9298SOL    HW232742   1.780   8.901   7.210  0.5197 -2.2632 -0.0194
 9299SOL     OW32743   0.894   9.303   3.547 -0.2877 -0.0850  0.7117
 9299SOL    HW132744   0.826   9.251   3.590 -0.8238  1.5219  1.8773
 9299SOL    HW232745   0.975   9.280   3.593 -0.5154  0.0878  1.2041
 9300SOL     OW32746   9.423   8.726   0.629  0.1080 -0.1552 -0.5930
 9300SOL    HW132747   9.482   8.734   0.554  1.2773 -0.4737  0.2812
 9300SOL    HW232748   9.413   8.632   0.642 -3.7270 -0.3500 -3.0938
 9301SOL     OW32749   9.204   6.986   5.226 -0.2871 -0.2397 -0.6729
 9301SOL    HW132750   9.264   7.049   5.265  1.6061 -0.8627 -2.3838
 9301SOL    HW232751   9.161   6.943   5.300  2.3076 -0.6146  0.7198
 9302SOL     OW32752   6.674   8.884   1.879 -0.2546  0.5229  0.5702
 9302SOL    HW132753   6.734   8.906   1.950 -0.0019 -1.5983  1.0937
 9302SOL    HW232754   6.628   8.806   1.910 -0.9848  0.2272 -1.1324
 9303SOL     OW32755   1.494   6.977   3.285  0.1440  0.1639 -0.4101
 9303SOL    HW132756   1.462   7.020   3.364  0.6320  1.1125 -0.7079
 9303SOL    HW232757   1.416   6.944   3.241 -0.0442 -1.6364  1.1442
 9304SOL     OW32758   5.485   2.547   3.753 -0.0626 -0.1748  0.3190
 9304SOL    HW132759   5.502   2.623   3.809 -1.4097 -0.1352  0.7133
 9304SOL    HW232760   5.522   2.571   3.669 -0.3685  0.8925  0.4685
 9305SOL     OW32761   7.773   2.389   6.575  0.9764 -0.5069 -0.3196
 9305SOL    HW132762   7.764   2.484   6.586  0.4586 -0.4471 -1.1366
 9305SOL    HW232763   7.784   2.355   6.663  0.4299  0.2419  0.0454
 9306SOL     OW32764   0.511   8.173   6.282  0.2636 -0.5118 -0.1520
 9306SOL    HW132765   0.508   8.191   6.188  1.2196 -0.0263 -0.0987
 9306SOL    HW232766   0.419   8.167   6.307 -0.0339  0.4643 -0.9153
 9307SOL     OW32767   4.782   3.995   2.212  0.3119  0.2095 -0.0471
 9307SOL    HW132768   4.735   3.929   2.263  2.0571  0.4409  1.9749
 9307SOL    HW232769   4.826   3.945   2.144 -0.7935 -0.3119 -0.4089
 9308SOL     OW32770   2.830   1.041   7.876  0.6592  0.2735 -0.1350
 9308SOL    HW132771   2.825   1.020   7.969  1.3188  0.9390  0.0649
 9308SOL    HW232772   2.855   1.134   7.874 -2.5967  1.2497 -0.9847
 9309SOL     OW32773   5.585   5.097   5.721 -0.1166  0.0647 -0.0394
 9309SOL    HW132774   5.634   5.134   5.647  0.8639  1.0690  1.0782
 9309SOL    HW232775   5.595   5.161   5.791 -0.4961 -1.1640  1.1779
 9310SOL     OW32776   6.567   8.672   2.014  0.5651 -0.1601 -0.3252
 9310SOL    HW132777   6.527   8.608   1.956 -1.3539 -0.0548  0.7879
 9310SOL    HW232778   6.620   8.621   2.075 -0.8093 -0.7162  0.4417
 9311SOL     OW32779   2.751   8.568   5.931  0.1847  0.0059 -0.0288
 9311SOL    HW132780   2.760   8.495   5.871 -0.2776  0.4243 -0.6070
 9311SOL    HW232781   2.841   8.585   5.961  0.4109 -0.2270 -0.5666
 9312SOL     OW32782   7.384   5.613   4.518 -0.5423 -0.2204 -0.1373
 9312SOL    HW132783   7.296   5.597   4.484  0.0220  0.0183 -1.7920
 9312SOL    HW232784   7.440   5.610   4.441  0.8773 -0.1063  0.8573
 9313SOL     OW32785   6.169   7.149   2.799  0.1487 -0.1263 -0.3899
 9313SOL    HW132786   6.104   7.157   2.869  0.3616  0.6722 -0.2690
 9313SOL    HW232787   6.118   7.151   2.719 -0.1298 -1.4190 -0.2633
 9314SOL     OW32788   8.310   7.387   4.365  0.4439 -0.1780  0.6232
 9314SOL    HW132789   8.246   7.440   4.318 -0.3926 -0.5020  1.3622
 9314SOL    HW232790   8.325   7.311   4.309  0.5645  0.1460  0.2156
 9315SOL     OW32791   5.740   0.986   4.246  0.2484  0.1279 -0.8718
 9315SOL    HW132792   5.663   0.971   4.192 -0.3362  0.4924 -0.1433
 9315SOL    HW232793   5.714   1.055   4.307  1.1956  0.3663 -0.7193
 9316SOL     OW32794   6.340   1.831   1.729  0.0599  0.6013  0.4964
 9316SOL    HW132795   6.355   1.923   1.754  0.8039  0.8337 -0.7303
 9316SOL    HW232796   6.285   1.837   1.650 -0.9238 -0.0683  1.1056
 9317SOL     OW32797   6.025   4.422   6.171  0.1153  0.0675 -0.4272
 9317SOL    HW132798   5.955   4.357   6.178  1.9077 -1.8817  0.6058
 9317SOL    HW232799   6.067   4.421   6.257  1.3488  1.2859 -0.9807
 9318SOL     OW32800   6.725   4.593   8.433 -0.3627  0.0033  0.7307
 9318SOL    HW132801   6.745   4.658   8.366 -2.2234  0.5299  0.6355
 9318SOL    HW232802   6.664   4.637   8.492  0.5450 -0.7398  2.3102
 9319SOL     OW32803   0.175   5.314   2.966  0.1584 -0.8227 -0.2085
 9319SOL    HW132804   0.096   5.351   3.005  0.1143 -1.2789  0.1345
 9319SOL    HW232805   0.163   5.220   2.970  1.4838 -0.9746  1.4703
 9320SOL     OW32806   3.740   5.869   0.146 -0.3478 -0.1451 -0.0488
 9320SOL    HW132807   3.804   5.886   0.216  0.4220 -1.4747 -0.3819
 9320SOL    HW232808   3.655   5.870   0.190  0.2557 -3.3124  1.4841
 9321SOL     OW32809   3.593   0.090   0.123 -0.0357 -0.0782  0.0480
 9321SOL    HW132810   3.507   0.130   0.135  0.3429  0.3915  1.3688
 9321SOL    HW232811   3.655   0.161   0.136  0.5911 -0.6900  0.5051
 9322SOL     OW32812   9.222   1.999   4.506 -0.3321 -0.6263 -0.6211
 9322SOL    HW132813   9.201   2.023   4.597 -1.6053 -0.5087 -0.9205
 9322SOL    HW232814   9.237   2.083   4.463  3.0862 -0.7578  0.0479
 9323SOL     OW32815   4.831   2.693   4.136 -0.4611 -0.1476  0.3280
 9323SOL    HW132816   4.819   2.739   4.219  0.4712 -0.4603  0.6527
 9323SOL    HW232817   4.743   2.661   4.113 -0.7735  0.1623  1.0612
 9324SOL     OW32818   4.185   1.611   8.804  0.2578 -0.1972 -0.2692
 9324SOL    HW132819   4.261   1.656   8.766  1.7024 -1.2261  1.2642
 9324SOL    HW232820   4.111   1.646   8.755  1.6668  1.0585 -1.6625
 9325SOL     OW32821   3.597   3.821   2.740  0.4462  0.8817 -0.1106
 9325SOL    HW132822   3.512   3.840   2.702 -0.2939  1.1529  1.5984
 9325SOL    HW232823   3.582   3.818   2.834  2.1477 -0.0267  0.1829
 9326SOL     OW32824   0.356   7.537   6.676  0.0507 -0.2549  0.2453
 9326SOL    HW132825   0.309   7.485   6.611  0.8302  1.4541 -1.8117
 9326SOL    HW232826   0.292   7.600   6.709 -0.5144 -1.5277  1.6762
 9327SOL     OW32827   0.178   8.010   3.357 -0.1396  0.9364  0.0672
 9327SOL    HW132828   0.147   8.072   3.423 -0.9122  1.6561 -0.9363
 9327SOL    HW232829   0.103   7.952   3.342 -0.1260  1.0551 -0.4855
 9328SOL     OW32830   3.554   4.986   8.044  0.6216 -0.7767 -0.3285
 9328SOL    HW132831   3.580   5.077   8.031  3.0577 -1.2046  0.9927
 9328SOL    HW232832   3.464   4.991   8.077  0.8023  1.1644 -0.0437
 9329SOL     OW32833   3.521   2.436   4.559  0.2706  0.3272 -0.4329
 9329SOL    HW132834   3.484   2.359   4.601 -0.0251  1.0923  0.7644
 9329SOL    HW232835   3.518   2.504   4.626  0.1516  1.5006 -1.5705
 9330SOL     OW32836   9.441   6.396   4.337  0.1973 -0.0563  1.0623
 9330SOL    HW132837   9.481   6.429   4.418  1.9025 -0.6124  0.4937
 9330SOL    HW232838   9.479   6.310   4.325  1.2536  0.6369 -1.1592
 9331SOL     OW32839   5.237   2.041   1.078  0.2284 -0.2976 -0.5020
 9331SOL    HW132840   5.220   2.009   0.990 -0.6294 -0.7654 -0.1705
 9331SOL    HW232841   5.156   2.086   1.104 -0.5296 -2.4031  1.0324
 9332SOL     OW32842   9.275   4.291   6.986 -0.3239  0.4006 -0.0564
 9332SOL    HW132843   9.305   4.267   6.898 -0.4640  0.7925 -0.2146
 9332SOL    HW232844   9.197   4.345   6.971 -1.6685 -1.3435  0.3825
 9333SOL     OW32845   8.331   1.948   5.567 -0.1198  0.4111 -0.2383
 9333SOL    HW132846   8.402   1.946   5.632 -0.2561  0.4169 -0.0892
 9333SOL    HW232847   8.367   1.998   5.494 -0.4605  1.6345  0.4026
 9334SOL     OW32848   5.679   0.342   7.999 -0.5321 -0.1952  0.0674
 9334SOL    HW132849   5.747   0.406   8.019 -1.1918  0.7961 -0.7486
 9334SOL    HW232850   5.708   0.301   7.918 -1.2724  0.8015 -0.7230
 9335SOL     OW32851   9.282   8.683   9.267  0.7182  0.1413  0.0648
 9335SOL    HW132852   9.279   8.668   9.362 -0.9752 -0.2164 -0.0192
 9335SOL    HW232853   9.294   8.596   9.230 -1.5212 -0.1221 -0.1331
 9336SOL     OW32854   1.114   8.041   4.992 -0.0029  0.6767 -0.1696
 9336SOL    HW132855   1.137   7.961   4.945  0.7338  1.7430 -1.6965
 9336SOL    HW232856   1.110   8.014   5.084  3.5782 -0.4654 -0.1987
 9337SOL     OW32857   9.105   1.464   6.386 -0.6136 -0.5610  0.3308
 9337SOL    HW132858   9.021   1.506   6.369 -0.7173 -0.8124  0.2116
 9337SOL    HW232859   9.166   1.536   6.400 -1.0486 -0.3734  1.4233
 9338SOL     OW32860   2.060   8.898   8.868 -0.5215 -0.8857 -0.0461
 9338SOL    HW132861   1.968   8.876   8.856 -1.2680  2.2479 -0.9450
 9338SOL    HW232862   2.099   8.891   8.780 -0.7477  0.9963 -0.3285
 9339SOL     OW32863   5.815   2.862   5.299 -0.4343  0.4512 -0.0901
 9339SOL    HW132864   5.791   2.944   5.256  1.1147  0.1878 -1.5309
 9339SOL    HW232865   5.814   2.796   5.230  2.1399  0.0223  0.1712
 9340SOL     OW32866   7.673   3.429   2.049  0.0841  0.1520  0.4764
 9340SOL    HW132867   7.641   3.339   2.046  2.6705 -0.9080  1.6600
 9340SOL    HW232868   7.596   3.482   2.030 -1.4804 -2.2855 -0.5705
 9341SOL     OW32869   0.701   2.047   5.030 -0.9300 -0.7983 -0.9117
 9341SOL    HW132870   0.680   2.121   5.087 -0.7923 -0.9681 -0.6331
 9341SOL    HW232871   0.758   2.083   4.963  1.5771 -1.1771  0.8661
 9342SOL     OW32872   4.969   3.896   3.405  0.2295  0.1638  0.3500
 9342SOL    HW132873   5.048   3.949   3.415  0.0932  0.2005  1.3228
 9342SOL    HW232874   4.924   3.933   3.330  1.5682 -0.4132 -0.7905
 9343SOL     OW32875   2.690   3.527   2.433 -0.3843 -0.5765 -0.3167
 9343SOL    HW132876   2.657   3.449   2.388 -0.4524 -0.8038  0.1246
 9343SOL    HW232877   2.750   3.567   2.370  1.4810 -2.2450  0.2993
 9344SOL     OW32878   5.699   5.144   5.967 -0.2735  0.4948 -0.0940
 9344SOL    HW132879   5.630   5.125   6.031 -0.8876 -0.0136 -0.8778
 9344SOL    HW232880   5.733   5.058   5.942  0.1125  0.6991 -0.2817
 9345SOL     OW32881   8.888   8.131   7.068 -0.3746  0.7022  0.0822
 9345SOL    HW132882   8.939   8.172   6.998 -1.5389  1.7020 -0.1947
 9345SOL    HW232883   8.874   8.200   7.132  1.7325 -0.4818  1.9938
 9346SOL     OW32884   3.655   3.090   8.698 -0.3301  0.4093 -0.5511
 9346SOL    HW132885   3.568   3.115   8.730 -0.3779 -0.2342 -0.1487
 9346SOL    HW232886   3.715   3.145   8.747 -0.3323 -1.2955  1.5255
 9347SOL     OW32887   1.683   6.955   7.086  0.0451  0.3144  0.2723
 9347SOL    HW132888   1.674   6.943   7.180  1.0616 -1.7936  0.1505
 9347SOL    HW232889   1.721   6.873   7.054  0.1646  1.1412 -1.9160
 9348SOL     OW32890   5.584   7.910   4.300  0.2563  0.0020 -0.2113
 9348SOL    HW132891   5.558   7.999   4.323 -0.1842 -0.0715 -0.3972
 9348SOL    HW232892   5.505   7.858   4.315  0.2493 -0.2093 -0.9411
 9349SOL     OW32893   8.592   9.373   7.037 -0.1770 -0.4184  0.0573
 9349SOL    HW132894   8.621   9.375   6.946 -1.5562  0.0722 -0.4017
 9349SOL    HW232895   8.511   9.424   7.037  0.0459 -0.0130  1.6521
 9350SOL     OW32896   6.491   2.787   9.437  0.2436 -0.5100  0.2730
 9350SOL    HW132897   6.535   2.867   9.467 -1.0930 -0.0841  1.2069
 9350SOL    HW232898   6.466   2.742   9.518 -2.6839  0.2244 -0.1178
 9351SOL     OW32899   2.102   3.810   6.548 -0.3030  0.5633  0.2832
 9351SOL    HW132900   2.176   3.862   6.578 -0.5718 -0.6958  3.5120
 9351SOL    HW232901   2.142   3.740   6.495  0.3740  1.9120 -1.0744
 9352SOL     OW32902   4.044   1.892   0.936  0.0475  0.3582 -0.1126
 9352SOL    HW132903   4.113   1.836   0.899  0.7901  1.2406 -0.0876
 9352SOL    HW232904   3.989   1.915   0.860 -0.6333 -0.8899 -0.0236
 9353SOL     OW32905   0.828   1.427   4.060  0.0449  0.0563  0.7092
 9353SOL    HW132906   0.830   1.451   4.153  1.9689  1.0527  0.4588
 9353SOL    HW232907   0.853   1.335   4.058 -3.0253 -0.9130  1.3440
 9354SOL     OW32908   2.260   6.260   1.674 -0.4257  0.4163  0.1946
 9354SOL    HW132909   2.351   6.232   1.673  0.2323  2.4231  0.0706
 9354SOL    HW232910   2.263   6.354   1.657 -2.6594  0.2233 -1.8463
 9355SOL     OW32911   0.121   2.980   1.535 -0.5488  0.0489 -0.1817
 9355SOL    HW132912   0.049   3.042   1.547 -0.5832  0.1165 -0.6952
 9355SOL    HW232913   0.173   3.017   1.463 -0.5363 -0.4849 -0.4536
 9356SOL     OW32914   7.169   4.044   6.846  0.0343 -0.1591  0.4635
 9356SOL    HW132915   7.193   4.095   6.769  1.6229 -0.5713  0.6553
 9356SOL    HW232916   7.235   4.066   6.912  0.2868 -1.8148  0.8203
 9357SOL     OW32917   1.555   5.955   3.060 -0.0307 -0.0396 -0.6663
 9357SOL    HW132918   1.635   5.985   3.017  1.5168 -0.3370  1.8075
 9357SOL    HW232919   1.530   6.028   3.117 -0.4164 -0.6686 -0.0145
 9358SOL     OW32920   5.443   4.587   1.598 -0.4648 -0.0413 -0.2460
 9358SOL    HW132921   5.408   4.631   1.520 -0.2738 -1.1302 -0.9744
 9358SOL    HW232922   5.530   4.558   1.571 -1.4722 -2.9566 -0.6470
 9359SOL     OW32923   2.847   0.000   4.364  0.4096  0.2232  0.2984
 9359SOL    HW132924   2.907   0.034   4.298 -1.3294  1.2508 -0.8334
 9359SOL    HW232925   2.824  -0.088   4.334  0.0533  0.4790 -0.1981
 9360SOL     OW32926   5.960   3.447   4.581 -0.4514 -0.5238  0.2375
 9360SOL    HW132927   5.934   3.359   4.552 -0.1123 -1.0533  1.4510
 9360SOL    HW232928   6.041   3.432   4.630 -0.1269  0.5395  0.0280
 9361SOL     OW32929   4.832   7.515   8.377 -0.2276  0.0714  0.3094
 9361SOL    HW132930   4.924   7.489   8.375 -0.2795 -0.0859 -0.1136
 9361SOL    HW232931   4.833   7.608   8.356 -0.2396 -0.1474 -0.7139
 9362SOL     OW32932   7.175   8.085   7.138  0.5404  0.2188 -0.0945
 9362SOL    HW132933   7.258   8.124   7.163  0.9916  0.3969 -1.7342
 9362SOL    HW232934   7.111   8.121   7.199  1.4840  0.9443  0.4786
 9363SOL     OW32935   5.043   3.183   1.042  0.1268  0.4212 -0.1962
 9363SOL    HW132936   5.047   3.197   1.137  0.3838 -0.8735  0.0089
 9363SOL    HW232937   5.043   3.271   1.005 -0.7128  0.9662  1.0262
 9364SOL     OW32938   5.582   8.538   2.758 -0.2238 -0.0617  0.0357
 9364SOL    HW132939   5.591   8.450   2.796 -0.3168  0.4396  1.2554
 9364SOL    HW232940   5.602   8.525   2.665  0.5747 -1.2311  0.3377
 9365SOL     OW32941   7.479   4.910   0.998  0.3938  0.3748  0.1628
 9365SOL    HW132942   7.406   4.849   0.986  0.3703 -0.2485  2.8472
 9365SOL    HW232943   7.557   4.855   0.992  0.6650  0.9207 -1.9828
 9366SOL     OW32944   8.598   9.243   1.803 -0.0162  0.6671  0.4991
 9366SOL    HW132945   8.581   9.227   1.896  4.0814 -1.3069  1.1328
 9366SOL    HW232946   8.642   9.328   1.802 -0.7049  1.0264  0.2330
 9367SOL     OW32947   5.086   9.634   2.193 -0.0467 -0.0195  0.0525
 9367SOL    HW132948   5.031   9.711   2.180  1.3917  1.2701  1.1368
 9367SOL    HW232949   5.029   9.571   2.237 -0.6133  1.3873  1.4325
 9368SOL     OW32950   6.316   1.910   6.928  0.0334 -0.5383  0.1063
 9368SOL    HW132951   6.369   1.971   6.979  0.6672 -0.4307 -0.6675
 9368SOL    HW232952   6.352   1.915   6.840  0.3808 -2.3362  0.1061
 9369SOL     OW32953   2.399   7.521   5.444 -0.6135  0.0637 -0.6648
 9369SOL    HW132954   2.358   7.580   5.381 -0.2819  0.4125 -0.5553
 9369SOL    HW232955   2.487   7.506   5.409 -0.5159  0.0543 -0.4149
 9370SOL     OW32956   2.386   4.527   2.096 -0.0213 -0.4691  0.0730
 9370SOL    HW132957   2.459   4.467   2.084  0.0599 -0.2821 -0.3559
 9370SOL    HW232958   2.383   4.579   2.016 -0.0551  0.1384  0.4645
 9371SOL     OW32959   2.189   0.193   9.144  0.0111 -0.1847 -0.1424
 9371SOL    HW132960   2.148   0.277   9.167  0.2152 -0.0541 -0.2499
 9371SOL    HW232961   2.232   0.165   9.225 -2.0129 -1.3525  0.5955
 9372SOL     OW32962   6.157   1.618   4.022  0.1405 -0.2377  0.0708
 9372SOL    HW132963   6.221   1.643   3.955 -0.8665 -0.7122 -1.1074
 9372SOL    HW232964   6.153   1.523   4.018  0.5045 -0.3270  1.2554
 9373SOL     OW32965   8.597   0.491   5.556  0.1691 -0.3014  0.2041
 9373SOL    HW132966   8.685   0.487   5.595  0.1185  0.1824  0.3715
 9373SOL    HW232967   8.546   0.542   5.618 -0.1682 -0.3683 -0.0193
 9374SOL     OW32968   7.161   5.421   8.371  0.2284  0.2874 -0.3945
 9374SOL    HW132969   7.098   5.491   8.356  1.2073  0.9379 -1.6406
 9374SOL    HW232970   7.126   5.374   8.447 -1.1788  1.2656 -0.3866
 9375SOL     OW32971   2.493   3.065   8.727  0.0463 -0.1565 -0.7603
 9375SOL    HW132972   2.561   3.052   8.661  0.1565 -0.6387 -0.5564
 9375SOL    HW232973   2.542   3.098   8.803 -0.2787  1.9924 -1.4105
 9376SOL     OW32974   2.442   6.069   7.577 -0.0773  0.2054  0.1425
 9376SOL    HW132975   2.414   6.159   7.594  0.5941  0.5512 -0.5379
 9376SOL    HW232976   2.361   6.018   7.580 -0.3915  0.7372  1.0965
 9377SOL     OW32977   3.180   0.901   9.330 -0.7991  0.4259 -0.0900
 9377SOL    HW132978   3.126   0.945   9.264 -0.5501 -0.9163 -1.2441
 9377SOL    HW232979   3.133   0.819   9.349  1.4795 -1.5865 -2.3358
 9378SOL     OW32980   5.876   9.668   4.795 -0.4334  0.3248  0.4851
 9378SOL    HW132981   5.899   9.760   4.808 -1.9345  0.9355 -0.8724
 9378SOL    HW232982   5.887   9.628   4.882 -1.8100  2.2486  1.6220
 9379SOL     OW32983   5.318   8.151   8.938  0.1835  0.1872  0.4046
 9379SOL    HW132984   5.383   8.171   8.871 -0.1743 -0.1051 -0.0462
 9379SOL    HW232985   5.295   8.059   8.921 -0.1417  0.2086  0.7281
 9380SOL     OW32986   3.038   1.508   2.293 -0.0733  0.0263 -0.1530
 9380SOL    HW132987   3.053   1.495   2.200  0.1151 -0.2066 -0.0916
 9380SOL    HW232988   2.962   1.565   2.298  0.5417  0.8912 -0.4665
 9381SOL     OW32989   6.505   3.854   4.352  0.3318  0.8136 -0.3601
 9381SOL    HW132990   6.563   3.860   4.277  2.5548 -1.9013  0.9760
 9381SOL    HW232991   6.423   3.820   4.317  1.1128  0.2090 -1.6587
 9382SOL     OW32992   2.039   8.584   8.784 -0.3457 -0.2646 -0.0006
 9382SOL    HW132993   1.988   8.662   8.805  0.1022 -0.1318  0.6076
 9382SOL    HW232994   1.975   8.523   8.747 -0.7460  0.2890 -0.2390
 9383SOL     OW32995   0.699   2.885   9.582  0.3011 -0.2224 -0.5525
 9383SOL    HW132996   0.624   2.945   9.570  0.5752  0.7311  1.9368
 9383SOL    HW232997   0.666   2.817   9.640  0.4281 -1.7990 -2.2165
 9384SOL     OW32998   6.839   0.102   7.270 -0.4792  0.2086  0.1469
 9384SOL    HW132999   6.928   0.138   7.266  0.1103 -1.2315 -0.0114
 9384SOL    HW233000   6.851   0.012   7.301 -2.1225  0.9069  3.2241
 9385SOL     OW33001   7.514   1.868   8.053 -0.2407  0.4076 -0.3603
 9385SOL    HW133002   7.497   1.825   8.136  0.2540  0.7430 -0.0764
 9385SOL    HW233003   7.454   1.826   7.991 -2.1681  1.6226  0.5899
 9386SOL     OW33004   5.982   8.227   8.496  0.2090  0.0769  0.1157
 9386SOL    HW133005   6.014   8.262   8.413  0.0262 -1.5668 -0.6960
 9386SOL    HW233006   5.937   8.300   8.538  1.1031  1.1863 -0.8064
 9387SOL     OW33007   6.381   6.989   5.191 -0.1725 -0.1171 -0.1007
 9387SOL    HW133008   6.386   6.912   5.135 -1.4831 -1.1852  1.1863
 9387SOL    HW233009   6.460   6.984   5.244 -0.2959 -0.6279  0.0397
 9388SOL     OW33010   4.599   0.294   5.203 -0.4213 -0.3780 -0.2375
 9388SOL    HW133011   4.519   0.327   5.245 -0.4494  1.0874 -1.3529
 9388SOL    HW233012   4.606   0.344   5.122  2.3996  0.5818  0.4745
 9389SOL     OW33013   4.394   6.797   4.306  0.0766 -0.7573  0.3859
 9389SOL    HW133014   4.392   6.819   4.213  0.1349  0.0018  0.5540
 9389SOL    HW233015   4.321   6.736   4.318 -1.9837  1.5346  0.3999
 9390SOL     OW33016   4.111   9.508   7.779  0.2729  0.0873 -0.2284
 9390SOL    HW133017   4.049   9.468   7.840 -0.4942  0.2917 -0.8502
 9390SOL    HW233018   4.073   9.490   7.693  0.2617  1.5755 -0.5482
 9391SOL     OW33019   8.495   1.425   8.020 -0.2972 -0.2935  0.3101
 9391SOL    HW133020   8.410   1.469   8.011  0.7268  2.1767  1.7757
 9391SOL    HW233021   8.517   1.434   8.113  2.5511  1.1985 -0.3858
 9392SOL     OW33022   3.789   5.646   6.473 -0.3111  0.0735  0.7447
 9392SOL    HW133023   3.768   5.553   6.476 -0.0729 -0.0445 -0.6020
 9392SOL    HW233024   3.713   5.687   6.432 -0.1965  0.3950  0.8497
 9393SOL     OW33025   1.332   7.828   0.809  0.1096 -0.0874  0.1559
 9393SOL    HW133026   1.311   7.737   0.828 -1.3338  0.1814 -0.0435
 9393SOL    HW233027   1.248   7.868   0.785  0.8526  1.0911 -0.5925
 9394SOL     OW33028   0.724   2.195   4.567 -0.4045 -0.0276 -0.4613
 9394SOL    HW133029   0.798   2.143   4.597 -0.1891  1.1317  1.1807
 9394SOL    HW233030   0.679   2.222   4.648 -0.5868  2.1407 -1.2038
 9395SOL     OW33031   1.661   2.010   6.491  0.1375 -0.1971  0.3212
 9395SOL    HW133032   1.638   2.019   6.583  1.2529 -0.3672  0.6310
 9395SOL    HW233033   1.577   2.016   6.444 -0.3779  0.3959  1.2979
 9396SOL     OW33034   2.874   2.405   1.758  0.2890  0.0326 -0.0735
 9396SOL    HW133035   2.866   2.498   1.776  0.1289  0.2552 -1.2159
 9396SOL    HW233036   2.850   2.362   1.841 -0.0582  0.9898  0.3337
 9397SOL     OW33037   7.189   1.461   1.685 -0.4986 -0.0979 -0.2473
 9397SOL    HW133038   7.219   1.375   1.654  0.4991 -0.1131  0.7045
 9397SOL    HW233039   7.266   1.500   1.726 -0.2048  2.3479 -2.8508
 9398SOL     OW33040   9.485   8.342   4.601  1.0799  0.1960 -0.0132
 9398SOL    HW133041   9.442   8.370   4.520  0.0696  1.8535  1.0195
 9398SOL    HW233042   9.559   8.402   4.610  0.2604  1.1141  1.0408
 9399SOL     OW33043   0.073   6.899   3.007 -0.2570  0.5231  0.3708
 9399SOL    HW133044   0.168   6.902   3.016 -0.3444  1.3915  1.0977
 9399SOL    HW233045   0.048   6.988   2.983 -0.8899  0.3031  0.2006
 9400SOL     OW33046   0.845   4.430   7.692 -0.6879  0.2044  0.3531
 9400SOL    HW133047   0.911   4.374   7.651 -0.3290  0.8071  0.1010
 9400SOL    HW233048   0.781   4.447   7.623 -0.5465  0.4915  0.2900
 9401SOL     OW33049   4.418   4.117   2.390 -0.1969 -0.0607  0.4254
 9401SOL    HW133050   4.374   4.202   2.379  3.2553  1.7456 -0.7841
 9401SOL    HW233051   4.467   4.127   2.472  0.7765 -0.6234 -0.0872
 9402SOL     OW33052   1.919   4.565   8.270 -0.1587  0.2184  0.3303
 9402SOL    HW133053   1.844   4.625   8.273 -0.2765  0.2357 -1.6647
 9402SOL    HW233054   1.903   4.504   8.342 -1.0630  1.3931  1.1673
 9403SOL     OW33055   8.642   5.369   7.234 -0.1633 -0.1509 -0.1210
 9403SOL    HW133056   8.666   5.431   7.302 -1.1205  0.4956 -0.3577
 9403SOL    HW233057   8.645   5.419   7.152 -3.3741  0.3357 -0.0547
 9404SOL     OW33058   2.624   0.709   1.879 -0.0637 -0.0111  0.2607
 9404SOL    HW133059   2.720   0.709   1.876 -0.0581  0.5499  0.2988
 9404SOL    HW233060   2.599   0.626   1.839  0.4017  0.6751 -1.5789
 9405SOL     OW33061   6.665   5.858   6.483  0.4094  0.2747  0.2777
 9405SOL    HW133062   6.587   5.821   6.524  0.0637  0.5503 -0.1215
 9405SOL    HW233063   6.634   5.895   6.400  1.3732 -1.7140 -1.0540
 9406SOL     OW33064   0.641   6.482   0.838 -0.6154 -0.1666  0.4049
 9406SOL    HW133065   0.644   6.401   0.786  1.1056 -0.7969  1.4035
 9406SOL    HW233066   0.612   6.549   0.776 -2.0163 -1.5159 -0.4589
 9407SOL     OW33067   0.870   6.873   3.628  0.1207  0.5690  0.4896
 9407SOL    HW133068   0.929   6.910   3.562 -0.2676  0.2960 -0.0175
 9407SOL    HW233069   0.833   6.950   3.672 -0.9409  0.8240 -0.7894
 9408SOL     OW33070   5.739   2.449   6.955  0.2295  0.1863  0.3325
 9408SOL    HW133071   5.833   2.464   6.952  0.1410  1.4233  2.0087
 9408SOL    HW233072   5.726   2.385   7.025 -0.1825  0.0720  0.1575
 9409SOL     OW33073   0.056   3.396   5.862  0.5713 -0.1299  0.6194
 9409SOL    HW133074   0.141   3.440   5.869 -0.2706  2.3697 -2.5725
 9409SOL    HW233075   0.078   3.303   5.856  3.3323  0.5339 -1.8381
 9410SOL     OW33076   6.021   2.599   7.936 -0.1713 -0.2564 -0.0089
 9410SOL    HW133077   6.036   2.562   8.023  0.7872 -1.6061 -0.6914
 9410SOL    HW233078   6.097   2.569   7.885  0.2041  1.9888 -0.8637
 9411SOL     OW33079   2.212   0.430   8.821 -0.8833 -0.9025  0.4694
 9411SOL    HW133080   2.117   0.422   8.830 -1.0068  0.8480  1.1491
 9411SOL    HW233081   2.225   0.490   8.747 -0.3018 -1.1763  0.3383
 9412SOL     OW33082   6.338   0.303   7.400  0.2353  0.0612 -0.3626
 9412SOL    HW133083   6.325   0.241   7.472  1.8723 -0.6565 -0.6367
 9412SOL    HW233084   6.365   0.384   7.443  1.0609 -0.3210 -0.1325
 9413SOL     OW33085   5.933   1.400   1.395  0.0760 -0.2196  0.1791
 9413SOL    HW133086   5.917   1.342   1.469 -0.5298 -2.5632 -1.6719
 9413SOL    HW233087   5.846   1.432   1.370  0.1242 -0.3745 -0.2069
 9414SOL     OW33088   4.960   5.209   4.184  0.2448  0.0942  0.1800
 9414SOL    HW133089   4.911   5.140   4.229  1.3025 -1.1162 -0.4248
 9414SOL    HW233090   5.016   5.247   4.251  0.9533 -0.8933  0.1836
 9415SOL     OW33091   5.344   5.941   7.028 -0.0746  0.1846  0.2326
 9415SOL    HW133092   5.284   5.885   6.978  0.9178 -0.4191 -0.3338
 9415SOL    HW233093   5.354   5.897   7.112 -0.1447  0.0982  0.1959
 9416SOL     OW33094   8.056   7.488   3.649 -0.0293 -0.1982 -0.6743
 9416SOL    HW133095   8.049   7.423   3.719 -0.1913  0.3587 -0.1642
 9416SOL    HW233096   8.149   7.488   3.625  0.6991  1.8155  1.7208
 9417SOL     OW33097   7.955   4.360   1.955  0.1954 -0.2473 -0.2009
 9417SOL    HW133098   7.915   4.416   2.021  1.4331  1.0564 -0.4972
 9417SOL    HW233099   8.033   4.408   1.926  0.9861 -1.8535 -0.9179
 9418SOL     OW33100   0.131   6.717   2.087  0.3474 -0.0973 -0.2521
 9418SOL    HW133101   0.088   6.639   2.054  2.2487 -0.7500 -1.3525
 9418SOL    HW233102   0.187   6.685   2.158 -2.0372  0.9701  2.3371
 9419SOL     OW33103   0.394   6.735   5.914 -0.1101  0.0515  0.2534
 9419SOL    HW133104   0.385   6.668   5.982  0.9745  0.2898  0.6579
 9419SOL    HW233105   0.317   6.724   5.859 -0.8015 -0.4220  1.2823
 9420SOL     OW33106   7.276   0.826   4.584  0.9653 -0.2437 -0.0833
 9420SOL    HW133107   7.298   0.733   4.587  1.8507 -0.0828 -1.0903
 9420SOL    HW233108   7.194   0.829   4.534  0.2460 -0.5723  1.0323
 9421SOL     OW33109   1.545   3.467   8.768 -0.1789 -0.0949  0.3252
 9421SOL    HW133110   1.484   3.459   8.840 -1.0484  0.4595 -0.3323
 9421SOL    HW233111   1.506   3.532   8.709  0.1741 -1.0074 -0.9695
 9422SOL     OW33112   7.733   9.313   0.500  0.1083 -0.1088 -0.3018
 9422SOL    HW133113   7.711   9.282   0.588  0.9006 -0.8510 -0.3545
 9422SOL    HW233114   7.672   9.269   0.442 -0.1225  0.0362 -0.1699
 9423SOL     OW33115   2.497   7.518   0.356  0.1015 -0.4791 -0.1626
 9423SOL    HW133116   2.466   7.576   0.287 -0.4781  0.9535  1.2531
 9423SOL    HW233117   2.437   7.443   0.353 -1.7610  0.8896  0.6041
 9424SOL     OW33118   2.285   5.998   5.567  0.9479 -0.7166 -0.1882
 9424SOL    HW133119   2.335   5.944   5.628 -0.8098 -1.0222  1.0320
 9424SOL    HW233120   2.256   6.073   5.618 -1.9443 -1.7775 -0.0963
 9425SOL     OW33121   7.751   6.823   5.337  0.6993  0.0249  0.6440
 9425SOL    HW133122   7.738   6.766   5.413 -0.2587  1.4560  1.6217
 9425SOL    HW233123   7.662   6.843   5.307  0.9882  1.2232  0.5312
 9426SOL     OW33124   3.859   4.425   2.252 -0.2620  0.1004 -0.0083
 9426SOL    HW133125   3.816   4.361   2.196 -0.7421  0.4832 -0.0769
 9426SOL    HW233126   3.791   4.453   2.314  0.0921  0.1446  0.3675
 9427SOL     OW33127   0.854   6.647   7.050 -0.2429  0.2844  0.0793
 9427SOL    HW133128   0.894   6.571   7.007 -0.8999 -0.2838  0.4414
 9427SOL    HW233129   0.760   6.634   7.037 -0.3301  1.4959 -0.5993
 9428SOL     OW33130   8.942   2.840   0.957  0.2775 -0.0062  0.6679
 9428SOL    HW133131   8.934   2.904   0.887  1.0799  1.9628  2.2855
 9428SOL    HW233132   9.036   2.834   0.974  0.0473  0.2960  2.1897
 9429SOL     OW33133   4.470   4.171   6.369 -0.1092 -1.0141 -0.4616
 9429SOL    HW133134   4.554   4.127   6.384  0.4735 -0.0517 -0.8277
 9429SOL    HW233135   4.452   4.216   6.452  1.5297  1.6838 -1.4559
 9430SOL     OW33136   5.130   7.470   6.759  0.2966  0.5740  0.2777
 9430SOL    HW133137   5.050   7.419   6.769  1.7990 -1.8485  0.7204
 9430SOL    HW233138   5.195   7.407   6.727  2.7439  1.7226  2.6195
 9431SOL     OW33139   6.082   3.486   5.154  0.6587  0.3045 -0.1792
 9431SOL    HW133140   6.008   3.425   5.147  1.0347 -0.2338  0.4113
 9431SOL    HW233141   6.049   3.568   5.119  0.2072 -0.2940 -1.2301
 9432SOL     OW33142   5.090   1.906   7.689 -0.3607  0.0477  0.5360
 9432SOL    HW133143   5.132   1.821   7.674  0.8131  0.6342  0.4191
 9432SOL    HW233144   5.018   1.908   7.626  1.7860  0.6275 -2.0891
 9433SOL     OW33145   5.463   7.798   5.499  0.4690 -0.3824 -0.0935
 9433SOL    HW133146   5.392   7.747   5.537 -0.3766 -1.0861 -2.4616
 9433SOL    HW233147   5.422   7.848   5.428  2.2514 -0.5467 -1.2980
 9434SOL     OW33148   1.076   9.610   3.813 -0.1843 -0.1258  0.2318
 9434SOL    HW133149   1.170   9.589   3.820 -0.5609 -2.3401 -0.5227
 9434SOL    HW233150   1.058   9.604   3.719 -1.2100 -0.4031  0.4396
 9435SOL     OW33151   8.879   8.622   2.355 -0.0014  0.3216 -0.2874
 9435SOL    HW133152   8.955   8.631   2.298 -0.4944  2.4240 -0.6972
 9435SOL    HW233153   8.883   8.699   2.411 -1.5436  0.1712  0.0518
 9436SOL     OW33154   4.765   6.643   4.084  0.2807 -0.4654  0.1104
 9436SOL    HW133155   4.769   6.596   4.168 -3.0270  0.6398  1.0497
 9436SOL    HW233156   4.790   6.732   4.106  1.6538 -0.6502 -0.6209
 9437SOL     OW33157   8.006   0.312   4.472 -0.6256  0.1040 -0.3392
 9437SOL    HW133158   7.975   0.371   4.541  0.3026 -1.1524  1.2313
 9437SOL    HW233159   7.931   0.257   4.452  0.1924 -2.7192  3.2236
 9438SOL     OW33160   3.695   3.663   0.316  0.6313 -0.0007 -0.3877
 9438SOL    HW133161   3.778   3.653   0.364 -0.6691 -1.7595  1.7045
 9438SOL    HW233162   3.636   3.705   0.379 -0.5176 -0.2502 -1.2645
 9439SOL     OW33163   1.443   3.041   6.358  0.2040 -0.0632 -0.4837
 9439SOL    HW133164   1.470   3.130   6.380  1.9102 -0.0441 -2.3924
 9439SOL    HW233165   1.512   2.985   6.394  0.4399 -0.3966 -1.4355
 9440SOL     OW33166   2.295   8.914   7.200 -0.0947 -0.1288 -0.4264
 9440SOL    HW133167   2.272   8.994   7.249  1.3384 -0.6278  1.1516
 9440SOL    HW233168   2.375   8.937   7.153 -0.8796  0.0050 -1.7535
 9441SOL     OW33169   5.987   0.017   4.564 -0.2821  0.4469  0.6096
 9441SOL    HW133170   5.974  -0.030   4.481 -1.5876  1.5925  0.1238
 9441SOL    HW233171   5.927  -0.026   4.625 -0.1040  0.2817  0.6671
 9442SOL     OW33172   4.022   9.366   4.683  0.0948 -0.1556 -0.4248
 9442SOL    HW133173   4.044   9.417   4.605  2.0880 -0.5008 -0.1472
 9442SOL    HW233174   4.063   9.281   4.669 -0.1444 -0.4686  0.6697
 9443SOL     OW33175   0.501   2.334   9.487  0.3976  0.5771 -0.4532
 9443SOL    HW133176   0.541   2.420   9.476 -1.7130  1.7027  0.1266
 9443SOL    HW233177   0.414   2.343   9.448  0.3165 -1.4774 -0.8537
 9444SOL     OW33178   9.153   2.113   6.164 -0.3711 -0.3861 -0.1409
 9444SOL    HW133179   9.215   2.174   6.125 -1.0485 -0.3747 -1.2653
 9444SOL    HW233180   9.184   2.099   6.253  0.6803  0.3674 -0.3796
 9445SOL     OW33181   0.463   7.485   0.328 -0.0279 -0.4882  0.3579
 9445SOL    HW133182   0.496   7.396   0.341  2.9591  0.1102 -1.9222
 9445SOL    HW233183   0.484   7.531   0.409  0.3303 -1.3559  0.7669
 9446SOL     OW33184   0.501   7.091   6.189  0.5101  0.4377 -0.5341
 9446SOL    HW133185   0.495   7.185   6.171  0.5641  0.5172 -0.1248
 9446SOL    HW233186   0.589   7.066   6.161 -0.2355  0.0433 -2.8198
 9447SOL     OW33187   9.696   6.793   7.251  0.0300 -0.3075 -0.0719
 9447SOL    HW133188   9.726   6.784   7.160  2.7625 -0.0049  0.6858
 9447SOL    HW233189   9.705   6.705   7.288 -1.2111 -0.4611 -0.0922
 9448SOL     OW33190   9.675   8.843   0.724  0.1217  0.0039  0.1575
 9448SOL    HW133191   9.691   8.866   0.632  1.4562 -2.1480 -0.2392
 9448SOL    HW233192   9.593   8.794   0.722  0.9032 -1.3637 -0.2031
 9449SOL     OW33193   1.502   2.041   0.599 -0.2659 -0.1676  0.0869
 9449SOL    HW133194   1.433   2.104   0.578 -0.0557 -0.0398 -0.2273
 9449SOL    HW233195   1.581   2.079   0.562 -0.4321 -1.4491 -1.6859
 9450SOL     OW33196   2.560   0.298   8.199 -0.3430 -0.0844  0.1761
 9450SOL    HW133197   2.552   0.300   8.294 -1.3402 -1.2964  0.1543
 9450SOL    HW233198   2.503   0.369   8.169  1.4181  1.5311  0.5015
 9451SOL     OW33199   4.442   8.662   3.977 -0.7923  0.0848  0.0164
 9451SOL    HW133200   4.432   8.729   4.044  0.7415 -0.2181  0.5945
 9451SOL    HW233201   4.503   8.701   3.914  0.4167 -0.8501  0.5511
 9452SOL     OW33202   9.051   0.760   3.009 -0.1488 -0.3596  0.3163
 9452SOL    HW133203   9.119   0.807   2.961  0.7727 -1.6445  0.3008
 9452SOL    HW233204   9.099   0.698   3.064 -1.2074  0.6473  2.4652
 9453SOL     OW33205   5.739   9.753   0.734  0.4736 -0.5452 -0.2898
 9453SOL    HW133206   5.651   9.746   0.698  0.9069 -1.4228 -1.2329
 9453SOL    HW233207   5.726   9.763   0.828 -0.6258 -0.6787 -0.4165
 9454SOL     OW33208   9.695   8.141   7.783 -0.7474  0.4245  0.0734
 9454SOL    HW133209   9.668   8.230   7.806 -0.2141  0.2022  1.6691
 9454SOL    HW233210   9.641   8.084   7.838  0.1482 -0.1606  0.3760
 9455SOL     OW33211   8.998   3.027   8.770  1.0144 -0.6315 -0.0944
 9455SOL    HW133212   9.068   3.023   8.705  0.2675 -2.3225 -0.8528
 9455SOL    HW233213   9.017   2.954   8.829  0.7194 -0.1599  0.5908
 9456SOL     OW33214   0.793   4.727   5.448  0.3317 -0.9143  0.0181
 9456SOL    HW133215   0.718   4.669   5.439 -0.2967 -0.0271 -0.5875
 9456SOL    HW233216   0.818   4.720   5.541 -2.3986  1.0527  1.0275
 9457SOL     OW33217   4.529   1.021   0.244  0.6676 -0.7673 -0.3700
 9457SOL    HW133218   4.518   0.982   0.158  0.9774 -0.3615 -0.5957
 9457SOL    HW233219   4.525   1.116   0.229 -1.3506 -0.6983  0.3410
 9458SOL     OW33220   7.491   3.579   2.650 -0.0280 -0.1764 -0.2878
 9458SOL    HW133221   7.579   3.615   2.661  0.5709 -1.5856 -0.2109
 9458SOL    HW233222   7.460   3.616   2.567  0.0792  1.3631  0.3169
 9459SOL     OW33223   0.098   2.043   0.692 -0.0959 -0.0794 -0.2659
 9459SOL    HW133224   0.108   1.952   0.662  1.4051  0.9634 -3.2865
 9459SOL    HW233225   0.182   2.063   0.733 -0.2241  0.1259 -0.1025
 9460SOL     OW33226   1.755   2.414   1.010  0.0433 -0.1013 -0.1824
 9460SOL    HW133227   1.665   2.380   1.014 -0.0253  0.1866  2.4899
 9460SOL    HW233228   1.810   2.336   1.021  0.1511 -0.2305 -1.4692
 9461SOL     OW33229   6.993   8.571   0.065 -0.5201 -0.4097 -0.3796
 9461SOL    HW133230   7.000   8.653   0.113 -0.6750 -0.4226 -0.3327
 9461SOL    HW233231   6.919   8.526   0.106 -2.2935  0.6654 -2.2069
 9462SOL     OW33232   5.831   5.681   6.192 -0.0124  0.4906 -0.1362
 9462SOL    HW133233   5.744   5.647   6.170 -0.0680  2.3208 -3.3020
 9462SOL    HW233234   5.882   5.669   6.112  1.6545  2.4338  0.5582
 9463SOL     OW33235   1.538   6.518   0.455 -0.5159  0.4380  0.5795
 9463SOL    HW133236   1.451   6.530   0.492 -1.2582  0.7433 -1.1910
 9463SOL    HW233237   1.537   6.567   0.373  1.0111 -0.3134  0.0638
 9464SOL     OW33238   5.678   0.835   0.323 -0.2113 -0.6068 -0.4922
 9464SOL    HW133239   5.713   0.749   0.349 -1.0436 -1.1626 -1.1352
 9464SOL    HW233240   5.583   0.821   0.317 -0.6216  0.9140  1.4279
 9465SOL     OW33241   6.038   7.185   3.519  0.3086  0.6824 -0.1094
 9465SOL    HW133242   6.053   7.199   3.426  1.1969  1.7599  0.1744
 9465SOL    HW233243   6.050   7.271   3.559 -0.3359  0.2911  0.9672
 9466SOL     OW33244   4.132   2.231   2.415  0.2566 -0.0534  0.4400
 9466SOL    HW133245   4.078   2.297   2.458  0.2933  1.1952 -1.3200
 9466SOL    HW233246   4.204   2.280   2.376  0.1152 -1.0351 -1.1901
 9467SOL     OW33247   6.290   7.017   3.559 -0.5612  0.2612  0.3642
 9467SOL    HW133248   6.226   7.076   3.521 -2.7331 -1.5824  0.9058
 9467SOL    HW233249   6.241   6.970   3.628  1.0157 -2.0660  0.0162
 9468SOL     OW33250   2.911   4.298   5.059  0.6943  0.4921  0.4400
 9468SOL    HW133251   2.824   4.273   5.029  0.7430 -0.7375  1.2333
 9468SOL    HW233252   2.914   4.393   5.050 -0.7962  0.5732  0.5796
 9469SOL     OW33253   8.865   3.593   5.042  0.2100 -0.1084 -0.3282
 9469SOL    HW133254   8.828   3.563   4.959  3.0452  1.2280 -2.2603
 9469SOL    HW233255   8.887   3.513   5.090 -1.9577 -0.9050 -0.5749
 9470SOL     OW33256   8.518   9.732   1.905 -0.1299 -0.0232  0.0483
 9470SOL    HW133257   8.512   9.812   1.958  1.6140  0.7006 -0.7633
 9470SOL    HW233258   8.433   9.725   1.862 -1.3330 -0.2008  2.2665
 9471SOL     OW33259   6.775   4.472   7.826  0.3977  0.7256  0.3343
 9471SOL    HW133260   6.804   4.531   7.756 -0.2389  0.1673 -0.4136
 9471SOL    HW233261   6.853   4.424   7.852  0.3282 -0.2156 -1.1287
 9472SOL     OW33262   4.757   4.908   0.273 -0.3755 -0.2304 -0.1553
 9472SOL    HW133263   4.847   4.934   0.289 -0.6152  1.5083 -1.4205
 9472SOL    HW233264   4.709   4.937   0.351  0.0368 -0.6502  0.2625
 9473SOL     OW33265   5.795   6.400   9.201 -0.0072 -0.3094 -0.0787
 9473SOL    HW133266   5.747   6.340   9.144 -1.0139  0.8593 -0.5086
 9473SOL    HW233267   5.812   6.349   9.280  1.6176 -2.0470 -1.4459
 9474SOL     OW33268   7.088   4.661   4.378 -0.0949 -0.2395 -0.2291
 9474SOL    HW133269   7.106   4.748   4.413  0.7604  0.0171 -1.2673
 9474SOL    HW233270   7.023   4.624   4.438 -1.8821  1.8130 -0.7975
 9475SOL     OW33271   0.883   1.459   8.083  0.0284  0.0684  0.2724
 9475SOL    HW133272   0.868   1.550   8.110  0.3408 -0.1647  1.2719
 9475SOL    HW233273   0.931   1.420   8.156 -2.1237 -1.5416  0.9403
 9476SOL     OW33274   4.455   0.995   8.552 -0.5255  0.1660  0.0859
 9476SOL    HW133275   4.513   1.026   8.622 -3.1093  1.7853  1.7116
 9476SOL    HW233276   4.501   1.018   8.471  0.9288  1.7713  1.2742
 9477SOL     OW33277   0.513   9.731   3.173  0.4252  0.7642 -0.0371
 9477SOL    HW133278   0.569   9.695   3.241 -0.9556  0.6525  1.1067
 9477SOL    HW233279   0.462   9.656   3.142 -0.5873  1.2181  0.4765
 9478SOL     OW33280   5.694   4.828   0.895  0.1623 -0.3706 -0.0521
 9478SOL    HW133281   5.671   4.910   0.853  0.1576  0.2752  1.1656
 9478SOL    HW233282   5.753   4.785   0.834 -0.7095  0.0239 -1.1969
 9479SOL     OW33283   7.106   7.099   8.859 -0.0478 -0.1675 -0.1214
 9479SOL    HW133284   7.087   7.008   8.835  2.7241 -0.1777 -2.9709
 9479SOL    HW233285   7.098   7.147   8.777  0.6629  1.7575  0.8816
 9480SOL     OW33286   5.646   8.670   0.685  0.1896 -0.3070  0.1133
 9480SOL    HW133287   5.726   8.718   0.664 -0.3962  1.5088  1.7795
 9480SOL    HW233288   5.584   8.737   0.714 -1.2278 -1.9012  0.9560
 9481SOL     OW33289   7.190   7.444   9.056 -0.0806  0.0023 -0.1648
 9481SOL    HW133290   7.101   7.434   9.022 -0.7739  2.2419  0.8192
 9481SOL    HW233291   7.227   7.517   9.006  1.1965 -0.8391 -0.4923
 9482SOL     OW33292   4.936   8.720   1.508  0.3403  0.5041  0.3449
 9482SOL    HW133293   4.889   8.760   1.434  3.9697  2.9016 -0.9534
 9482SOL    HW233294   4.922   8.781   1.581 -0.1846  0.1531  0.5375
 9483SOL     OW33295   7.685   5.890   8.802  0.0349  0.2248  0.2255
 9483SOL    HW133296   7.646   5.901   8.889  1.0507  3.4475  0.3860
 9483SOL    HW233297   7.776   5.869   8.819 -0.5181 -2.9907 -0.1673
 9484SOL     OW33298   5.815   8.951   0.154  0.4312  0.1727 -0.4236
 9484SOL    HW133299   5.746   8.885   0.159  2.3708 -1.9052  0.5746
 9484SOL    HW233300   5.819   8.975   0.061 -1.6354  0.4389 -0.4949
 9485SOL     OW33301   3.882   5.998   9.668  0.4152  1.0483 -0.1088
 9485SOL    HW133302   3.863   5.930   9.733 -0.5407  0.6109 -0.8224
 9485SOL    HW233303   3.812   6.063   9.679  0.8740  1.5280  0.0318
 9486SOL     OW33304   5.799   8.535   4.174 -0.3547 -0.0671  0.2271
 9486SOL    HW133305   5.892   8.558   4.163 -0.2374 -0.8322 -0.5205
 9486SOL    HW233306   5.801   8.445   4.207 -0.8368 -0.1714 -0.0302
 9487SOL     OW33307   7.695   1.412   9.369  0.2332 -0.0686  0.3233
 9487SOL    HW133308   7.668   1.395   9.459  0.5289 -3.0222 -0.0625
 9487SOL    HW233309   7.784   1.376   9.364  0.1405 -0.1309 -1.2018
 9488SOL     OW33310   1.305   7.653   3.720  0.0691 -0.4950 -0.2425
 9488SOL    HW133311   1.312   7.709   3.642 -1.5821  1.4694  0.9177
 9488SOL    HW233312   1.359   7.696   3.785 -1.2835 -0.1427  0.6971
 9489SOL     OW33313   4.154   1.612   7.859 -0.0397  0.2534  0.5531
 9489SOL    HW133314   4.092   1.603   7.786 -2.1553 -0.7389  2.3399
 9489SOL    HW233315   4.220   1.544   7.843 -1.0271 -0.6109  0.0640
 9490SOL     OW33316   7.251   1.192   1.607 -0.3949  0.2622 -0.3517
 9490SOL    HW133317   7.224   1.115   1.657 -0.1118 -0.4679 -1.2856
 9490SOL    HW233318   7.346   1.196   1.618 -0.6285  2.0314  1.8093
 9491SOL     OW33319   8.985   9.432   3.825  0.1510 -0.4612 -0.6950
 9491SOL    HW133320   9.006   9.522   3.801  0.0486  0.7150  3.0988
 9491SOL    HW233321   9.068   9.397   3.858 -0.0404 -1.4743 -1.2492
 9492SOL     OW33322   4.770   5.201   2.989 -0.2541 -0.0249  0.0593
 9492SOL    HW133323   4.776   5.203   3.084  0.0266  2.0036  0.0445
 9492SOL    HW233324   4.700   5.264   2.968 -0.6880 -0.8411 -1.0559
 9493SOL     OW33325   4.633   1.892   0.085 -0.3947  0.5111  0.4198
 9493SOL    HW133326   4.581   1.834   0.141 -0.0684 -1.3845 -1.1207
 9493SOL    HW233327   4.711   1.911   0.136 -0.1071 -1.1702  0.6828
 9494SOL     OW33328   4.421   6.610   0.402 -0.6082 -0.0924  0.1378
 9494SOL    HW133329   4.343   6.622   0.347 -0.8321 -2.0838 -0.0762
 9494SOL    HW233330   4.387   6.576   0.485 -0.0411 -0.1859  0.3342
 9495SOL     OW33331   8.205   4.318   5.648  0.5724 -0.0200  0.0380
 9495SOL    HW133332   8.179   4.258   5.719  0.6896 -0.3196 -0.1724
 9495SOL    HW233333   8.166   4.402   5.673 -1.4577 -0.6743 -0.7554
 9496SOL     OW33334   2.494   8.573   9.049  0.2427 -0.2456 -0.2276
 9496SOL    HW133335   2.435   8.542   9.118  1.1919 -2.3788 -0.2698
 9496SOL    HW233336   2.478   8.667   9.043 -0.8803 -0.2421  1.9021
 9497SOL     OW33337   8.273   8.438   9.228  0.3299 -0.3414  0.5069
 9497SOL    HW133338   8.309   8.358   9.267  0.0621 -1.3670 -1.2191
 9497SOL    HW233339   8.198   8.408   9.178 -0.7507  1.2534  1.0959
 9498SOL     OW33340   5.697   3.286   0.285 -0.1961  0.4067 -0.2178
 9498SOL    HW133341   5.676   3.354   0.349  1.2740  0.8357 -0.1541
 9498SOL    HW233342   5.668   3.205   0.327 -0.9690  0.8714  0.1738
 9499SOL     OW33343   5.177   6.180   0.910  0.0177  0.2587  0.4297
 9499SOL    HW133344   5.164   6.087   0.892 -2.7032  0.7050 -0.3547
 9499SOL    HW233345   5.232   6.182   0.989  0.8719 -1.9580 -0.0526
 9500SOL     OW33346   0.526   3.500   9.267 -0.0777 -0.1731 -0.3120
 9500SOL    HW133347   0.493   3.481   9.355 -0.9506  1.1054 -0.3354
 9500SOL    HW233348   0.616   3.467   9.268 -0.6564 -1.8843  0.4360
 9501SOL     OW33349   1.913   3.969   0.341 -0.3696  0.2517  0.3575
 9501SOL    HW133350   1.969   3.892   0.348 -1.7652 -0.8050  0.2760
 9501SOL    HW233351   1.887   3.988   0.431  0.4008  0.9837  0.4403
 9502SOL     OW33352   5.442   2.119   6.544  0.0184 -0.4860  0.0447
 9502SOL    HW133353   5.360   2.150   6.583 -0.7839 -1.0929 -1.0749
 9502SOL    HW233354   5.476   2.195   6.497 -0.6031 -0.5640 -0.5618
 9503SOL     OW33355   5.492   7.275   5.371 -0.3025 -0.3151 -0.0179
 9503SOL    HW133356   5.417   7.219   5.350  0.2351 -1.0925  0.1178
 9503SOL    HW233357   5.568   7.218   5.367 -0.0135 -0.3412  2.9891
 9504SOL     OW33358   1.058   8.019   8.883 -0.0929  0.2218 -0.0175
 9504SOL    HW133359   0.982   7.969   8.853  0.3591 -0.4039 -0.1405
 9504SOL    HW233360   1.119   7.952   8.913 -0.2323  0.7823  1.6099
 9505SOL     OW33361   1.036   5.487   5.279 -0.0886  0.6257  0.2873
 9505SOL    HW133362   1.131   5.487   5.292  0.1390 -2.9760 -0.3552
 9505SOL    HW233363   1.005   5.410   5.327 -2.1592 -0.3455 -2.3444
 9506SOL     OW33364   0.994   6.938   0.523 -0.5629 -0.4681 -0.1172
 9506SOL    HW133365   0.915   6.950   0.576  0.1614 -1.9964  1.4233
 9506SOL    HW233366   0.970   6.871   0.459 -0.7479 -0.3319 -0.1913
 9507SOL     OW33367   6.262   0.019   2.992 -0.2132 -0.2495  0.6576
 9507SOL    HW133368   6.355   0.043   2.993  0.1516 -1.5461 -0.1530
 9507SOL    HW233369   6.227   0.059   3.071  0.2237  3.2444 -0.7519
 9508SOL     OW33370   5.711   3.507   4.059 -0.1689  0.1285 -0.2999
 9508SOL    HW133371   5.771   3.508   3.984 -1.4454 -2.3301 -1.4780
 9508SOL    HW233372   5.654   3.583   4.045 -0.1090 -0.0469 -1.5756
 9509SOL     OW33373   7.884   8.307   3.504  0.2090  0.0816  0.3104
 9509SOL    HW133374   7.812   8.339   3.449  1.9279 -0.0042 -2.1548
 9509SOL    HW233375   7.962   8.342   3.462  1.6770 -0.5624  2.3899
 9510SOL     OW33376   2.950   0.333   2.635  0.0150 -0.5334  0.1966
 9510SOL    HW133377   2.934   0.419   2.597  1.8260  0.7872  2.2272
 9510SOL    HW233378   3.045   0.328   2.646 -0.2321 -1.7392  2.3993
 9511SOL     OW33379   8.034   6.234   4.159 -0.2498 -0.1671  0.9480
 9511SOL    HW133380   7.975   6.269   4.093  0.8187 -0.2055 -0.0591
 9511SOL    HW233381   8.044   6.306   4.221 -0.5517  0.1934  0.5864
 9512SOL     OW33382   3.272   1.377   1.589  0.0522  0.2383  0.0241
 9512SOL    HW133383   3.350   1.327   1.614  0.2038  0.3976 -0.1235
 9512SOL    HW233384   3.256   1.352   1.498 -0.6566 -0.5474  0.3472
 9513SOL     OW33385   5.115   5.864   1.449 -0.4157 -0.2151  0.1725
 9513SOL    HW133386   5.185   5.818   1.404  0.2273  0.5025  0.4210
 9513SOL    HW233387   5.106   5.818   1.533 -0.0408 -0.1425  0.2555
 9514SOL     OW33388   8.824   1.633   7.212  0.0802 -0.0359  0.2213
 9514SOL    HW133389   8.857   1.551   7.249  0.7431 -0.8191 -1.9525
 9514SOL    HW233390   8.895   1.696   7.224  0.0070 -0.0664  0.8766
 9515SOL     OW33391   9.449   7.594   5.556 -0.8694 -0.1842 -0.0174
 9515SOL    HW133392   9.426   7.669   5.611  0.1267  1.0509 -1.1980
 9515SOL    HW233393   9.543   7.583   5.569 -1.1007 -1.6120  0.5672
 9516SOL     OW33394   3.444   7.110   4.460  1.0069 -0.4498  0.8682
 9516SOL    HW133395   3.489   7.080   4.539  0.2328  1.0284  1.9223
 9516SOL    HW233396   3.355   7.130   4.489  0.3299 -1.0397 -0.6648
 9517SOL     OW33397   0.148   8.456   1.767  0.3906 -0.0428  0.0640
 9517SOL    HW133398   0.109   8.497   1.845 -1.4565 -0.1269 -0.7649
 9517SOL    HW233399   0.133   8.519   1.697 -0.2007 -1.0184 -0.7101
 9518SOL     OW33400   8.479   3.887   6.221 -0.0256 -0.1899  0.1434
 9518SOL    HW133401   8.532   3.966   6.208 -0.6049  0.3423  0.9538
 9518SOL    HW233402   8.402   3.901   6.165  0.9960 -1.3186 -1.6667
 9519SOL     OW33403   5.203   2.452   0.601  0.2663  0.3369  0.1924
 9519SOL    HW133404   5.210   2.476   0.509  0.7356 -1.5864 -0.3330
 9519SOL    HW233405   5.131   2.505   0.635 -0.5932  0.3436 -1.5433
 9520SOL     OW33406   8.715   3.065   0.850 -0.3010  0.8332  0.1338
 9520SOL    HW133407   8.644   3.130   0.844 -3.0165 -1.9189  0.2997
 9520SOL    HW233408   8.731   3.056   0.944  0.5927  1.6818  0.0862
 9521SOL     OW33409   1.457   3.904   8.436  0.0498 -0.0563  0.0788
 9521SOL    HW133410   1.550   3.928   8.433 -0.0851  0.4313 -1.0804
 9521SOL    HW233411   1.411   3.982   8.404 -1.0433  0.8026  3.3389
 9522SOL     OW33412   6.533   0.077   9.517 -0.2677  0.1833 -0.5920
 9522SOL    HW133413   6.462   0.060   9.457 -0.2157 -0.5183 -0.4606
 9522SOL    HW233414   6.491   0.090   9.602 -0.2616  0.0974 -0.5757
 9523SOL     OW33415   0.107   5.542   7.104  0.1842 -0.2478 -0.0566
 9523SOL    HW133416   0.082   5.514   7.192 -0.7492 -2.5100 -0.9625
 9523SOL    HW233417   0.040   5.607   7.080  0.1043 -0.0566  0.6631
 9524SOL     OW33418   4.009   3.301   6.443  0.2391  0.0802 -0.1268
 9524SOL    HW133419   4.064   3.370   6.407 -0.6719  0.9077  0.0431
 9524SOL    HW233420   4.020   3.227   6.383 -1.7238  1.6024 -2.5046
 9525SOL     OW33421   7.128   3.311   3.384  0.4350 -0.1580 -0.2236
 9525SOL    HW133422   7.068   3.372   3.342 -1.2728 -1.6041 -0.0054
 9525SOL    HW233423   7.099   3.308   3.475  1.7426  0.1312  0.2359
 9526SOL     OW33424   4.295   1.999   8.953 -0.2951  0.4909 -0.7485
 9526SOL    HW133425   4.207   2.016   8.985 -0.3220 -0.3266 -0.3848
 9526SOL    HW233426   4.285   1.991   8.858 -0.5579  0.7202 -0.7417
 9527SOL     OW33427   7.873   1.034   3.930  0.5827 -0.4061  0.4653
 9527SOL    HW133428   7.799   1.024   3.989  1.3808 -0.7371  1.4243
 9527SOL    HW233429   7.940   0.974   3.963  1.3278 -0.0437 -0.3154
 9528SOL     OW33430   5.333   4.703   7.146  0.7219 -0.5439 -0.2064
 9528SOL    HW133431   5.338   4.713   7.242  0.7577  0.5311 -0.3078
 9528SOL    HW233432   5.244   4.672   7.130  0.4127  0.1427  0.1190
 9529SOL     OW33433   0.471   8.887   2.287 -0.3121 -0.3617  0.4737
 9529SOL    HW133434   0.471   8.791   2.285 -0.2874 -0.3615  0.4663
 9529SOL    HW233435   0.516   8.912   2.206  1.9094 -0.3742  1.6172
 9530SOL     OW33436   4.591   3.533   2.611  0.0197  0.5357 -0.6024
 9530SOL    HW133437   4.605   3.438   2.609  1.0989  0.5754  1.6758
 9530SOL    HW233438   4.497   3.544   2.626  0.2944 -0.3573  2.5271
 9531SOL     OW33439   2.037   7.881   1.995  0.2900  0.3307 -0.3758
 9531SOL    HW133440   1.991   7.962   1.973  0.7320  1.3903  2.1744
 9531SOL    HW233441   2.129   7.900   1.975  0.4892  0.7686  0.8411
 9532SOL     OW33442   9.447   5.771   0.098 -0.0305 -0.1759 -0.3481
 9532SOL    HW133443   9.536   5.808   0.094  1.1153 -2.7945 -2.4839
 9532SOL    HW233444   9.436   5.746   0.190  1.1443  0.8533  0.0978
 9533SOL     OW33445   2.105   0.153   6.234  0.1502  0.9497  0.0367
 9533SOL    HW133446   2.161   0.092   6.281 -0.3505  1.3726  1.2161
 9533SOL    HW233447   2.056   0.098   6.173  2.7282  0.7029 -2.0174
 9534SOL     OW33448   3.285   0.932   5.179 -0.0938  0.3051 -0.1390
 9534SOL    HW133449   3.376   0.925   5.206  0.3249 -0.2210 -1.5729
 9534SOL    HW233450   3.287   0.985   5.099 -1.2653  1.7894  0.7680
 9535SOL     OW33451   2.893   0.240   8.036 -0.0183 -0.7199  0.2526
 9535SOL    HW133452   2.809   0.258   7.993  0.3330 -1.7494 -0.9219
 9535SOL    HW233453   2.920   0.155   8.002  0.4677 -1.4430  2.3060
 9536SOL     OW33454   3.165   4.612   0.062 -0.0022  0.4786  0.2934
 9536SOL    HW133455   3.191   4.541   0.004  1.3024  0.5068  0.8067
 9536SOL    HW233456   3.070   4.620   0.050  0.2550  0.6558 -1.9880
 9537SOL     OW33457   0.089   5.651   0.608  0.5655  0.1542  0.0208
 9537SOL    HW133458   0.182   5.654   0.582  0.2490  1.3125 -1.0582
 9537SOL    HW233459   0.075   5.559   0.632  1.8576 -0.1604 -0.3155
 9538SOL     OW33460   9.495   6.750   5.624  0.0766  0.2644  0.0152
 9538SOL    HW133461   9.573   6.747   5.569  0.2978 -0.9671  0.3747
 9538SOL    HW233462   9.516   6.814   5.692  0.8439 -0.1926  0.2145
 9539SOL     OW33463   2.239   2.970   2.126 -0.2435 -0.1493  0.1273
 9539SOL    HW133464   2.233   2.875   2.123  0.8662 -0.2442  0.5466
 9539SOL    HW233465   2.201   2.994   2.210 -0.4274 -0.2234  0.0667
 9540SOL     OW33466   2.599   2.170   2.729 -0.0800  0.0035 -0.5011
 9540SOL    HW133467   2.655   2.133   2.797 -0.3135  0.3059 -0.1421
 9540SOL    HW233468   2.548   2.096   2.697  0.0636 -0.1496 -0.3784
 9541SOL     OW33469   6.759   4.550   2.814 -0.0732  0.3616 -0.3301
 9541SOL    HW133470   6.837   4.606   2.810  3.4454 -4.0394 -1.8869
 9541SOL    HW233471   6.766   4.506   2.899 -1.8827  1.0499  0.2099
 9542SOL     OW33472   0.716   0.970   7.740 -0.7476  0.4805  0.0622
 9542SOL    HW133473   0.809   0.961   7.758 -1.1505  0.5404  2.5058
 9542SOL    HW233474   0.712   1.018   7.657  1.4126  1.9752  0.7435
 9543SOL     OW33475   4.374   4.370   0.277  0.1486  0.1754 -0.9292
 9543SOL    HW133476   4.455   4.405   0.317  0.8842 -1.5488 -0.8506
 9543SOL    HW233477   4.381   4.395   0.185  0.2443  0.9494 -0.7251
 9544SOL     OW33478   5.657   3.581   3.279  0.1485  0.0209 -0.4527
 9544SOL    HW133479   5.597   3.531   3.335  1.3013 -0.9832 -0.0598
 9544SOL    HW233480   5.738   3.587   3.331  1.4987 -1.5508 -2.2432
 9545SOL     OW33481   8.486   0.744   1.993 -0.4909 -0.2420  0.2771
 9545SOL    HW133482   8.561   0.730   1.936 -0.8086  1.3557 -0.5857
 9545SOL    HW233483   8.460   0.656   2.020  0.6538 -0.9290 -0.7493
 9546SOL     OW33484   8.036   1.796   6.279 -0.1997  0.1779 -0.4360
 9546SOL    HW133485   8.105   1.803   6.213  0.0745 -0.3592 -0.2181
 9546SOL    HW233486   8.014   1.886   6.301  1.7343  0.4138  0.8061
 9547SOL     OW33487   1.318   0.591   8.273 -0.2094  0.1976 -0.4043
 9547SOL    HW133488   1.250   0.532   8.304 -1.4430  0.9947 -1.4784
 9547SOL    HW233489   1.336   0.649   8.347 -1.6564  0.8050 -0.5008
 9548SOL     OW33490   2.658   6.120   2.551  0.0985 -0.4300  0.1942
 9548SOL    HW133491   2.737   6.128   2.497 -0.0718 -1.0934 -0.1639
 9548SOL    HW233492   2.681   6.165   2.633  0.7564 -0.3877 -0.0058
 9549SOL     OW33493   7.492   0.475   1.666  0.4269 -0.6428 -0.1692
 9549SOL    HW133494   7.572   0.518   1.636 -0.1428  1.3968  1.0976
 9549SOL    HW233495   7.503   0.468   1.761 -0.0730 -2.1663 -0.2005
 9550SOL     OW33496   2.058   1.046   6.211  0.2014  0.1321 -0.1456
 9550SOL    HW133497   2.019   1.130   6.234 -0.0378 -0.1000  0.3183
 9550SOL    HW233498   1.993   0.981   6.237  0.7939 -0.2500  0.4236
 9551SOL     OW33499   7.775   0.395   2.063  0.2624 -0.2932 -0.5516
 9551SOL    HW133500   7.735   0.319   2.021 -0.4255 -0.2734  0.0419
 9551SOL    HW233501   7.779   0.462   1.994  0.8340 -0.8410 -1.0652
 9552SOL     OW33502   1.991   2.136   9.089  0.6014  0.4497 -0.3881
 9552SOL    HW133503   1.921   2.113   9.149  0.7439  0.3011 -0.2785
 9552SOL    HW233504   2.030   2.215   9.126 -1.4057  2.3359 -1.9913
 9553SOL     OW33505   0.692   5.509   8.983 -0.3235  0.0992 -0.6571
 9553SOL    HW133506   0.644   5.523   8.902  0.2599  0.4044 -0.9538
 9553SOL    HW233507   0.750   5.584   8.990  0.0533 -0.2230 -0.2594
 9554SOL     OW33508   4.176   8.033   1.054 -0.4044  0.1498  0.4362
 9554SOL    HW133509   4.098   7.994   1.015 -0.3846  1.1174 -0.6342
 9554SOL    HW233510   4.243   7.966   1.047 -0.4228  0.2630 -1.1804
 9555SOL     OW33511   7.112   9.391   3.088  0.6399 -0.1062  0.2739
 9555SOL    HW133512   7.051   9.321   3.110  0.3513 -0.1052 -0.4935
 9555SOL    HW233513   7.198   9.359   3.115  0.4779 -0.6726  0.1153
 9556SOL     OW33514   5.989   3.014   0.137 -0.4485 -0.1141  0.2248
 9556SOL    HW133515   5.979   2.949   0.207 -1.5377 -2.9183 -2.3330
 9556SOL    HW233516   6.083   3.028   0.131 -0.2247 -1.0747  1.1622
 9557SOL     OW33517   0.543   6.760   4.854  0.2772  0.1010  0.9296
 9557SOL    HW133518   0.620   6.791   4.807  1.9910 -0.8834  2.9293
 9557SOL    HW233519   0.565   6.769   4.946 -1.8141 -0.6817  1.5819
 9558SOL     OW33520   7.831   7.975   8.772  0.8097 -0.4203 -0.0582
 9558SOL    HW133521   7.844   8.068   8.792 -0.6417  0.0025 -0.9303
 9558SOL    HW233522   7.764   7.946   8.834 -1.2105  0.0307 -1.8951
 9559SOL     OW33523   3.029   7.088   7.788  0.1742  0.2014  0.1464
 9559SOL    HW133524   3.007   7.083   7.881 -1.6875 -2.0970 -0.3067
 9559SOL    HW233525   2.946   7.106   7.745  0.6049 -0.7633 -1.1668
 9560SOL     OW33526   5.896   7.090   7.278 -0.1260 -0.3247  0.1274
 9560SOL    HW133527   5.916   7.181   7.260 -2.7660  0.0602 -1.4065
 9560SOL    HW233528   5.894   7.048   7.192 -0.1890 -1.5201  0.6890
 9561SOL     OW33529   3.313   4.608   6.849  0.5684  0.1020 -0.5834
 9561SOL    HW133530   3.343   4.679   6.906 -0.5801  0.2763 -0.1693
 9561SOL    HW233531   3.246   4.647   6.794 -0.6555 -0.8173  0.1918
 9562SOL     OW33532   0.523   2.624   2.860 -0.0261  0.2768  0.6491
 9562SOL    HW133533   0.569   2.666   2.933 -0.5205  0.4873  0.8469
 9562SOL    HW233534   0.434   2.659   2.865  0.0791  0.7325 -0.4001
 9563SOL     OW33535   5.696   9.154   5.734  0.1990 -0.1533 -0.3577
 9563SOL    HW133536   5.731   9.072   5.771  2.1876  0.1074 -1.4810
 9563SOL    HW233537   5.619   9.173   5.787 -1.4649 -3.7210 -1.1968
 9564SOL     OW33538   0.158   8.316   8.515 -0.0515 -0.4830  0.1546
 9564SOL    HW133539   0.167   8.349   8.425 -1.9185  0.3344  0.2092
 9564SOL    HW233540   0.230   8.357   8.563 -0.1074  0.5548 -0.5993
 9565SOL     OW33541   1.585   5.701   3.929 -0.3100 -0.8915  0.6407
 9565SOL    HW133542   1.550   5.747   4.005  0.4221  0.2954  0.2901
 9565SOL    HW233543   1.607   5.771   3.867 -1.8402 -1.8593 -1.1067
 9566SOL     OW33544   2.154   0.062   3.202  0.8500  0.3521  0.3603
 9566SOL    HW133545   2.083   0.126   3.191 -1.0978 -1.4863  1.3428
 9566SOL    HW233546   2.228   0.114   3.233 -0.2330  2.3061 -0.1410
 9567SOL     OW33547   4.408   3.714   7.959 -0.0972  0.5333  0.6373
 9567SOL    HW133548   4.386   3.776   7.889  2.9624  0.5709 -0.4824
 9567SOL    HW233549   4.375   3.755   8.039 -1.8058  1.5343 -0.5143
 9568SOL     OW33550   9.047   0.220   9.161 -0.0098  0.2799  0.3751
 9568SOL    HW133551   9.097   0.223   9.080 -1.2824  0.9096 -0.4141
 9568SOL    HW233552   9.067   0.303   9.205 -2.6175  2.0356 -1.4089
 9569SOL     OW33553   2.410   0.636   1.104 -0.4070  0.1571 -0.0246
 9569SOL    HW133554   2.351   0.586   1.048  0.4513 -0.3072 -0.5518
 9569SOL    HW233555   2.478   0.572   1.129 -0.2041  0.6378  0.6652
 9570SOL     OW33556   4.093   0.188   1.225 -0.5462 -0.0534 -0.5194
 9570SOL    HW133557   4.142   0.267   1.249 -0.3856 -0.1382 -0.5742
 9570SOL    HW233558   4.158   0.128   1.190 -0.3837 -0.8517  1.0246
 9571SOL     OW33559   7.572   3.900   5.316  0.7460  0.0887 -0.7246
 9571SOL    HW133560   7.612   3.831   5.368  0.0623 -1.6700 -2.3929
 9571SOL    HW233561   7.581   3.869   5.225 -1.5490  1.1202 -1.3636
 9572SOL     OW33562   6.329   6.756   7.040  0.0967  0.0986 -0.2778
 9572SOL    HW133563   6.355   6.666   7.020  0.8005 -0.2923  2.0845
 9572SOL    HW233564   6.397   6.788   7.099  0.1326  2.3976 -1.4440
 9573SOL     OW33565   8.281   3.990   2.262  0.5765  0.2475 -0.1049
 9573SOL    HW133566   8.245   4.029   2.183  0.8053 -0.4484 -0.5679
 9573SOL    HW233567   8.212   3.931   2.294  1.2122 -0.9809 -0.9156
 9574SOL     OW33568   7.964   7.756   8.503  0.1273  0.3358 -0.1468
 9574SOL    HW133569   7.989   7.664   8.502 -0.1320  0.2518 -1.9349
 9574SOL    HW233570   7.869   7.755   8.491 -0.1717  0.8026  1.8555
 9575SOL     OW33571   1.216   6.044   6.191  0.3866 -0.1957  0.0981
 9575SOL    HW133572   1.255   6.130   6.203 -1.1279  0.3296  1.5755
 9575SOL    HW233573   1.211   6.007   6.279 -0.1549 -1.2779 -0.3675
 9576SOL     OW33574   3.594   2.609   3.160  0.0352  1.0140  0.2786
 9576SOL    HW133575   3.515   2.615   3.214 -0.0545  0.5659  0.2000
 9576SOL    HW233576   3.615   2.700   3.139 -1.0277  1.0985 -0.5216
 9577SOL     OW33577   3.020   2.177   3.440 -0.3237 -0.4686  0.5147
 9577SOL    HW133578   2.937   2.193   3.486 -0.4015  1.7286 -0.2403
 9577SOL    HW233579   2.995   2.171   3.347  0.2593 -0.6767  0.3690
 9578SOL     OW33580   6.739   0.050   1.134  0.4728  0.2348 -0.2154
 9578SOL    HW133581   6.746   0.139   1.098 -0.6690  0.9306  1.1738
 9578SOL    HW233582   6.685   0.060   1.212  1.0662 -1.5634  0.4780
 9579SOL     OW33583   5.615   5.263   0.633  0.1600  0.3729  0.1116
 9579SOL    HW133584   5.698   5.294   0.595 -0.6933  0.0829 -2.1742
 9579SOL    HW233585   5.610   5.307   0.718  2.8126  0.1025  0.4983
 9580SOL     OW33586   4.916   3.432   8.644 -0.4327 -0.4285  0.1543
 9580SOL    HW133587   4.952   3.343   8.652  2.9424  0.4935 -2.3583
 9580SOL    HW233588   4.978   3.478   8.587 -2.5250  3.3262  0.5682
 9581SOL     OW33589   2.302   1.969   7.247 -0.0026  0.9336  0.2449
 9581SOL    HW133590   2.372   2.010   7.198  1.4696  0.2803  1.6922
 9581SOL    HW233591   2.311   1.875   7.228  1.1201  0.5726  2.2939
 9582SOL     OW33592   4.275   6.959   7.401 -0.4031  0.2448  0.1149
 9582SOL    HW133593   4.346   6.919   7.351 -0.1308  0.2843  0.4628
 9582SOL    HW233594   4.308   6.961   7.491 -1.3376 -0.8739  0.5060
 9583SOL     OW33595   9.379   6.425   4.637  0.2843 -0.3595  0.0077
 9583SOL    HW133596   9.432   6.345   4.630  1.4637  0.1126  2.5637
 9583SOL    HW233597   9.297   6.395   4.677 -1.0745 -0.9108 -2.9654
 9584SOL     OW33598   3.051   8.844   4.099 -0.5084 -0.6570  0.0304
 9584SOL    HW133599   2.992   8.812   4.167  0.5458 -0.4025  1.0933
 9584SOL    HW233600   3.134   8.801   4.118  0.0467  0.1448 -0.5479
 9585SOL     OW33601   4.176   7.394   5.414  0.5196 -0.7997  0.2596
 9585SOL    HW133602   4.106   7.459   5.413  1.1666 -0.0439  1.4170
 9585SOL    HW233603   4.133   7.311   5.394 -0.2301  0.0277 -1.8279
 9586SOL     OW33604   6.084   6.306   3.973  0.0576  0.3250 -0.2538
 9586SOL    HW133605   5.992   6.293   3.996 -0.3555  2.3148 -0.6011
 9586SOL    HW233606   6.091   6.271   3.884  0.4698 -2.7696  0.8815
 9587SOL     OW33607   3.925   2.507   1.489 -0.4014  0.1612  0.7887
 9587SOL    HW133608   3.876   2.431   1.519 -1.7582  0.8607  0.4188
 9587SOL    HW233609   3.990   2.523   1.558  0.9474 -2.1987  0.1962
 9588SOL     OW33610   0.041   8.862   9.412 -0.1408  0.3731 -0.2530
 9588SOL    HW133611   0.074   8.773   9.427  0.8425  0.5542 -1.1837
 9588SOL    HW233612   0.112   8.905   9.365  0.2782  2.2856  1.9346
 9589SOL     OW33613   0.878   7.787   4.022 -0.4819 -0.2432 -0.6088
 9589SOL    HW133614   0.941   7.769   3.951 -0.8233 -2.9357 -0.3393
 9589SOL    HW233615   0.907   7.731   4.094 -1.5513  0.6281  0.5360
 9590SOL     OW33616   7.106   6.843   5.790  0.4926 -0.0736  0.0993
 9590SOL    HW133617   7.042   6.899   5.833  1.0797 -1.1259  2.5193
 9590SOL    HW233618   7.083   6.754   5.818  1.5689 -0.7199 -0.9562
 9591SOL     OW33619   5.811   9.171   4.651 -0.3549 -0.0546 -0.6045
 9591SOL    HW133620   5.762   9.158   4.570  0.5420  0.2827 -1.2243
 9591SOL    HW233621   5.804   9.265   4.668 -0.4554 -0.1093 -0.3567
 9592SOL     OW33622   2.930   4.631   7.994  0.3078  0.4576  0.3731
 9592SOL    HW133623   3.018   4.595   7.999  0.7622  1.3746 -0.5013
 9592SOL    HW233624   2.944   4.726   7.993 -0.7800  0.6522  1.6286
 9593SOL     OW33625   7.676   3.926   2.571  1.0008 -0.4854 -0.0443
 9593SOL    HW133626   7.728   3.876   2.634  0.9895  0.8876  1.0991
 9593SOL    HW233627   7.701   4.017   2.587 -0.4288  0.0499 -0.7135
 9594SOL     OW33628   5.317   9.078   3.742 -0.2539 -0.2297 -0.2017
 9594SOL    HW133629   5.338   8.998   3.792 -0.7365 -0.7600 -0.8376
 9594SOL    HW233630   5.324   9.052   3.651  0.7948  0.7884 -0.4332
 9595SOL     OW33631   5.381   7.044   0.506  0.3716  0.2411 -0.3378
 9595SOL    HW133632   5.314   7.018   0.569 -0.7448 -1.7620 -2.2238
 9595SOL    HW233633   5.357   7.134   0.482 -0.0612  0.4856  0.8958
 9596SOL     OW33634   2.395   0.177   6.762 -0.1320  0.0831  0.0893
 9596SOL    HW133635   2.324   0.220   6.810 -2.8574 -0.6875 -2.9128
 9596SOL    HW233636   2.396   0.087   6.795  1.8925  0.8742  2.5042
 9597SOL     OW33637   8.703   2.827   5.541  0.0585  0.1230  0.0541
 9597SOL    HW133638   8.636   2.895   5.536  1.4760  1.5250 -0.7810
 9597SOL    HW233639   8.683   2.779   5.621 -1.1691  1.3101  0.4954
 9598SOL     OW33640   9.697   7.998   7.239  0.2172  0.2519 -0.2056
 9598SOL    HW133641   9.699   7.999   7.335  0.0582 -2.0803 -0.1291
 9598SOL    HW233642   9.727   7.910   7.216  0.0755  0.7218 -2.3077
 9599SOL     OW33643   3.431   3.984   8.279  0.0525  0.6359  0.3782
 9599SOL    HW133644   3.465   3.928   8.209  0.3908  0.6956  0.4886
 9599SOL    HW233645   3.486   3.963   8.355 -2.1284 -1.5247  1.4755
 9600SOL     OW33646   6.260   9.129   9.533  0.2183  0.0492  0.2767
 9600SOL    HW133647   6.218   9.157   9.615  0.3188  1.5064 -0.1358
 9600SOL    HW233648   6.189   9.089   9.483 -0.5000  1.5835  0.0021
 9601SOL     OW33649   9.101   7.992   0.831  0.3609  0.3833 -0.3145
 9601SOL    HW133650   9.067   7.903   0.840  3.0553 -0.5515  2.7883
 9601SOL    HW233651   9.181   7.982   0.779  0.2464  1.1657 -0.6589
 9602SOL     OW33652   4.725   6.233   8.417  0.4224 -0.4145 -0.0546
 9602SOL    HW133653   4.788   6.161   8.420  1.1118  0.1665 -0.2724
 9602SOL    HW233654   4.763   6.296   8.355 -0.7910 -0.4398 -0.8762
 9603SOL     OW33655   5.578   1.638   1.608 -0.8062  0.2981  0.2890
 9603SOL    HW133656   5.567   1.634   1.513 -0.2308  1.1912  0.1667
 9603SOL    HW233657   5.556   1.728   1.631 -0.5173  0.2122  0.9369
 9604SOL     OW33658   5.328   8.091   0.152  0.1444  0.3601 -0.3882
 9604SOL    HW133659   5.404   8.069   0.098 -1.1490 -0.3170 -2.0274
 9604SOL    HW233660   5.325   8.021   0.218 -1.6661 -2.4776 -3.1787
 9605SOL     OW33661   6.001   9.091   2.509 -0.3834  0.0005  0.5647
 9605SOL    HW133662   5.983   9.171   2.557  0.1301  0.5874 -0.1943
 9605SOL    HW233663   5.937   9.090   2.438 -0.5490 -0.3935  0.7145
 9606SOL     OW33664   7.562   6.257   5.616 -0.1144  0.4875  0.7879
 9606SOL    HW133665   7.593   6.219   5.697  0.4498 -1.2917 -0.2144
 9606SOL    HW233666   7.494   6.198   5.585 -1.9212  2.3161  1.0309
 9607SOL     OW33667   5.432   2.169   4.499 -0.1729  0.1175 -0.0369
 9607SOL    HW133668   5.396   2.218   4.425  0.0988 -0.1631 -0.3570
 9607SOL    HW233669   5.526   2.187   4.496 -0.3561  1.6286  1.3626
 9608SOL     OW33670   4.175   1.254   0.148  0.1346 -0.0769 -0.6048
 9608SOL    HW133671   4.131   1.339   0.150  2.1803  1.1682 -2.7062
 9608SOL    HW233672   4.267   1.275   0.131  0.7008 -2.7081 -1.2836
 9609SOL     OW33673   5.760   4.933   1.430 -0.1535  0.0100  0.0014
 9609SOL    HW133674   5.728   4.900   1.346 -1.0894 -2.2000  1.1318
 9609SOL    HW233675   5.850   4.900   1.435 -0.8539 -1.9105  0.8152
 9610SOL     OW33676   1.882   5.050   8.460 -0.0202  0.2007 -0.8162
 9610SOL    HW133677   1.887   4.958   8.485 -2.6704  0.7204  2.2514
 9610SOL    HW233678   1.968   5.070   8.424  1.3094 -2.9482  0.2796
 9611SOL     OW33679   3.361   7.479   3.195 -0.4351  0.4109 -0.1902
 9611SOL    HW133680   3.277   7.433   3.194  0.2939 -0.9670  0.3099
 9611SOL    HW233681   3.361   7.528   3.277 -0.7489  0.4248 -0.1962
 9612SOL     OW33682   1.737   7.874   6.560 -0.3386 -0.5559 -0.4530
 9612SOL    HW133683   1.750   7.861   6.466 -1.4681 -0.1516 -0.6865
 9612SOL    HW233684   1.783   7.801   6.601  3.3230  1.1901 -1.0761
 9613SOL     OW33685   1.212   3.553   3.864 -0.1727 -0.3431 -0.5446
 9613SOL    HW133686   1.250   3.587   3.784 -1.0527  0.9342 -0.4534
 9613SOL    HW233687   1.231   3.620   3.930  2.3588 -2.2913  0.8619
 9614SOL     OW33688   8.268   7.290   6.944  0.1035  0.0677 -0.0020
 9614SOL    HW133689   8.332   7.359   6.963 -0.9780  1.0651  0.1203
 9614SOL    HW233690   8.264   7.239   7.025  2.0126 -1.0820 -0.5877
 9615SOL     OW33691   0.293   8.099   0.690  0.4625  0.3328 -0.6035
 9615SOL    HW133692   0.359   8.153   0.733  1.6481 -0.6332 -1.1303
 9615SOL    HW233693   0.210   8.134   0.719  1.2133  1.4509  0.2697
 9616SOL     OW33694   5.312   5.813   5.818 -0.0174  0.0313  0.4714
 9616SOL    HW133695   5.330   5.719   5.825 -0.7947 -0.4130 -2.1861
 9616SOL    HW233696   5.222   5.822   5.849 -0.8860 -0.6306 -1.6463
 9617SOL     OW33697   4.755   8.416   1.301  0.3863 -0.6004 -0.4482
 9617SOL    HW133698   4.838   8.459   1.322  0.0629 -1.3295  2.9393
 9617SOL    HW233699   4.754   8.411   1.206  3.2332  1.3142 -0.7116
 9618SOL     OW33700   8.861   3.026   0.387 -0.4863  0.1208 -0.3745
 9618SOL    HW133701   8.940   2.995   0.343  0.3016  0.6445  0.6310
 9618SOL    HW233702   8.845   3.112   0.349  0.3071  0.6573  0.4783
 9619SOL     OW33703   5.368   2.266   8.416 -0.4632  0.0760  0.0463
 9619SOL    HW133704   5.409   2.330   8.357  0.9023 -0.1955  0.6534
 9619SOL    HW233705   5.427   2.263   8.491 -1.5141 -0.5232  0.8548
 9620SOL     OW33706   7.113   9.420   6.625 -0.7767  0.0770 -0.5457
 9620SOL    HW133707   7.154   9.480   6.686 -2.1939  0.3933  0.1303
 9620SOL    HW233708   7.093   9.342   6.677 -0.4448 -0.3472 -1.0318
 9621SOL     OW33709   2.590   0.714   2.852 -0.4551  0.7921  0.4474
 9621SOL    HW133710   2.543   0.682   2.930 -2.8790 -1.4239 -1.7099
 9621SOL    HW233711   2.640   0.638   2.822  0.4879  1.6338 -0.1636
 9622SOL     OW33712   0.535   8.066   3.294 -0.0112  0.4515  0.4031
 9622SOL    HW133713   0.490   8.105   3.219 -2.5501 -0.5481  1.3148
 9622SOL    HW233714   0.589   8.137   3.328 -0.8140  1.7105 -0.8116
 9623SOL     OW33715   2.553   4.530   2.996 -0.0002  0.0822 -0.1407
 9623SOL    HW133716   2.622   4.483   3.042 -0.2375 -1.0722 -0.8985
 9623SOL    HW233717   2.525   4.598   3.057  1.9202  0.7112  0.0976
 9624SOL     OW33718   1.702   5.913   0.964 -0.1402 -0.0561  0.3898
 9624SOL    HW133719   1.690   6.006   0.984 -0.1898 -0.2337  1.2166
 9624SOL    HW233720   1.771   5.911   0.899 -0.9144  0.6375 -0.4785
 9625SOL     OW33721   7.441   7.089   0.473  0.0410 -0.1975  0.2097
 9625SOL    HW133722   7.432   7.169   0.422  1.5521 -1.1794 -1.7868
 9625SOL    HW233723   7.371   7.032   0.442 -0.3966 -0.0199  0.8647
 9626SOL     OW33724   1.094   2.426   5.497 -0.4864  0.2591 -0.0623
 9626SOL    HW133725   1.050   2.479   5.431 -0.1275  1.2333  0.4698
 9626SOL    HW233726   1.072   2.467   5.580 -2.9455 -2.3153  0.7380
 9627SOL     OW33727   8.634   0.403   4.149 -0.2145  0.2083  0.2903
 9627SOL    HW133728   8.677   0.365   4.226 -0.2880  0.8552  0.6565
 9627SOL    HW233729   8.666   0.493   4.145 -0.2722  0.1996 -0.3937
 9628SOL     OW33730   5.929   4.388   7.875  0.4422 -0.4067  0.0879
 9628SOL    HW133731   5.901   4.342   7.955  0.4133  1.2833  1.1030
 9628SOL    HW233732   5.970   4.468   7.907  1.8197 -0.3996 -1.5736
 9629SOL     OW33733   0.165   7.974   3.972  0.0297 -0.3368 -0.1073
 9629SOL    HW133734   0.184   8.037   4.042 -1.3604  0.0826 -0.0753
 9629SOL    HW233735   0.136   7.895   4.017 -0.1236 -0.3290 -0.1908
 9630SOL     OW33736   6.730   6.476   4.723 -0.4044 -0.3213 -0.1272
 9630SOL    HW133737   6.756   6.545   4.662  3.3521  0.3011  1.8363
 9630SOL    HW233738   6.709   6.401   4.668 -1.5087  1.4028 -2.2183
 9631SOL     OW33739   2.381   2.158   8.191  0.1763  0.1894  0.0293
 9631SOL    HW133740   2.447   2.092   8.213 -0.1361 -0.8949 -2.0828
 9631SOL    HW233741   2.312   2.146   8.257  1.4543  0.4750  1.4745
 9632SOL     OW33742   2.881   2.750   6.048  0.2199  0.4452 -0.0333
 9632SOL    HW133743   2.860   2.693   5.974  0.8639  0.2298 -0.0509
 9632SOL    HW233744   2.797   2.791   6.070 -1.0225 -2.6755  1.8634
 9633SOL     OW33745   9.368   5.227   7.857 -0.6213 -0.0338  0.0473
 9633SOL    HW133746   9.457   5.236   7.822 -1.2800  1.0669 -1.4617
 9633SOL    HW233747   9.381   5.195   7.946  1.4709  2.7063  0.9018
 9634SOL     OW33748   1.305   7.016   5.039  0.0962  0.1184  0.5322
 9634SOL    HW133749   1.279   7.065   4.961  0.8345  1.5712  1.1606
 9634SOL    HW233750   1.290   6.924   5.016  3.1651  0.1819 -2.4932
 9635SOL     OW33751   2.091   0.415   5.151  0.0299 -0.3122  0.7258
 9635SOL    HW133752   2.074   0.405   5.245 -1.4648  2.4338  0.8355
 9635SOL    HW233753   2.138   0.335   5.127  2.0009 -0.3857  4.1420
 9636SOL     OW33754   3.743   6.448   1.969  0.3279 -0.0955  0.3694
 9636SOL    HW133755   3.775   6.411   1.886 -0.5307  0.8024 -0.3961
 9636SOL    HW233756   3.752   6.542   1.957 -0.9676  0.0933  0.8041
 9637SOL     OW33757   0.238   0.970   2.483 -0.0220  0.2226  0.2281
 9637SOL    HW133758   0.240   1.055   2.438 -0.2743 -0.4283 -1.0439
 9637SOL    HW233759   0.326   0.934   2.471 -0.1811 -0.0889 -0.0133
 9638SOL     OW33760   1.869   2.408   7.479  0.3979  0.1962 -0.1118
 9638SOL    HW133761   1.829   2.378   7.397  0.7059  0.6970 -0.4506
 9638SOL    HW233762   1.944   2.350   7.491  1.9687  1.7746 -1.6242
 9639SOL     OW33763   1.265   9.390   4.293 -0.2429 -1.0117  0.3962
 9639SOL    HW133764   1.267   9.462   4.230 -0.5499 -1.0223  0.3700
 9639SOL    HW233765   1.319   9.421   4.366 -0.6294 -0.6226  0.5238
 9640SOL     OW33766   8.509   8.302   9.487  0.4702 -0.3365 -0.3058
 9640SOL    HW133767   8.469   8.245   9.421  1.4365 -0.8434 -0.4618
 9640SOL    HW233768   8.466   8.278   9.569  0.9407 -1.3759 -0.3520
 9641SOL     OW33769   3.137   2.519   2.472  0.1459 -0.2408  0.5514
 9641SOL    HW133770   3.077   2.546   2.403  0.6369 -2.8337 -1.0323
 9641SOL    HW233771   3.221   2.510   2.428  1.4154  1.6109  2.3548
 9642SOL     OW33772   8.677   4.206   6.353  0.0858  0.0445 -0.0479
 9642SOL    HW133773   8.607   4.271   6.361 -1.0961 -1.2369  0.5104
 9642SOL    HW233774   8.657   4.160   6.271 -0.4240 -1.0661  0.6678
 9643SOL     OW33775   5.746   5.042   1.164 -0.2416  0.2676 -0.0984
 9643SOL    HW133776   5.745   5.138   1.167  1.1051  0.2871  0.6105
 9643SOL    HW233777   5.690   5.020   1.090  0.6199  1.6700 -1.2312
 9644SOL     OW33778   1.800   3.804   3.981 -0.1300 -0.4904  0.1552
 9644SOL    HW133779   1.856   3.868   3.937  1.2748 -1.0870  1.0114
 9644SOL    HW233780   1.850   3.723   3.979 -0.6205 -0.8621  1.6169
 9645SOL     OW33781   2.421   8.491   0.293  0.1138  0.1756  0.2764
 9645SOL    HW133782   2.502   8.512   0.246  0.1514  1.1738  0.7516
 9645SOL    HW233783   2.387   8.576   0.321 -1.5764 -0.1437 -0.6749
 9646SOL     OW33784   2.416   5.146   8.754 -0.9802 -0.3305 -0.1771
 9646SOL    HW133785   2.425   5.203   8.830  0.2878  1.3241 -1.5092
 9646SOL    HW233786   2.504   5.111   8.739 -1.3689 -1.2329 -0.4747
 9647SOL     OW33787   7.250   5.159   2.529  0.4934  0.2494 -0.3393
 9647SOL    HW133788   7.226   5.178   2.620  2.6476  2.4167 -0.1079
 9647SOL    HW233789   7.182   5.099   2.498  0.3586 -1.5827  3.0542
 9648SOL     OW33790   3.633   3.162   3.136  0.1442  0.0875 -0.3560
 9648SOL    HW133791   3.689   3.125   3.205  1.6801 -0.0345 -1.6031
 9648SOL    HW233792   3.588   3.235   3.178  2.3369  1.0933  0.3841
 9649SOL     OW33793   7.221   3.455   5.204  0.0362  0.1135 -0.3142
 9649SOL    HW133794   7.166   3.407   5.266  0.2755  0.8338  0.4578
 9649SOL    HW233795   7.288   3.497   5.258  1.1014 -0.3870 -1.1908
 9650SOL     OW33796   3.730   9.473   3.111 -0.3136 -0.0241 -0.1093
 9650SOL    HW133797   3.809   9.456   3.059  1.0239  2.0297  1.0755
 9650SOL    HW233798   3.659   9.434   3.061  1.2163 -0.2945 -2.2050
 9651SOL     OW33799   7.343   8.397   9.687  0.3097 -0.4298 -0.2497
 9651SOL    HW133800   7.358   8.311   9.649  0.8822 -0.6019  0.3451
 9651SOL    HW233801   7.337   8.381   9.781  0.3896  0.1755 -0.1353
 9652SOL     OW33802   0.189   0.247   0.300 -0.1590  0.0436 -0.4831
 9652SOL    HW133803   0.171   0.226   0.392 -2.4236  0.0858 -0.8686
 9652SOL    HW233804   0.106   0.280   0.266  0.1930 -1.3755 -2.9370
 9653SOL     OW33805   8.114   9.686   0.804 -0.6236 -0.0658  0.0673
 9653SOL    HW133806   8.170   9.614   0.775 -0.3170 -0.3191  1.2398
 9653SOL    HW233807   8.125   9.753   0.736 -0.0993 -0.7193 -0.5059
 9654SOL     OW33808   3.594   6.634   7.832 -0.2623 -0.5792 -0.1724
 9654SOL    HW133809   3.502   6.651   7.809  0.6309  1.5131 -2.6265
 9654SOL    HW233810   3.629   6.587   7.756  0.6456 -1.8361  0.9654
 9655SOL     OW33811   3.583   9.493   0.072 -0.2920 -0.1029  0.0175
 9655SOL    HW133812   3.530   9.414   0.083  0.0665 -0.4414 -0.6541
 9655SOL    HW233813   3.669   9.469   0.105 -0.0908 -0.1015 -0.5041
 9656SOL     OW33814   2.665   6.671   4.253 -0.5933 -0.0183  0.0018
 9656SOL    HW133815   2.677   6.576   4.256  0.2605  0.1047  1.7300
 9656SOL    HW233816   2.659   6.697   4.345 -2.6640  1.4100 -0.4520
 9657SOL     OW33817   6.585   6.303   6.209 -0.0475 -0.6456 -0.8421
 9657SOL    HW133818   6.579   6.266   6.121 -0.6796  1.5425 -1.7763
 9657SOL    HW233819   6.522   6.375   6.209 -1.1768 -1.5256  1.9270
 9658SOL     OW33820   3.277   2.022   9.121 -0.0672  0.0832  0.0792
 9658SOL    HW133821   3.218   2.093   9.148  0.7821  1.7056 -2.0604
 9658SOL    HW233822   3.358   2.039   9.168  0.8322  1.8768 -1.9470
 9659SOL     OW33823   5.512   0.156   2.185 -0.4544  0.2997 -0.2585
 9659SOL    HW133824   5.597   0.112   2.185  0.3690  1.7609  1.2257
 9659SOL    HW233825   5.470   0.127   2.104  1.7618  0.1113 -1.4258
 9660SOL     OW33826   4.032   4.437   7.313 -0.4139 -0.1511  0.0587
 9660SOL    HW133827   3.965   4.370   7.324 -0.7687  0.3394  0.9486
 9660SOL    HW233828   4.111   4.398   7.352 -0.8136  0.2314  1.3005
 9661SOL     OW33829   2.872   4.137   9.515 -0.1964  0.5853 -0.5899
 9661SOL    HW133830   2.810   4.068   9.491 -0.8604  0.5143  1.1868
 9661SOL    HW233831   2.822   4.197   9.570  0.8498  1.5313 -0.6276
 9662SOL     OW33832   0.531   8.078   5.431  0.0233  0.1756  0.0840
 9662SOL    HW133833   0.459   8.135   5.460 -0.0644  1.6523 -2.6489
 9662SOL    HW233834   0.489   7.995   5.409 -0.0353 -0.6597  2.9775
 9663SOL     OW33835   5.409   1.277   4.371  0.0552 -0.3750  0.7721
 9663SOL    HW133836   5.474   1.231   4.425  1.5367  0.1476 -0.4805
 9663SOL    HW233837   5.341   1.211   4.354  1.8832 -2.0358 -0.5859
 9664SOL     OW33838   0.297   0.824   6.855 -0.1935  0.3885 -0.7103
 9664SOL    HW133839   0.228   0.848   6.792 -1.2072  1.4374  0.7431
 9664SOL    HW233840   0.344   0.905   6.872  0.5297 -0.0378 -0.6373
 9665SOL     OW33841   0.261   0.034   1.513 -0.3680 -0.8144 -0.1059
 9665SOL    HW133842   0.230   0.073   1.431  1.7742 -2.3585 -1.7485
 9665SOL    HW233843   0.294   0.108   1.563 -0.0478 -0.0259 -1.4207
 9666SOL     OW33844   7.838   5.587   7.888 -0.0861  0.0485 -0.4825
 9666SOL    HW133845   7.844   5.511   7.946  1.1320 -0.7438 -1.5980
 9666SOL    HW233846   7.827   5.551   7.801 -0.8076  1.2023 -0.8945
 9667SOL     OW33847   2.245   0.615   0.375 -0.4350 -0.4776  0.2649
 9667SOL    HW133848   2.181   0.608   0.304  1.4849 -1.6417 -1.4352
 9667SOL    HW233849   2.329   0.627   0.331  0.6243  0.5752  2.4184
 9668SOL     OW33850   5.376   7.405   5.834 -0.1877  0.0282  0.4989
 9668SOL    HW133851   5.410   7.316   5.845 -2.0811 -0.5874  1.8264
 9668SOL    HW233852   5.420   7.456   5.903 -0.8120 -0.4267  1.2505
 9669SOL     OW33853   4.410   8.994   8.057  0.2389 -0.0582  0.4593
 9669SOL    HW133854   4.440   9.046   7.982  0.6729 -0.1838  0.5419
 9669SOL    HW233855   4.318   9.019   8.068  0.4665  0.7736  0.5640
 9670SOL     OW33856   7.100   0.888   2.195 -0.0114 -0.1897 -0.0269
 9670SOL    HW133857   7.175   0.897   2.254 -0.3126 -0.3556  0.3917
 9670SOL    HW233858   7.088   0.975   2.158 -0.1042  0.0292  0.5111
 9671SOL     OW33859   5.862   2.905   7.207 -0.3348 -0.2385  0.2004
 9671SOL    HW133860   5.804   2.981   7.204 -1.3452 -0.9702  0.6516
 9671SOL    HW233861   5.819   2.839   7.152  1.6054  0.1889 -1.9996
 9672SOL     OW33862   6.000   7.946   2.137  0.2003 -0.0308  0.5245
 9672SOL    HW133863   6.046   7.915   2.216 -0.5110 -1.6355  0.3494
 9672SOL    HW233864   6.068   7.953   2.071  0.6903  0.6596  1.0809
 9673SOL     OW33865   2.117   5.545   4.975  0.3916  0.4089 -0.0813
 9673SOL    HW133866   2.024   5.537   4.955  0.2010  0.7422  0.6188
 9673SOL    HW233867   2.147   5.455   4.991 -0.5423  0.5082  2.7235
 9674SOL     OW33868   7.104   8.411   9.503  0.4952 -0.2108 -0.1482
 9674SOL    HW133869   7.169   8.440   9.567  0.4730 -2.6948  1.1458
 9674SOL    HW233870   7.027   8.389   9.556 -0.7859  0.9549 -1.4575
 9675SOL     OW33871   4.305   8.441   8.622  0.2060 -0.2195 -0.3091
 9675SOL    HW133872   4.228   8.497   8.607  1.4128  0.9040 -3.0097
 9675SOL    HW233873   4.269   8.353   8.627 -1.5296  0.4995  1.8331
 9676SOL     OW33874   4.474   4.023   4.437 -0.4309  0.3004 -0.3941
 9676SOL    HW133875   4.523   4.011   4.519 -0.2887 -2.0923 -0.7571
 9676SOL    HW233876   4.384   4.042   4.466  0.0593  1.8003  0.2722
 9677SOL     OW33877   9.357   2.255   4.825 -0.7112 -0.4046 -0.2586
 9677SOL    HW133878   9.307   2.302   4.757 -0.4984  2.9641  1.6882
 9677SOL    HW233879   9.429   2.214   4.778 -2.1322 -0.6457 -2.3865
 9678SOL     OW33880   1.032   4.475   8.905 -0.0542  0.3478 -0.1793
 9678SOL    HW133881   1.096   4.546   8.897  0.0700  0.3067  0.4110
 9678SOL    HW233882   0.958   4.515   8.952 -0.3910  0.3457 -0.6989
 9679SOL     OW33883   3.912   1.515   0.591  0.1545  0.2835  0.0162
 9679SOL    HW133884   3.832   1.494   0.544  0.5918  0.6758 -0.9251
 9679SOL    HW233885   3.916   1.451   0.662 -0.5587 -0.2550 -0.4226
 9680SOL     OW33886   1.013   2.169   7.472 -0.0782 -1.0122 -0.2324
 9680SOL    HW133887   0.975   2.081   7.469 -2.3336 -0.1081 -1.6299
 9680SOL    HW233888   1.087   2.165   7.412 -0.7277 -1.7590 -1.0167
 9681SOL     OW33889   0.026   5.220   9.490 -0.1573  0.3928 -0.2004
 9681SOL    HW133890   0.045   5.164   9.414 -0.6060  0.3382 -0.2765
 9681SOL    HW233891   0.069   5.177   9.563  1.8877  1.4368 -0.7309
 9682SOL     OW33892   3.009   2.479   8.120  0.5926  0.2489  0.3361
 9682SOL    HW133893   3.075   2.434   8.067 -0.0805  0.9335 -1.1420
 9682SOL    HW233894   2.926   2.463   8.075 -0.0155  0.8375  1.2048
 9683SOL     OW33895   8.751   1.349   4.741  0.0504 -0.2857 -0.5053
 9683SOL    HW133896   8.708   1.271   4.775  0.3209 -0.3301 -0.2705
 9683SOL    HW233897   8.724   1.420   4.800 -1.5865  0.1469 -1.6821
 9684SOL     OW33898   1.352   1.623   6.717  0.1430 -0.1108  0.1950
 9684SOL    HW133899   1.299   1.631   6.797  0.6827 -1.3378  0.7073
 9684SOL    HW233900   1.347   1.530   6.695 -0.4127  0.2975 -1.5178
 9685SOL     OW33901   2.583   7.743   9.107 -0.0491 -0.0176  0.1994
 9685SOL    HW133902   2.552   7.792   9.183  1.2212  0.8062  0.2187
 9685SOL    HW233903   2.611   7.658   9.143  1.0034  0.5443  0.7558
 9686SOL     OW33904   6.951   1.046   3.525  0.4991  0.3469  0.3643
 9686SOL    HW133905   6.933   0.985   3.596 -0.0132  0.3543  0.2487
 9686SOL    HW233906   6.873   1.103   3.523  0.5531  0.4034 -0.1399
 9687SOL     OW33907   7.283   7.324   7.602  0.0114  0.5639  0.1615
 9687SOL    HW133908   7.203   7.297   7.647 -0.0744  1.0243  0.2836
 9687SOL    HW233909   7.312   7.245   7.556 -1.4481  0.8519 -1.3179
 9688SOL     OW33910   9.487   7.905   7.023 -0.4347 -0.3416  0.0357
 9688SOL    HW133911   9.451   7.824   6.988 -1.8337  0.2230  0.1061
 9688SOL    HW233912   9.582   7.894   7.017 -0.5707 -2.3944  1.0329
 9689SOL     OW33913   7.250   4.909   2.838  0.2783  0.0378 -0.5389
 9689SOL    HW133914   7.234   5.003   2.837 -2.6935 -0.3638 -0.2964
 9689SOL    HW233915   7.222   4.879   2.752 -2.9126 -1.0661  0.7475
 9690SOL     OW33916   2.310   9.545   1.069 -0.2671 -0.0566  0.2881
 9690SOL    HW133917   2.328   9.515   1.158  0.2425  0.1982  0.2704
 9690SOL    HW233918   2.394   9.574   1.035 -0.7951  1.7138  0.4169
 9691SOL     OW33919   3.175   2.987   7.574  0.7674  0.5124  0.1250
 9691SOL    HW133920   3.132   2.904   7.593  0.9971 -0.7257 -3.8044
 9691SOL    HW233921   3.268   2.965   7.571  0.8146  0.7866 -1.1136
 9692SOL     OW33922   5.423   1.262   9.147  0.3097  0.4333 -0.1367
 9692SOL    HW133923   5.402   1.279   9.239  3.8966 -1.5791  1.2929
 9692SOL    HW233924   5.481   1.334   9.122 -0.0174  0.5501 -0.5776
 9693SOL     OW33925   3.569   4.593   4.707  0.4970  0.5998  0.1283
 9693SOL    HW133926   3.473   4.597   4.708  0.4028  0.8924 -2.2768
 9693SOL    HW233927   3.597   4.681   4.734  0.1448  0.2834  1.6058
 9694SOL     OW33928   1.605   6.049   8.434  0.1483  0.3954 -0.3774
 9694SOL    HW133929   1.686   6.010   8.468 -0.0164 -1.1430 -1.6449
 9694SOL    HW233930   1.558   6.079   8.512  0.8766 -0.8176  0.5516
 9695SOL     OW33931   3.341   7.141   3.582  0.1107 -0.0943  0.1683
 9695SOL    HW133932   3.309   7.144   3.672 -1.1045 -1.2489 -0.1970
 9695SOL    HW233933   3.419   7.086   3.585 -0.0234 -0.2676  0.4823
 9696SOL     OW33934   2.837   4.880   0.430  0.3108  0.9509  0.1869
 9696SOL    HW133935   2.782   4.904   0.355 -0.7032  2.6490  1.3902
 9696SOL    HW233936   2.779   4.890   0.505  1.5523  0.1349  1.2842
 9697SOL     OW33937   4.909   4.578   8.456 -0.9166 -0.1284  0.5600
 9697SOL    HW133938   4.986   4.522   8.452  0.8681  2.1521  0.2419
 9697SOL    HW233939   4.849   4.534   8.516 -0.5270 -3.2671 -1.1611
 9698SOL     OW33940   9.452   1.073   2.240 -0.1714  0.4893  0.0379
 9698SOL    HW133941   9.519   1.074   2.308  0.8903  2.7721 -0.9538
 9698SOL    HW233942   9.498   1.039   2.163 -0.9644 -0.6465  0.0426
 9699SOL     OW33943   3.377   2.734   4.408 -0.3251  0.3964  0.3582
 9699SOL    HW133944   3.383   2.766   4.498  0.2707  0.3845  0.3267
 9699SOL    HW233945   3.357   2.641   4.417 -0.0623  0.3492  0.4894
 9700SOL     OW33946   1.814   4.691   6.219  0.0658 -0.0989  0.3419
 9700SOL    HW133947   1.855   4.619   6.171 -0.4496 -0.2203  0.0737
 9700SOL    HW233948   1.807   4.660   6.309 -1.3950 -0.9475 -0.0232
 9701SOL     OW33949   8.472   3.956   9.470 -0.0365 -0.0005  0.0290
 9701SOL    HW133950   8.473   3.995   9.382 -2.2823 -2.3280 -1.1445
 9701SOL    HW233951   8.457   4.031   9.528  0.3384  1.4515 -1.6370
 9702SOL     OW33952   0.733   2.450   4.459 -0.2924  0.0287  0.0555
 9702SOL    HW133953   0.804   2.473   4.399  0.5414  0.2621  1.1081
 9702SOL    HW233954   0.746   2.357   4.477 -0.9247 -0.1992 -0.6028
 9703SOL     OW33955   2.854   7.993   1.414 -0.0077  0.0129  0.4398
 9703SOL    HW133956   2.901   8.051   1.474 -0.2443  0.9130 -0.2204
 9703SOL    HW233957   2.917   7.972   1.346  0.0175 -0.3474  0.5753
 9704SOL     OW33958   0.938   8.843   0.914  0.0652  0.0090  0.0378
 9704SOL    HW133959   0.953   8.830   1.008  1.1143 -0.4916 -0.1755
 9704SOL    HW233960   1.011   8.797   0.873 -0.2822  0.3897 -1.0183
 9705SOL     OW33961   2.633   8.738   6.330 -0.5097 -0.1277 -0.3538
 9705SOL    HW133962   2.558   8.696   6.288 -0.7512  1.1388 -1.2304
 9705SOL    HW233963   2.635   8.827   6.294  1.6106 -0.2173 -0.6207
 9706SOL     OW33964   8.368   7.685   0.279  0.2965 -0.4458  0.0472
 9706SOL    HW133965   8.343   7.757   0.221  2.1054 -1.1053 -1.6424
 9706SOL    HW233966   8.319   7.702   0.360  0.2534  2.3726 -0.4634
 9707SOL     OW33967   6.406   9.405   3.017  0.3078 -0.2500 -0.2700
 9707SOL    HW133968   6.489   9.386   3.059  0.9479  1.5786 -0.6276
 9707SOL    HW233969   6.427   9.468   2.948 -1.3898  0.4235 -0.2321
 9708SOL     OW33970   2.612   1.119   9.547  0.3463 -0.1389 -0.7436
 9708SOL    HW133971   2.654   1.037   9.573  0.9713  0.3383 -0.2350
 9708SOL    HW233972   2.600   1.167   9.629 -0.4501  0.0825 -0.9805
 9709SOL     OW33973   9.386   7.750   4.826  0.5313 -0.2990 -0.0060
 9709SOL    HW133974   9.413   7.686   4.892 -0.5180 -0.3004  0.4456
 9709SOL    HW233975   9.417   7.714   4.743 -1.2403 -2.1552  0.0492
 9710SOL     OW33976   8.610   4.242   8.685 -0.2616 -0.0182 -0.2968
 9710SOL    HW133977   8.698   4.272   8.707  0.2286  0.0369 -2.1421
 9710SOL    HW233978   8.618   4.147   8.677 -0.3491 -0.0113 -0.4873
 9711SOL     OW33979   6.324   9.524   6.707  0.4495  0.6479 -0.1731
 9711SOL    HW133980   6.261   9.465   6.747  0.7948  1.4266  1.6642
 9711SOL    HW233981   6.380   9.552   6.780  2.2761  0.7769 -1.5509
 9712SOL     OW33982   6.019   0.434   4.620  0.2677 -0.2525  0.0857
 9712SOL    HW133983   5.971   0.369   4.568  1.0157  0.1942 -1.2217
 9712SOL    HW233984   6.110   0.401   4.621  0.7253  0.8957 -0.8819
 9713SOL     OW33985   8.724   8.862   7.787 -0.0038  0.2133 -0.5983
 9713SOL    HW133986   8.722   8.863   7.692  2.2837 -1.7380 -0.7623
 9713SOL    HW233987   8.676   8.783   7.811 -0.3724  0.5719 -0.1393
 9714SOL     OW33988   3.603   6.068   2.398 -0.4819 -0.5250 -0.2144
 9714SOL    HW133989   3.645   6.065   2.313 -0.3104 -2.4736 -0.0899
 9714SOL    HW233990   3.542   5.995   2.398 -0.9094 -0.2050  1.1317
 9715SOL     OW33991   1.235   3.891   2.946  0.3300  0.1570  0.6775
 9715SOL    HW133992   1.266   3.855   2.863 -0.9794  0.8029 -0.1417
 9715SOL    HW233993   1.248   3.821   3.010  3.3486  0.3646  0.4441
 9716SOL     OW33994   5.982   8.104   0.890  0.2642  0.0742 -0.1774
 9716SOL    HW133995   6.036   8.114   0.811  1.4894 -1.1490  0.4611
 9716SOL    HW233996   6.046   8.098   0.961 -0.6019 -2.9475  0.4543
 9717SOL     OW33997   4.896   3.600   0.936  0.6996 -0.2043 -0.1611
 9717SOL    HW133998   4.978   3.558   0.961  1.1662  0.4076 -0.6452
 9717SOL    HW233999   4.892   3.678   0.991  0.4834 -0.1868 -0.2017
 9718SOL     OW34000   1.676   9.580   9.021  0.3666  0.2379 -0.6787
 9718SOL    HW134001   1.632   9.593   8.936  0.1712 -1.1610 -0.8087
 9718SOL    HW234002   1.739   9.510   9.005  0.2124 -0.1557  0.3851
 9719SOL     OW34003   6.067   6.908   8.597 -0.0154 -0.3089 -0.5310
 9719SOL    HW134004   5.981   6.937   8.627 -0.4059 -0.1550 -1.7353
 9719SOL    HW234005   6.054   6.890   8.504  1.4759  0.5371 -0.9196
 9720SOL     OW34006   2.911   6.880   4.670 -0.4043 -0.5263 -0.2664
 9720SOL    HW134007   2.931   6.819   4.741 -0.9050 -0.8189 -0.3739
 9720SOL    HW234008   2.912   6.966   4.712  0.2487 -0.6043 -0.1030
 9721SOL     OW34009   1.862   4.471   9.390  0.2875  0.2860 -0.1323
 9721SOL    HW134010   1.821   4.437   9.310  0.4478  0.7021 -0.3944
 9721SOL    HW234011   1.856   4.399   9.453 -1.5411  0.5806  0.0892
 9722SOL     OW34012   4.346   1.067   5.520 -0.2910  0.0212 -0.2686
 9722SOL    HW134013   4.360   1.154   5.556 -1.6511 -0.5189  1.7052
 9722SOL    HW234014   4.426   1.019   5.543 -0.5141  0.1122  0.7466
 9723SOL     OW34015   0.190   8.246   9.458 -0.4821  0.7194  0.2189
 9723SOL    HW134016   0.169   8.158   9.490 -0.3410  1.1275  1.4882
 9723SOL    HW234017   0.187   8.238   9.363  0.1355 -0.8175  0.2994
 9724SOL     OW34018   8.584   6.238   1.044 -0.0992  0.7938  0.0740
 9724SOL    HW134019   8.605   6.330   1.062 -0.2931  0.5827  1.5374
 9724SOL    HW234020   8.551   6.237   0.954  0.1046  2.1191 -0.0268
 9725SOL     OW34021   2.586   2.816   5.698 -0.2271 -0.1703 -0.1026
 9725SOL    HW134022   2.549   2.764   5.770  1.7139 -1.3494  0.1335
 9725SOL    HW234023   2.657   2.866   5.739  0.0386  0.1557 -0.9464
 9726SOL     OW34024   3.697   0.144   4.657  0.6369  0.0828  0.1803
 9726SOL    HW134025   3.722   0.104   4.740  0.2787  1.2745  0.8945
 9726SOL    HW234026   3.632   0.085   4.620  1.9253 -1.2670 -0.0339
 9727SOL     OW34027   1.385   4.960   3.285 -0.6436 -0.5011 -0.4016
 9727SOL    HW134028   1.334   4.890   3.327 -0.0617 -0.3684  0.5589
 9727SOL    HW234029   1.465   4.967   3.338 -1.5415  2.2194  0.8095
 9728SOL     OW34030   7.086   0.503   9.371 -0.2087  0.1279 -0.3296
 9728SOL    HW134031   7.078   0.545   9.286  0.9313 -1.0934 -1.0821
 9728SOL    HW234032   7.124   0.571   9.428  2.2510  0.0132 -1.6850
 9729SOL     OW34033   3.671   0.350   2.326  0.6023  0.6765  0.2184
 9729SOL    HW134034   3.748   0.298   2.301 -0.3602 -0.3572 -0.7114
 9729SOL    HW234035   3.706   0.418   2.384  2.1117 -0.1616  0.3477
 9730SOL     OW34036   6.783   8.709   9.637  0.1228  0.1912 -0.0937
 9730SOL    HW134037   6.753   8.619   9.624 -1.1834  0.4410  0.9177
 9730SOL    HW234038   6.876   8.707   9.616 -0.0998 -1.1730 -1.0473
 9731SOL     OW34039   5.747   9.010   6.404  0.1515 -0.2868  0.1279
 9731SOL    HW134040   5.714   8.920   6.408 -0.0828 -0.1837  0.5866
 9731SOL    HW234041   5.676   9.059   6.363  0.6719 -0.4809 -1.0530
 9732SOL     OW34042   4.912   9.095   7.095  0.2187 -0.1645  0.1702
 9732SOL    HW134043   4.908   9.187   7.123 -0.5806 -0.2894  0.4981
 9732SOL    HW234044   4.938   9.099   7.003  1.4817  0.3217  0.5286
 9733SOL     OW34045   6.856   0.895   6.086  0.3843  0.3297 -0.1845
 9733SOL    HW134046   6.793   0.961   6.056  0.8116  0.6931 -0.2909
 9733SOL    HW234047   6.803   0.817   6.101 -0.8862  1.7438  3.8947
 9734SOL     OW34048   4.405   7.336   6.840 -0.2299  0.1005  0.0958
 9734SOL    HW134049   4.482   7.315   6.787 -0.5489 -2.0324  0.4020
 9734SOL    HW234050   4.441   7.373   6.921  0.7341 -3.1482  1.3076
 9735SOL     OW34051   4.090   1.584   7.222  0.2098 -0.3960  0.7696
 9735SOL    HW134052   4.137   1.661   7.255  0.1791  0.2002 -0.5307
 9735SOL    HW234053   4.143   1.510   7.251  1.2279  0.2021  0.4892
 9736SOL     OW34054   5.310   6.398   4.560  0.9618  0.1576 -0.4469
 9736SOL    HW134055   5.281   6.307   4.551  0.2287  0.4986 -1.6493
 9736SOL    HW234056   5.320   6.410   4.655 -5.0849  0.6595  0.4862
 9737SOL     OW34057   5.412   4.357   4.073 -0.1149  0.6307 -0.2083
 9737SOL    HW134058   5.467   4.325   4.144  0.9416  2.1701 -0.2739
 9737SOL    HW234059   5.337   4.398   4.117  0.1244  0.8538 -0.0058
 9738SOL     OW34060   2.346   2.675   9.352  0.1311  0.0421  0.1480
 9738SOL    HW134061   2.284   2.746   9.333 -0.2530 -0.2664  0.2401
 9738SOL    HW234062   2.299   2.618   9.412  0.8552  0.3143  0.9921
 9739SOL     OW34063   9.645   3.433   4.263  0.4816  0.0286 -0.2108
 9739SOL    HW134064   9.682   3.382   4.335 -0.4896 -0.7429 -0.2178
 9739SOL    HW234065   9.720   3.458   4.210  1.3407  1.4595  1.5577
 9740SOL     OW34066   1.179   1.911   7.219 -0.4864  0.1616  0.2066
 9740SOL    HW134067   1.275   1.903   7.218 -0.4346  0.5404 -1.4823
 9740SOL    HW234068   1.164   2.006   7.219 -0.8842  0.1058  1.0562
 9741SOL     OW34069   9.394   4.094   0.297 -0.0270 -0.6109  0.3062
 9741SOL    HW134070   9.338   4.075   0.222  0.2016 -0.4977  0.1039
 9741SOL    HW234071   9.337   4.135   0.361  0.2196  1.3634 -0.6730
 9742SOL     OW34072   4.916   5.599   4.680  0.5138  0.2477  0.2996
 9742SOL    HW134073   4.842   5.621   4.736 -0.2596 -2.0192  0.2613
 9742SOL    HW234074   4.898   5.644   4.597 -1.1526 -0.7193  0.0960
 9743SOL     OW34075   9.202   5.715   2.354 -0.1322  0.3016 -0.1732
 9743SOL    HW134076   9.210   5.806   2.325  1.5991 -0.2160 -1.4708
 9743SOL    HW234077   9.166   5.722   2.442 -1.5661  2.1471 -0.8236
 9744SOL     OW34078   4.801   3.332   9.526 -0.1988  0.3303  0.4732
 9744SOL    HW134079   4.726   3.298   9.479  0.0474  2.3474 -1.5503
 9744SOL    HW234080   4.877   3.291   9.484 -0.0791 -0.0349  1.0388
 9745SOL     OW34081   3.525   4.243   2.303  0.1860  0.0461 -0.0500
 9745SOL    HW134082   3.440   4.216   2.270  1.3091  0.1138 -3.3122
 9745SOL    HW234083   3.527   4.338   2.292  0.5260  0.1058  0.4573
 9746SOL     OW34084   7.305   3.378   1.671  0.3242  0.1815  0.2490
 9746SOL    HW134085   7.320   3.291   1.708 -1.4563 -0.9834 -1.5236
 9746SOL    HW234086   7.392   3.419   1.669  1.5509 -2.2502 -0.4719
 9747SOL     OW34087   5.182   9.481   9.588 -0.3894 -0.6112 -0.6984
 9747SOL    HW134088   5.257   9.538   9.602 -0.7535 -0.3613  0.3713
 9747SOL    HW234089   5.159   9.492   9.496  0.8050 -0.5997 -1.0028
 9748SOL     OW34090   2.169   6.661   3.356  0.1769 -0.0015  0.6800
 9748SOL    HW134091   2.188   6.728   3.292 -1.5060  0.2236  0.3831
 9748SOL    HW234092   2.143   6.709   3.435  0.7379 -0.3001  1.0604
 9749SOL     OW34093   4.247   4.598   2.545  0.1412 -0.0763  0.2687
 9749SOL    HW134094   4.222   4.508   2.569  0.2578 -0.6434 -1.5827
 9749SOL    HW234095   4.174   4.630   2.493  0.2757  0.7736  0.5970
 9750SOL     OW34096   3.240   7.439   3.881 -0.2949  0.0190 -0.3030
 9750SOL    HW134097   3.178   7.483   3.938  1.0219  3.1593 -1.0582
 9750SOL    HW234098   3.323   7.443   3.928  0.2508  0.1715 -1.2506
 9751SOL     OW34099   9.712   3.635   8.645 -0.0054 -0.0099  0.0010
 9751SOL    HW134100   9.694   3.726   8.621  3.2667  0.3379 -1.7847
 9751SOL    HW234101   9.758   3.640   8.729 -0.3411 -0.0727  0.1891
 9752SOL     OW34102   0.500   8.268   4.459  0.0184 -0.5556  0.0773
 9752SOL    HW134103   0.479   8.207   4.388 -3.8931 -1.4323  1.6977
 9752SOL    HW234104   0.564   8.222   4.513  2.1062 -0.3721 -2.0995
 9753SOL     OW34105   6.698   6.232   1.169 -0.2253  0.1173 -0.9866
 9753SOL    HW134106   6.618   6.235   1.221  0.3563  1.3281 -0.0955
 9753SOL    HW234107   6.668   6.234   1.078 -1.2908 -2.6138 -0.8002
 9754SOL     OW34108   3.350   5.734   9.517  0.3944 -0.0383  0.0527
 9754SOL    HW134109   3.408   5.785   9.575 -0.8824  3.6072 -1.5807
 9754SOL    HW234110   3.276   5.710   9.572 -0.4964  2.8266  0.3060
 9755SOL     OW34111   7.648   3.686   7.525  0.3005 -0.2391  0.3734
 9755SOL    HW134112   7.581   3.752   7.506  0.1717 -1.0699 -2.5400
 9755SOL    HW234113   7.717   3.735   7.570 -0.4156  1.5611 -0.3668
 9756SOL     OW34114   6.684   8.024   6.481 -0.7054  0.5696  0.5875
 9756SOL    HW134115   6.674   7.948   6.424 -0.4704  2.2467 -1.8211
 9756SOL    HW234116   6.602   8.074   6.469 -0.2906  1.3844  1.0306
 9757SOL     OW34117   4.994   5.735   5.310 -0.0189  0.5213  0.2820
 9757SOL    HW134118   4.957   5.665   5.257 -0.7638  2.4826 -2.0151
 9757SOL    HW234119   5.034   5.691   5.385 -0.7397 -2.2682 -0.8472
 9758SOL     OW34120   8.452   8.396   6.979 -0.0942  0.4265  0.0555
 9758SOL    HW134121   8.538   8.354   6.981 -0.3502 -0.0970  1.6354
 9758SOL    HW234122   8.440   8.430   7.067 -1.6139  0.2506 -0.0501
 9759SOL     OW34123   6.565   6.278   6.770 -0.3057 -0.5393 -0.6654
 9759SOL    HW134124   6.635   6.220   6.740 -0.5891 -1.4730  0.3875
 9759SOL    HW234125   6.485   6.229   6.753 -0.4437 -1.9429  3.0003
 9760SOL     OW34126   4.174   7.675   2.477 -0.2813 -0.0964  0.6614
 9760SOL    HW134127   4.127   7.753   2.506  0.4822  0.7664 -0.3268
 9760SOL    HW234128   4.144   7.662   2.387  0.9734  0.1815  0.1862
 9761SOL     OW34129   2.526   6.680   4.507  1.0541 -0.2106 -0.5844
 9761SOL    HW134130   2.433   6.662   4.499  1.1453 -2.5014  1.9044
 9761SOL    HW234131   2.532   6.757   4.563  0.6770 -0.2031 -0.5541
 9762SOL     OW34132   3.673   4.819   3.301 -0.0954  0.4185 -0.2768
 9762SOL    HW134133   3.605   4.881   3.326  0.9529  0.4034  3.2048
 9762SOL    HW234134   3.672   4.754   3.371  1.2953 -1.4517 -1.9012
 9763SOL     OW34135   6.625   7.845   6.249 -0.6832  0.0492  0.6118
 9763SOL    HW134136   6.704   7.830   6.197 -2.6934 -0.8917 -2.4494
 9763SOL    HW234137   6.605   7.759   6.286 -1.9152 -0.5376 -1.2756
 9764SOL     OW34138   0.768   4.382   1.618  0.0866  0.4031 -0.2119
 9764SOL    HW134139   0.827   4.345   1.553 -0.2184 -0.6092  0.0702
 9764SOL    HW234140   0.784   4.331   1.698 -0.3547  0.8668  0.1869
 9765SOL     OW34141   5.763   1.663   6.254  0.1825  0.0088  0.4343
 9765SOL    HW134142   5.853   1.658   6.222  0.1875 -0.8723  0.5557
 9765SOL    HW234143   5.731   1.573   6.249  0.4385 -0.3701  3.6313
 9766SOL     OW34144   8.603   4.337   2.227 -0.0508 -0.3608 -0.6286
 9766SOL    HW134145   8.635   4.420   2.192 -1.0302  0.0861 -0.4903
 9766SOL    HW234146   8.640   4.270   2.169 -0.1209  0.2402 -1.3744
 9767SOL     OW34147   8.820   4.265   3.680 -0.4755 -0.1233  0.0446
 9767SOL    HW134148   8.901   4.245   3.726  1.7089  0.8354 -3.0361
 9767SOL    HW234149   8.803   4.357   3.701  0.1302  0.1137 -0.4561
 9768SOL     OW34150   0.854   3.731   7.508 -0.4464  0.2217 -0.0777
 9768SOL    HW134151   0.803   3.777   7.575 -2.1172 -0.2754 -0.9397
 9768SOL    HW234152   0.908   3.798   7.467 -0.9697  0.9167  0.3619
 9769SOL     OW34153   5.576   8.958   9.751  0.5363  0.0264 -0.1750
 9769SOL    HW134154   5.519   8.903   9.698 -0.8856 -1.1204  2.3392
 9769SOL    HW234155   5.523   8.980   9.828  2.4292  1.6491  0.7545
 9770SOL     OW34156   0.921   2.216   6.464  0.2682 -0.0363 -0.2344
 9770SOL    HW134157   0.845   2.171   6.499  0.5702 -0.1112  0.3319
 9770SOL    HW234158   0.975   2.237   6.540  0.7145  0.2027 -0.6051
 9771SOL     OW34159   8.067   0.609   7.717  0.1390  0.3926  0.0637
 9771SOL    HW134160   7.984   0.615   7.671 -0.7039 -1.9180  1.1205
 9771SOL    HW234161   8.068   0.684   7.776 -1.1809  0.4627  0.0196
 9772SOL     OW34162   5.983   0.125   6.285 -0.1216  0.0755  0.1393
 9772SOL    HW134163   5.900   0.104   6.240  0.7223 -1.6953 -0.6984
 9772SOL    HW234164   6.014   0.040   6.318  1.2397  0.7494  0.6501
 9773SOL     OW34165   8.181   2.419   7.113  0.3493 -0.3081  0.1476
 9773SOL    HW134166   8.253   2.395   7.171  0.9001  0.7905 -0.0574
 9773SOL    HW234167   8.214   2.399   7.025 -0.9971 -3.3196  0.1904
 9774SOL     OW34168   8.466   0.230   9.512 -0.3971 -0.3320  0.6435
 9774SOL    HW134169   8.489   0.140   9.535 -0.7120 -0.5134  0.2653
 9774SOL    HW234170   8.528   0.284   9.561  0.9628 -0.8095 -0.4636
 9775SOL     OW34171   6.837   0.915   7.002 -0.1390  0.8280  0.6363
 9775SOL    HW134172   6.788   0.873   7.073 -0.0798 -0.9375 -0.2955
 9775SOL    HW234173   6.783   0.902   6.924  1.6031 -0.9615 -0.3725
 9776SOL     OW34174   0.637   8.792   0.140  0.0304 -0.4172 -0.2993
 9776SOL    HW134175   0.638   8.710   0.092 -0.1755 -0.2418 -0.6035
 9776SOL    HW234176   0.544   8.807   0.160 -0.3492  1.2220 -2.8037
 9777SOL     OW34177   8.303   4.750   8.085 -0.0862  0.2636  0.1291
 9777SOL    HW134178   8.253   4.746   8.004  1.7084 -3.4794 -1.0612
 9777SOL    HW234179   8.392   4.774   8.057  0.2540  0.2831  1.1732
 9778SOL     OW34180   3.864   5.805   5.543  0.3430  0.3393 -0.2272
 9778SOL    HW134181   3.836   5.731   5.597  0.3999  1.3364  1.2006
 9778SOL    HW234182   3.807   5.877   5.569  0.6084  0.9413 -1.2614
 9779SOL     OW34183   0.223   8.540   7.813 -0.2564 -0.0618 -0.6960
 9779SOL    HW134184   0.222   8.636   7.818 -1.1626 -0.0667 -0.6730
 9779SOL    HW234185   0.287   8.514   7.879 -0.6624  0.4971 -0.0665
 9780SOL     OW34186   4.172   3.461   4.081 -0.8525  0.5807  0.4500
 9780SOL    HW134187   4.083   3.432   4.062 -0.0544 -0.8820 -1.3152
 9780SOL    HW234188   4.165   3.557   4.086 -2.0142  0.7948 -2.9602
 9781SOL     OW34189   1.617   3.063   5.662 -0.6971 -0.2691  0.4373
 9781SOL    HW134190   1.564   3.129   5.705 -0.0449  0.7494 -0.2788
 9781SOL    HW234191   1.555   2.996   5.633 -1.8088  1.4831 -1.4992
 9782SOL     OW34192   1.517   0.643   1.976  0.2838 -0.2840  0.0487
 9782SOL    HW134193   1.577   0.695   2.028  1.7880 -0.9123 -0.9890
 9782SOL    HW234194   1.456   0.606   2.039  0.8472  0.5339  1.1042
 9783SOL     OW34195   1.363   7.496   2.309 -0.0938 -0.2582  0.0842
 9783SOL    HW134196   1.405   7.448   2.238 -1.5519 -0.7641 -0.4771
 9783SOL    HW234197   1.284   7.446   2.329 -1.6052  1.7582 -0.4254
 9784SOL     OW34198   7.592   1.415   4.101  0.6302 -1.1029  0.1051
 9784SOL    HW134199   7.540   1.335   4.104 -0.8540 -0.1644  0.7462
 9784SOL    HW234200   7.539   1.479   4.148  1.7076  0.3023 -0.5318
 9785SOL     OW34201   4.641   5.870   4.153  0.4971  0.3113 -0.1691
 9785SOL    HW134202   4.678   5.933   4.091  0.7191 -0.8163 -1.2225
 9785SOL    HW234203   4.551   5.858   4.123  0.2460  0.6274  0.4431
 9786SOL     OW34204   0.694   1.061   6.820  0.1774  0.2784 -0.5192
 9786SOL    HW134205   0.724   0.977   6.856  1.2560  0.4291 -1.0255
 9786SOL    HW234206   0.672   1.113   6.897  1.7141  0.3246 -0.0843
 9787SOL     OW34207   0.712   3.085   5.910 -0.1457  0.3527  0.0066
 9787SOL    HW134208   0.628   3.086   5.957 -0.7307 -2.3483 -0.8189
 9787SOL    HW234209   0.689   3.104   5.819  0.1174 -0.3431 -0.2134
 9788SOL     OW34210   4.971   3.474   1.743  0.0170  0.4496  0.3705
 9788SOL    HW134211   4.939   3.404   1.799  1.4498 -0.6536 -0.1484
 9788SOL    HW234212   4.947   3.447   1.654  0.5392  0.6473  0.1683
 9789SOL     OW34213   7.967   2.623   5.973  0.3133  0.0758 -0.0758
 9789SOL    HW134214   7.879   2.590   5.954  0.7945 -0.1297 -2.1823
 9789SOL    HW234215   7.953   2.704   6.022 -1.0200 -0.4218  0.3874
 9790SOL     OW34216   1.035   3.441   6.038  0.0158  0.1131  0.5961
 9790SOL    HW134217   1.098   3.463   6.107 -0.4276 -0.8651  1.3326
 9790SOL    HW234218   1.054   3.503   5.968  0.9508  0.6645  1.3133
 9791SOL     OW34219   7.311   2.355   2.095 -0.1576 -0.3496 -0.5070
 9791SOL    HW134220   7.290   2.289   2.162 -2.9207 -0.3628 -1.2974
 9791SOL    HW234221   7.301   2.439   2.140 -0.7181 -0.3826 -0.5717
 9792SOL     OW34222   1.362   1.007   6.018  0.5691 -0.0610  0.1977
 9792SOL    HW134223   1.304   0.936   6.044 -0.3274  0.0966 -1.2255
 9792SOL    HW234224   1.431   1.008   6.084 -0.2292 -1.2484  1.0874
 9793SOL     OW34225   3.455   8.832   0.440  0.0117  0.1140  0.3928
 9793SOL    HW134226   3.383   8.829   0.503  0.3392 -2.4464  0.7850
 9793SOL    HW234227   3.436   8.759   0.380  2.7441 -1.3320  1.1338
 9794SOL     OW34228   1.225   9.696   4.285  0.0569 -0.2383 -0.1379
 9794SOL    HW134229   1.277   9.725   4.360 -1.3545 -0.5725  1.0197
 9794SOL    HW234230   1.271   9.732   4.209 -0.4505  3.4299  1.0526
 9795SOL     OW34231   1.074   0.524   7.936 -0.1251 -0.0747  0.2914
 9795SOL    HW134232   1.066   0.582   8.012 -1.2153 -0.7170  0.6874
 9795SOL    HW234233   1.115   0.444   7.971  3.9544  1.3058 -0.7489
 9796SOL     OW34234   7.314   1.427   5.206  0.2966  0.6809 -1.1746
 9796SOL    HW134235   7.322   1.500   5.267 -0.0223  0.7024 -1.1521
 9796SOL    HW234236   7.243   1.454   5.146 -0.0151  0.2733 -0.9927
 9797SOL     OW34237   7.238   6.092   5.738  0.2761  0.1699  0.3426
 9797SOL    HW134238   7.275   6.177   5.763  2.7857 -0.7628  0.0069
 9797SOL    HW234239   7.280   6.071   5.655 -0.7423 -1.1711  0.1347
 9798SOL     OW34240   5.910   5.932   4.449  0.2247 -0.1249  0.5041
 9798SOL    HW134241   5.909   5.869   4.522  1.8322  0.6595  1.2543
 9798SOL    HW234242   5.964   5.890   4.382 -0.0837 -0.2456  0.3293
 9799SOL     OW34243   3.472   3.638   8.334 -0.1733  0.0585  0.5041
 9799SOL    HW134244   3.479   3.672   8.424 -1.0043  0.3806  0.4494
 9799SOL    HW234245   3.379   3.639   8.315 -0.0785 -0.8895 -0.0393
 9800SOL     OW34246   8.004   4.887   7.465  0.0233  0.6358  0.2179
 9800SOL    HW134247   7.946   4.817   7.435  0.9259 -0.2254  0.4173
 9800SOL    HW234248   8.092   4.853   7.448  0.4982  1.2312  1.4098
 9801SOL     OW34249   0.845   4.673   4.658 -0.3785 -0.1088 -0.4506
 9801SOL    HW134250   0.938   4.665   4.638 -0.3750  1.1022 -1.0191
 9801SOL    HW234251   0.802   4.678   4.572 -0.8249  0.6861 -0.1896
 9802SOL     OW34252   1.225   3.737   0.918 -0.6202 -0.1549  0.3017
 9802SOL    HW134253   1.218   3.650   0.879  3.0352  0.2764 -1.7775
 9802SOL    HW234254   1.302   3.732   0.974 -0.8384  1.5286  0.7992
 9803SOL     OW34255   2.153   5.274   8.684  0.4265 -0.0612 -0.0413
 9803SOL    HW134256   2.231   5.218   8.684  1.0324  0.7224  1.3043
 9803SOL    HW234257   2.187   5.362   8.700 -0.6331  0.4998 -0.7430
 9804SOL     OW34258   3.258   8.750   8.751  0.1640  0.3191  0.6018
 9804SOL    HW134259   3.297   8.735   8.664 -0.6456 -0.7158  0.3944
 9804SOL    HW234260   3.192   8.817   8.736  0.7656  0.9311  0.6422
 9805SOL     OW34261   9.293   4.137   5.127 -0.0134 -0.0318  0.6350
 9805SOL    HW134262   9.327   4.048   5.117  1.6253  0.4389  1.6488
 9805SOL    HW234263   9.201   4.125   5.151 -0.5308 -1.3755 -1.6493
 9806SOL     OW34264   3.201   2.381   5.861 -0.5939  0.4517  0.4069
 9806SOL    HW134265   3.252   2.306   5.889 -2.1800 -0.0619  2.1381
 9806SOL    HW234266   3.112   2.347   5.851 -1.2886  2.0216  0.9277
 9807SOL     OW34267   0.625   4.462   3.654 -0.7098 -0.7351 -0.0844
 9807SOL    HW134268   0.566   4.538   3.653 -0.9992 -0.9356  0.8969
 9807SOL    HW234269   0.698   4.488   3.598 -1.5478 -0.3405 -1.0238
 9808SOL     OW34270   8.629   1.222   9.711  0.5083  0.0696  0.2831
 9808SOL    HW134271   8.618   1.310   9.747  1.9908 -0.1781  1.4603
 9808SOL    HW234272   8.722   1.217   9.691  1.1332 -2.2257  3.1428
 9809SOL     OW34273   7.913   8.033   3.553  0.3496 -0.0202  0.6903
 9809SOL    HW134274   7.872   8.117   3.573  0.9831  0.6245 -0.6274
 9809SOL    HW234275   8.002   8.040   3.590  1.1396  0.7474 -1.2471
 9810SOL     OW34276   1.270   6.137   3.901  0.3289 -0.2545 -0.7396
 9810SOL    HW134277   1.235   6.178   3.980  1.2548  0.9943 -0.9335
 9810SOL    HW234278   1.218   6.174   3.830 -1.2286 -2.1983 -0.6782
 9811SOL     OW34279   6.288   5.167   9.669 -0.5596  0.1089  0.0853
 9811SOL    HW134280   6.195   5.183   9.649 -0.2668  0.3768 -1.1509
 9811SOL    HW234281   6.334   5.239   9.627  0.2327 -0.1363  0.5223
 9812SOL     OW34282   1.269   2.524   4.766  0.6899 -0.2019 -0.0106
 9812SOL    HW134283   1.177   2.537   4.787  0.6110  0.3537 -0.6633
 9812SOL    HW234284   1.289   2.437   4.800 -0.1575 -0.4520 -0.1309
 9813SOL     OW34285   5.761   3.643   6.079 -0.0449 -0.2727 -1.0972
 9813SOL    HW134286   5.755   3.645   6.174  1.9374  0.0129 -0.9209
 9813SOL    HW234287   5.727   3.727   6.050  1.1856  0.4782 -0.4534
 9814SOL     OW34288   1.777   5.499   1.239  0.6582  0.8439 -0.1743
 9814SOL    HW134289   1.816   5.535   1.318  2.3924 -0.0698 -0.5634
 9814SOL    HW234290   1.846   5.445   1.200 -0.7333 -0.1695 -1.3715
 9815SOL     OW34291   1.742   7.862   6.280 -0.1219  0.2106  0.0725
 9815SOL    HW134292   1.784   7.799   6.221 -1.9777 -0.5828 -0.4899
 9815SOL    HW234293   1.685   7.913   6.222  0.1778  1.3751  0.7761
 9816SOL     OW34294   1.314   3.489   5.866  0.2825  0.0141  0.1866
 9816SOL    HW134295   1.306   3.413   5.924 -0.4502  0.0228  0.1073
 9816SOL    HW234296   1.224   3.507   5.837  0.7222 -0.5166 -1.6341
 9817SOL     OW34297   9.128   6.549   3.972  0.2552  0.0960 -0.2853
 9817SOL    HW134298   9.125   6.454   3.982  1.2533  0.0884  0.0017
 9817SOL    HW234299   9.210   6.575   4.013 -1.1351  1.3627  1.9077
 9818SOL     OW34300   6.380   0.184   3.466 -0.2640  0.8689  0.7466
 9818SOL    HW134301   6.350   0.100   3.502  0.3877  0.3080 -0.0124
 9818SOL    HW234302   6.385   0.241   3.543 -2.6372  0.8211  1.0172
 9819SOL     OW34303   9.730   3.419   8.481 -0.3043  0.0499  0.1682
 9819SOL    HW134304   9.654   3.361   8.486  1.7413 -2.7584  1.7372
 9819SOL    HW234305   9.710   3.490   8.542 -2.4593  0.5245 -1.0067
 9820SOL     OW34306   3.539   4.136   3.097  0.0744 -0.3134  0.1273
 9820SOL    HW134307   3.484   4.176   3.164  0.2820  0.3019 -0.0610
 9820SOL    HW234308   3.594   4.074   3.144  1.9628  1.8515  0.9532
 9821SOL     OW34309   6.028   7.557   8.214 -0.1571  0.4514 -0.7096
 9821SOL    HW134310   6.090   7.530   8.282  0.4435  0.3468 -1.2886
 9821SOL    HW234311   6.064   7.639   8.179 -0.8314  0.8792 -0.4380
 9822SOL     OW34312   4.144   8.253   5.005  0.1277  0.0611  0.1970
 9822SOL    HW134313   4.111   8.171   4.970  0.9012  0.0785 -0.5963
 9822SOL    HW234314   4.074   8.284   5.063 -2.2210  1.1375 -2.9250
 9823SOL     OW34315   6.526   4.340   3.512  0.1877  0.1289 -0.3498
 9823SOL    HW134316   6.612   4.299   3.514  0.1446  0.0272  1.9834
 9823SOL    HW234317   6.464   4.267   3.506  0.1840 -0.0548  1.5342
 9824SOL     OW34318   2.996   5.825   2.696 -0.4147  0.7598 -0.4578
 9824SOL    HW134319   3.091   5.831   2.705 -0.5389  1.6505  0.3946
 9824SOL    HW234320   2.980   5.835   2.602  0.4387 -1.3464 -0.8773
 9825SOL     OW34321   5.609   0.774   7.347 -0.4273  0.0244  0.2071
 9825SOL    HW134322   5.618   0.869   7.349  0.2877 -0.0018 -0.7564
 9825SOL    HW234323   5.641   0.749   7.260 -1.3131 -1.0305  0.1636
 9826SOL     OW34324   5.414   8.757   6.693 -0.0467  0.0202  0.3392
 9826SOL    HW134325   5.438   8.761   6.785  2.2873  0.0196 -0.1928
 9826SOL    HW234326   5.429   8.846   6.660 -0.6508 -0.0277 -0.0817
 9827SOL     OW34327   0.592   3.684   6.066  0.1097  0.4114 -0.0811
 9827SOL    HW134328   0.617   3.729   5.986 -1.1197  1.4321  0.0886
 9827SOL    HW234329   0.502   3.656   6.052  0.3574 -0.7135  0.3965
 9828SOL     OW34330   0.044   2.897   5.162  0.3546 -0.1281  0.4903
 9828SOL    HW134331   0.046   2.804   5.137 -0.1610 -0.4785  1.6619
 9828SOL    HW234332  -0.014   2.938   5.098 -1.1302 -1.0415  1.2096
 9829SOL     OW34333   0.501   7.647   8.877 -0.2352  0.4681 -0.3285
 9829SOL    HW134334   0.424   7.633   8.823  1.0889 -0.9286 -1.9847
 9829SOL    HW234335   0.519   7.562   8.916  1.1710  0.4256 -1.0008
 9830SOL     OW34336   4.699   9.581   5.375  0.8555 -0.5278 -0.6285
 9830SOL    HW134337   4.789   9.599   5.400  0.4213  1.6203 -0.4304
 9830SOL    HW234338   4.652   9.663   5.391 -0.6309 -0.7902 -3.0739
 9831SOL     OW34339   0.658   2.347   2.503 -0.3625  0.3618  0.4318
 9831SOL    HW134340   0.639   2.253   2.500  1.0152  0.0718  0.0813
 9831SOL    HW234341   0.572   2.389   2.500 -0.9966 -0.7545 -4.2176
 9832SOL     OW34342   4.966   0.346   6.087  0.5776 -0.2306  0.0230
 9832SOL    HW134343   4.916   0.425   6.108 -1.0118 -1.2930  0.4770
 9832SOL    HW234344   4.903   0.290   6.040  1.4037 -1.5463  0.4243
 9833SOL     OW34345   2.285   1.063   2.016 -0.1458 -0.2520  0.0165
 9833SOL    HW134346   2.349   1.077   1.947 -0.5597 -1.0082 -0.5368
 9833SOL    HW234347   2.239   0.983   1.991 -0.4124 -0.4533  1.0869
 9834SOL     OW34348   6.068   9.290   5.841  0.5728  0.1669 -0.0237
 9834SOL    HW134349   5.984   9.260   5.876 -0.5271  3.5450  0.6214
 9834SOL    HW234350   6.127   9.292   5.916 -0.2331  2.2736  0.6265
 9835SOL     OW34351   4.262   2.625   6.933 -0.0284  0.2865  0.4500
 9835SOL    HW134352   4.332   2.674   6.976  1.0079 -1.5560  0.9803
 9835SOL    HW234353   4.207   2.594   7.005 -0.7224  0.7240  0.1166
 9836SOL     OW34354   7.732   3.610   6.740 -0.1578 -0.1756  0.0519
 9836SOL    HW134355   7.719   3.670   6.813  1.3732 -1.1878  1.2088
 9836SOL    HW234356   7.820   3.632   6.707  0.6397 -2.0562  0.8113
 9837SOL     OW34357   9.210   5.599   9.257  0.6221 -0.1086  0.0653
 9837SOL    HW134358   9.297   5.617   9.291 -0.1255  1.1512  1.3987
 9837SOL    HW234359   9.170   5.542   9.323  0.3137 -0.4289 -0.3879
 9838SOL     OW34360   0.470   2.254   3.639 -0.2335  0.1576  1.0275
 9838SOL    HW134361   0.376   2.255   3.618 -0.0033  1.0923 -0.0545
 9838SOL    HW234362   0.493   2.346   3.649  0.8291  0.0352 -0.0130
 9839SOL     OW34363   8.778   7.733   1.223 -0.0657  0.5513  0.2473
 9839SOL    HW134364   8.735   7.675   1.286 -3.4661  2.2497 -0.2463
 9839SOL    HW234365   8.818   7.802   1.276  0.1080  0.1251  0.6728
 9840SOL     OW34366   0.543   6.550   8.819  0.0652  0.1910 -0.3543
 9840SOL    HW134367   0.457   6.508   8.815 -0.0916  0.4807 -0.0639
 9840SOL    HW234368   0.526   6.642   8.798  0.0597  0.5821  1.2035
 9841SOL     OW34369   7.114   8.247   1.172 -0.1890 -0.2769 -0.1625
 9841SOL    HW134370   7.071   8.200   1.100 -0.7641 -0.4082  0.2564
 9841SOL    HW234371   7.073   8.333   1.173 -0.7368 -0.5355  0.4891
 9842SOL     OW34372   6.555   8.571   7.356 -0.2632 -0.4331 -0.1375
 9842SOL    HW134373   6.604   8.561   7.438  1.7466  0.3467 -1.1897
 9842SOL    HW234374   6.521   8.660   7.359  2.5435  0.8107 -1.4644
 9843SOL     OW34375   7.293   5.611   1.866  0.0303  0.4595 -0.0388
 9843SOL    HW134376   7.221   5.552   1.845 -1.2803  1.6550  0.9277
 9843SOL    HW234377   7.307   5.600   1.960  1.5732 -0.2083 -0.3070
 9844SOL     OW34378   3.178   8.471   1.114 -0.4738 -0.1849  0.3921
 9844SOL    HW134379   3.213   8.559   1.102  1.0404 -0.6510  1.1346
 9844SOL    HW234380   3.139   8.449   1.029 -0.2756  0.9354 -0.0105
 9845SOL     OW34381   6.052   0.669   8.972 -0.3991 -0.1817  0.1640
 9845SOL    HW134382   6.031   0.642   9.061  0.8097  0.6610  0.7271
 9845SOL    HW234383   5.968   0.688   8.932 -1.0453 -1.6639  0.7550
 9846SOL     OW34384   0.318   1.211   8.458  0.0879  0.3531 -0.0010
 9846SOL    HW134385   0.247   1.246   8.512  0.1654  0.7032 -0.1225
 9846SOL    HW234386   0.275   1.173   8.382  0.0908  1.6189 -0.6619
 9847SOL     OW34387   8.909   4.778   2.613  0.6785 -0.7540 -0.2922
 9847SOL    HW134388   8.911   4.729   2.530 -3.1611  1.4191 -1.9199
 9847SOL    HW234389   8.974   4.847   2.600  2.0994 -2.0204 -0.2562
 9848SOL     OW34390   6.271   1.231   2.840  0.0607  0.3512  0.1431
 9848SOL    HW134391   6.266   1.141   2.809  0.4930  0.7404 -1.1276
 9848SOL    HW234392   6.261   1.225   2.935 -0.4319 -0.9789  0.0188
 9849SOL     OW34393   5.854   9.358   9.551 -0.5134  0.5006 -0.2733
 9849SOL    HW134394   5.791   9.404   9.495  0.4662  0.8229 -1.1653
 9849SOL    HW234395   5.801   9.301   9.607 -1.6016  1.0062 -0.7706
 9850SOL     OW34396   0.305   5.294   5.262  0.0584  0.4944  0.7458
 9850SOL    HW134397   0.328   5.331   5.177 -1.1563 -0.3009  0.0394
 9850SOL    HW234398   0.385   5.251   5.291  0.1190 -0.4580 -0.6897
 9851SOL     OW34399   5.959   8.540   4.536  0.7662  0.2607  0.2453
 9851SOL    HW134400   5.917   8.472   4.588  0.5108  0.2425  0.0186
 9851SOL    HW234401   5.948   8.512   4.446  0.2117  0.8429  0.1169
 9852SOL     OW34402   3.514   0.591   2.003  0.2444 -0.2100 -0.6856
 9852SOL    HW134403   3.584   0.532   1.975 -0.3723 -0.0969 -2.5513
 9852SOL    HW234404   3.440   0.533   2.022  0.3783 -0.2144 -0.1701
 9853SOL     OW34405   6.372   4.393   2.959 -0.0703  0.0718 -0.5555
 9853SOL    HW134406   6.381   4.418   2.867 -1.3700 -0.5367 -0.8786
 9853SOL    HW234407   6.282   4.417   2.981  0.3551  0.5792  0.6846
 9854SOL     OW34408   4.755   2.342   1.473 -0.4280  0.0667  0.1878
 9854SOL    HW134409   4.817   2.375   1.538 -1.8870 -0.6739  2.0551
 9854SOL    HW234410   4.681   2.403   1.477 -0.4270  0.1733 -1.0160
 9855SOL     OW34411   0.363   8.317   1.872 -0.2097  0.1858 -0.0731
 9855SOL    HW134412   0.436   8.343   1.816 -0.1904 -1.8183 -1.0689
 9855SOL    HW234413   0.286   8.351   1.826 -0.0198  1.0893  0.2499
 9856SOL     OW34414   1.321   1.426   7.486  0.2224  0.1558 -0.7255
 9856SOL    HW134415   1.298   1.400   7.575 -3.3159 -0.5214 -1.7008
 9856SOL    HW234416   1.401   1.377   7.466 -0.5891 -2.0548  1.0427
 9857SOL     OW34417   2.834   1.723   5.527  0.4805  0.1311  0.2540
 9857SOL    HW134418   2.852   1.706   5.619 -2.4399  1.9878  1.3160
 9857SOL    HW234419   2.769   1.656   5.502 -0.1585  0.7765  0.1488
 9858SOL     OW34420   9.624   1.011   7.121  0.1023 -0.2317  0.5814
 9858SOL    HW134421   9.713   1.047   7.120 -0.0028  0.0343  0.2414
 9858SOL    HW234422   9.626   0.942   7.054 -0.0714  0.0880  0.2468
 9859SOL     OW34423   1.185   5.011   8.793  0.2945  0.0492  0.3705
 9859SOL    HW134424   1.259   4.997   8.852  0.0781 -0.2161  0.5853
 9859SOL    HW234425   1.224   5.041   8.711  0.8240 -1.9062 -0.1579
 9860SOL     OW34426   7.387   7.890   5.965  0.0536 -0.1192 -0.7622
 9860SOL    HW134427   7.467   7.869   6.014 -0.3310 -1.5585 -0.7154
 9860SOL    HW234428   7.393   7.984   5.951  1.8904 -0.2163 -0.9761
 9861SOL     OW34429   1.684   4.451   5.763 -0.4164 -0.0506 -0.2339
 9861SOL    HW134430   1.651   4.390   5.829  0.0019 -0.4025 -0.3519
 9861SOL    HW234431   1.777   4.461   5.784 -0.2005 -0.4383 -0.9884
 9862SOL     OW34432   4.703   0.158   0.348 -0.2418  0.0533  0.0399
 9862SOL    HW134433   4.702   0.073   0.392 -0.9649 -0.5077 -0.9913
 9862SOL    HW234434   4.784   0.199   0.377  1.4245 -2.0285 -1.2923
 9863SOL     OW34435   3.546   3.521   1.351  0.1570 -0.1829  0.7305
 9863SOL    HW134436   3.508   3.607   1.330 -1.4790 -1.2217 -0.8061
 9863SOL    HW234437   3.476   3.474   1.397 -0.0626 -1.6860 -1.0231
 9864SOL     OW34438   9.221   3.977   8.744 -0.4538 -0.2748  0.1189
 9864SOL    HW134439   9.298   3.929   8.773 -0.3335 -0.1289  0.0489
 9864SOL    HW234440   9.255   4.036   8.676 -0.4482  0.4722  0.7542
 9865SOL     OW34441   6.971   0.299   4.468  0.7141 -0.3900 -0.7227
 9865SOL    HW134442   6.956   0.325   4.378 -1.5464  0.4089 -0.1859
 9865SOL    HW234443   6.970   0.381   4.518  0.9544 -0.8985  0.1541
 9866SOL     OW34444   7.067   7.939   7.877 -0.4146  0.1362  0.5297
 9866SOL    HW134445   7.083   7.948   7.783 -0.9414 -2.2290  0.1601
 9866SOL    HW234446   6.992   7.996   7.893 -0.8829 -0.0970 -0.6824
 9867SOL     OW34447   2.091   4.973   2.117  0.6023 -0.0164 -0.6976
 9867SOL    HW134448   2.023   5.014   2.064 -0.5607  0.4007  1.0271
 9867SOL    HW234449   2.112   5.037   2.184  1.4008 -0.8331 -0.1391
 9868SOL     OW34450   4.868   9.371   7.376  0.0020  0.1253  0.1201
 9868SOL    HW134451   4.952   9.418   7.381 -0.5399  1.0171  1.2806
 9868SOL    HW234452   4.864   9.340   7.285  1.8712 -0.5058  0.2207
 9869SOL     OW34453   4.654   5.801   1.099  0.6779  0.1525  0.1306
 9869SOL    HW134454   4.653   5.863   1.026  0.6326  1.4916  1.2199
 9869SOL    HW234455   4.746   5.781   1.112  0.8163  0.9925  0.5506
 9870SOL     OW34456   8.049   1.172   4.651 -0.6848 -0.4740 -0.1293
 9870SOL    HW134457   8.053   1.217   4.567  0.5671  1.9221  1.1263
 9870SOL    HW234458   8.118   1.105   4.646 -0.3147 -0.0467 -0.8329
 9871SOL     OW34459   6.332   5.998   9.702 -0.1547 -0.1378 -0.5995
 9871SOL    HW134460   6.370   5.939   9.636 -0.0356  0.3907 -1.0108
 9871SOL    HW234461   6.293   5.939   9.766 -0.8441 -0.6725 -1.4727
 9872SOL     OW34462   0.765   0.792   6.871 -0.7462 -0.0066  0.6677
 9872SOL    HW134463   0.712   0.778   6.950 -1.0893 -1.2228  0.2540
 9872SOL    HW234464   0.852   0.761   6.895 -0.3616  1.3660  1.1355
 9873SOL     OW34465   2.165   6.031   1.408  0.1618 -0.1280  0.5427
 9873SOL    HW134466   2.204   6.026   1.495 -0.2446  1.5478  0.8669
 9873SOL    HW234467   2.204   6.110   1.369 -0.8585  0.0538 -0.1586
 9874SOL     OW34468   3.362   3.343   7.916 -0.4639 -0.8289  0.4124
 9874SOL    HW134469   3.387   3.339   8.008 -2.1771 -0.3428  0.9419
 9874SOL    HW234470   3.303   3.419   7.911 -1.1129 -1.3939 -0.8989
 9875SOL     OW34471   3.347   7.777   4.190  0.4376  0.0586  0.0636
 9875SOL    HW134472   3.395   7.695   4.185  1.6488  0.6891  0.9287
 9875SOL    HW234473   3.255   7.751   4.192  0.8098 -1.2817  0.4816
 9876SOL     OW34474   5.452   4.698   0.792  0.2101 -0.4460  0.5621
 9876SOL    HW134475   5.474   4.787   0.764 -0.0987 -0.0056  1.6598
 9876SOL    HW234476   5.456   4.702   0.887 -0.3143 -1.4808  0.6347
 9877SOL     OW34477   5.911   8.589   6.654  0.0506 -0.0108  0.2170
 9877SOL    HW134478   5.906   8.511   6.710  1.1195  0.6318  1.2528
 9877SOL    HW234479   5.820   8.607   6.631 -0.1878 -1.7760 -0.3616
 9878SOL     OW34480   6.294   8.230   0.498  0.1440 -0.1540 -0.4389
 9878SOL    HW134481   6.353   8.172   0.547 -1.2504 -0.7085  0.6719
 9878SOL    HW234482   6.346   8.308   0.480  1.8189 -1.4068 -1.2629
 9879SOL     OW34483   3.846   1.986   7.584  0.1072 -0.1607 -0.5421
 9879SOL    HW134484   3.891   1.902   7.571  0.6295  0.4458 -3.1503
 9879SOL    HW234485   3.816   1.983   7.675  2.0919 -2.2035  0.1435
 9880SOL     OW34486   4.635   1.340   3.471 -0.1834  0.0991  0.4389
 9880SOL    HW134487   4.654   1.423   3.515  3.7050  0.1474 -0.9387
 9880SOL    HW234488   4.648   1.273   3.538  1.0149  0.4133  0.5327
 9881SOL     OW34489   6.535   6.537   9.535  0.2453  0.5164  0.4161
 9881SOL    HW134490   6.451   6.493   9.524  0.8958 -0.6479 -0.0748
 9881SOL    HW234491   6.597   6.467   9.555  1.0780  1.3675  0.9436
 9882SOL     OW34492   0.305   7.948   3.683 -0.4457  0.1701 -0.0652
 9882SOL    HW134493   0.266   8.032   3.660  0.8036  0.4566 -1.2639
 9882SOL    HW234494   0.301   7.945   3.778 -1.5334  1.0713 -0.0592
 9883SOL     OW34495   6.770   6.457   8.676  0.2235  0.2019  0.1426
 9883SOL    HW134496   6.758   6.425   8.587 -0.9273  1.1733 -0.0755
 9883SOL    HW234497   6.766   6.552   8.668  0.0438  0.2998  1.2295
 9884SOL     OW34498   4.267   4.609   3.321  0.6423  0.2743 -0.1494
 9884SOL    HW134499   4.351   4.630   3.361  1.1467 -0.0305 -1.0128
 9884SOL    HW234500   4.228   4.544   3.378  1.8631 -1.0090 -0.7281
 9885SOL     OW34501   3.348   6.251   3.377 -0.0835 -0.1243 -0.2691
 9885SOL    HW134502   3.403   6.195   3.323 -0.0894  0.4206 -0.8558
 9885SOL    HW234503   3.407   6.322   3.405 -0.0050 -0.5497  0.6860
 9886SOL     OW34504   7.428   1.506   7.360 -0.2740  0.0066 -0.0008
 9886SOL    HW134505   7.359   1.442   7.343 -0.5918 -0.0605  1.4652
 9886SOL    HW234506   7.509   1.460   7.342 -0.5024 -0.8198  1.0228
 9887SOL     OW34507   2.838   3.044   1.981  0.2105 -0.8522 -0.0020
 9887SOL    HW134508   2.903   3.049   1.911  3.3709  1.8232  2.7896
 9887SOL    HW234509   2.769   3.105   1.954  0.5376 -1.0732 -1.4374
 9888SOL     OW34510   5.427   8.290   3.483 -0.3588  0.0051  0.5767
 9888SOL    HW134511   5.479   8.309   3.405 -1.4539  1.3789  0.1305
 9888SOL    HW234512   5.482   8.316   3.556 -0.5561  1.9776  0.0928
 9889SOL     OW34513   5.833   6.615   6.942 -0.6315  0.2441  0.7271
 9889SOL    HW134514   5.890   6.578   6.875 -1.4534 -0.9516  0.6672
 9889SOL    HW234515   5.803   6.698   6.905 -0.6758 -0.1651 -0.1692
 9890SOL     OW34516   1.884   9.411   9.355  0.1781  0.9726 -0.0944
 9890SOL    HW134517   1.882   9.454   9.441 -0.3723  0.7732  0.0017
 9890SOL    HW234518   1.808   9.447   9.309  1.2408  2.0849 -1.0115
 9891SOL     OW34519   0.595   8.434   6.023 -0.1189  0.4095  0.4534
 9891SOL    HW134520   0.564   8.351   5.989 -2.0201  1.4321 -0.5030
 9891SOL    HW234521   0.564   8.436   6.114  1.0114 -0.4121  0.8754
 9892SOL     OW34522   4.602   7.072   9.633 -0.6625 -0.8110 -0.0052
 9892SOL    HW134523   4.637   7.094   9.719  0.8119  0.6177 -0.9329
 9892SOL    HW234524   4.515   7.036   9.651 -0.4141 -0.4682  2.0605
 9893SOL     OW34525   2.202   4.780   6.900 -0.1792  0.4220 -0.1234
 9893SOL    HW134526   2.266   4.851   6.901 -0.9040  1.0745  0.6516
 9893SOL    HW234527   2.117   4.824   6.902 -0.7137 -0.3945 -2.3479
 9894SOL     OW34528   7.998   1.329   4.876 -0.4667 -0.4498 -0.2539
 9894SOL    HW134529   8.024   1.266   4.809  0.3797  1.4452 -1.8150
 9894SOL    HW234530   8.000   1.279   4.958  2.5442 -1.8721 -1.0553
 9895SOL     OW34531   6.251   6.743   4.868  0.1603  0.2971  0.1213
 9895SOL    HW134532   6.325   6.704   4.822  0.2615 -0.3200  0.7909
 9895SOL    HW234533   6.193   6.670   4.886 -0.5442  0.7561 -0.2591
 9896SOL     OW34534   1.684   1.202   2.884  0.3188 -0.1557 -0.3275
 9896SOL    HW134535   1.739   1.179   2.959  1.7336  0.5037 -1.1216
 9896SOL    HW234536   1.700   1.133   2.821  0.2039  0.0224 -0.5526
 9897SOL     OW34537   9.407   3.137   9.100  0.7556  0.1942 -0.3439
 9897SOL    HW134538   9.485   3.086   9.119  2.0793  2.0139 -0.5448
 9897SOL    HW234539   9.393   3.124   9.006  0.4244 -0.6323 -0.1867
 9898SOL     OW34540   6.851   1.955   3.246 -0.1229 -0.4645 -0.0112
 9898SOL    HW134541   6.859   2.033   3.191 -3.6886 -1.4281 -2.2298
 9898SOL    HW234542   6.845   1.882   3.184  1.5411 -2.4213  1.9418
 9899SOL     OW34543   9.536   3.966   8.854  0.1855 -0.2432 -0.2596
 9899SOL    HW134544   9.484   4.004   8.925  1.1105  1.2287 -0.3414
 9899SOL    HW234545   9.597   3.907   8.899  0.8130  0.7313  0.2003
 9900SOL     OW34546   5.130   8.537   7.528  0.3308 -0.1553 -0.6290
 9900SOL    HW134547   5.052   8.483   7.538  0.8907 -1.2046 -1.7108
 9900SOL    HW234548   5.173   8.504   7.449  0.4194  2.2217 -1.6764
 9901SOL     OW34549   7.119   3.592   7.169  0.2053 -0.1941  0.3491
 9901SOL    HW134550   7.138   3.633   7.085 -1.0447  0.3675  0.3163
 9901SOL    HW234551   7.180   3.518   7.175 -0.1558 -0.6600 -1.3518
 9902SOL     OW34552   9.619   8.983   3.673  0.2213 -0.3287 -0.2171
 9902SOL    HW134553   9.640   9.047   3.741 -1.3657  1.1490 -1.0366
 9902SOL    HW234554   9.527   8.999   3.652 -0.6449 -3.7256  0.3699
 9903SOL     OW34555   7.428   9.211   7.309 -0.3137  0.1665 -0.4328
 9903SOL    HW134556   7.495   9.143   7.316 -0.2081  0.4429  1.9856
 9903SOL    HW234557   7.360   9.172   7.255  1.0236 -0.7512 -1.5305
 9904SOL     OW34558   9.223   3.787   6.677  0.3641  0.3851 -0.2743
 9904SOL    HW134559   9.299   3.768   6.733 -0.4399  0.3315  0.8382
 9904SOL    HW234560   9.158   3.823   6.738 -1.2762 -1.5490 -0.8042
 9905SOL     OW34561   1.644   5.290   5.724 -0.7810 -0.2752 -0.5222
 9905SOL    HW134562   1.614   5.293   5.814  1.3688  1.2514  0.2156
 9905SOL    HW234563   1.571   5.251   5.675 -1.8915 -1.3689  1.8746
 9906SOL     OW34564   3.982   8.833   1.989  0.1937 -0.4490  1.0499
 9906SOL    HW134565   4.023   8.895   1.930  0.2916 -0.7119  0.8380
 9906SOL    HW234566   4.011   8.747   1.958 -1.4394 -0.7183  0.1552
 9907SOL     OW34567   5.078   4.559   7.111 -0.3276 -0.0360  0.3158
 9907SOL    HW134568   5.049   4.533   7.198 -1.0287  2.5302  0.9041
 9907SOL    HW234569   4.998   4.569   7.060  0.0487 -0.9477 -0.5069
 9908SOL     OW34570   6.903   0.389   7.770  0.5544  0.2147  0.2637
 9908SOL    HW134571   6.927   0.478   7.793 -0.8150  1.3724 -2.3833
 9908SOL    HW234572   6.834   0.366   7.833  1.2758  0.7830  1.2899
 9909SOL     OW34573   9.525   4.625   0.032 -0.2748  0.0274 -0.0979
 9909SOL    HW134574   9.469   4.653   0.105 -0.5825  0.4348 -0.4875
 9909SOL    HW234575   9.597   4.578   0.074 -2.6872 -3.7315  0.3084
 9910SOL     OW34576   9.742   8.791   4.647  0.3457  0.6675 -0.1151
 9910SOL    HW134577   9.818   8.800   4.705  0.8722  0.1190 -0.7036
 9910SOL    HW234578   9.765   8.841   4.569  0.9520 -1.0775 -1.1041
 9911SOL     OW34579   3.301   3.706   3.574  0.0045  0.5280  0.2543
 9911SOL    HW134580   3.321   3.800   3.575 -1.3105  0.9331 -2.2061
 9911SOL    HW234581   3.386   3.664   3.556  0.1888  1.5355 -1.5352
 9912SOL     OW34582   9.334   4.286   0.931  0.0310 -0.1278  0.1175
 9912SOL    HW134583   9.290   4.250   1.008 -0.9322 -0.1159 -0.4082
 9912SOL    HW234584   9.313   4.225   0.861  0.0283  0.4088 -0.3553
 9913SOL     OW34585   8.554   2.299   1.503  0.0252 -0.0145  0.1215
 9913SOL    HW134586   8.582   2.351   1.427 -0.2726  0.2485  0.1881
 9913SOL    HW234587   8.595   2.343   1.578 -0.1889  0.0993  0.1733
 9914SOL     OW34588   1.359   7.313   6.919 -0.2491  0.2775  0.9573
 9914SOL    HW134589   1.330   7.226   6.890 -1.1582  0.8352  0.1249
 9914SOL    HW234590   1.452   7.316   6.895 -0.7975  0.4595 -1.4040
 9915SOL     OW34591   2.902   6.511   1.753 -0.2582  0.5787  0.3178
 9915SOL    HW134592   2.840   6.561   1.806 -0.8629 -0.9146  1.0927
 9915SOL    HW234593   2.985   6.558   1.763 -0.8459  1.5559  0.7952
 9916SOL     OW34594   0.289   5.069   1.500  0.1193  1.0944  0.0624
 9916SOL    HW134595   0.354   5.018   1.549 -0.5301  0.4156  0.2321
 9916SOL    HW234596   0.233   5.003   1.459 -0.3873  1.6741 -0.1854
 9917SOL     OW34597   8.079   3.332   7.391  0.9106 -0.7099 -0.1022
 9917SOL    HW134598   8.153   3.375   7.348 -0.4487 -0.2852 -2.1968
 9917SOL    HW234599   8.022   3.404   7.418  0.6144 -1.0568  0.2054
 9918SOL     OW34600   5.385   5.562   4.475 -0.2233 -0.1661 -0.5447
 9918SOL    HW134601   5.369   5.656   4.480 -0.7549 -0.2550 -0.5184
 9918SOL    HW234602   5.326   5.524   4.540 -0.4119 -0.5595 -0.9355
 9919SOL     OW34603   0.191   7.100   5.170  0.1285 -0.0863 -0.8140
 9919SOL    HW134604   0.122   7.155   5.207  1.3351  2.0276 -1.5083
 9919SOL    HW234605   0.208   7.138   5.084  2.0279 -0.6432 -0.7268
 9920SOL     OW34606   5.494   3.902   2.279  0.5508  0.2866  0.2032
 9920SOL    HW134607   5.412   3.894   2.229  0.4336  0.5594  0.3462
 9920SOL    HW234608   5.538   3.979   2.241 -0.0469  1.1577  1.2141
 9921SOL     OW34609   2.811   7.572   9.468 -0.4225  0.0617 -0.0103
 9921SOL    HW134610   2.744   7.637   9.488 -0.9620  0.2025 -2.0250
 9921SOL    HW234611   2.805   7.560   9.373 -0.3110 -2.9028  0.2709
 9922SOL     OW34612   8.872   2.715   9.049  0.0558 -0.3868 -0.2657
 9922SOL    HW134613   8.920   2.748   8.973 -0.6160 -0.5019 -0.7511
 9922SOL    HW234614   8.780   2.718   9.022 -0.4699  2.0931  1.4874
 9923SOL     OW34615   1.618   1.526   1.291  0.8238 -0.2237  0.1479
 9923SOL    HW134616   1.531   1.553   1.261  1.4972  0.0320 -1.6967
 9923SOL    HW234617   1.634   1.579   1.369 -0.7664 -0.4694  0.6848
 9924SOL     OW34618   5.335   5.495   8.419  0.3028 -0.0112  0.2355
 9924SOL    HW134619   5.377   5.410   8.424 -0.3175 -0.3588 -0.3464
 9924SOL    HW234620   5.407   5.556   8.398  0.7331 -0.3923  0.5946
 9925SOL     OW34621   8.148   2.583   5.368  0.3159  0.6999 -0.1176
 9925SOL    HW134622   8.204   2.660   5.370 -0.2798  1.2801 -2.4756
 9925SOL    HW234623   8.203   2.512   5.399  1.6184  1.6744 -0.1324
 9926SOL     OW34624   3.337   0.293   5.452 -0.1025  0.3042  0.2611
 9926SOL    HW134625   3.426   0.326   5.442  0.1607  0.1660  1.8101
 9926SOL    HW234626   3.285   0.370   5.475 -0.2730  0.2868 -0.0585
 9927SOL     OW34627   5.704   5.507   7.364  0.3145 -0.3058  0.8020
 9927SOL    HW134628   5.661   5.425   7.341  0.0815 -0.2107  0.8978
 9927SOL    HW234629   5.796   5.493   7.343  0.0002  0.0632 -0.9663
 9928SOL     OW34630   8.127   4.113   1.443 -0.2793 -0.0625  0.1254
 9928SOL    HW134631   8.074   4.069   1.377 -1.9403  0.1180  1.2734
 9928SOL    HW234632   8.136   4.050   1.514  0.8651  0.0008  0.0580
 9929SOL     OW34633   7.131   9.104   0.409  0.3715  0.4173  0.1266
 9929SOL    HW134634   7.210   9.106   0.355  0.3154  1.5289  0.0727
 9929SOL    HW234635   7.137   9.021   0.456  2.2592  1.0673  1.1484
 9930SOL     OW34636   4.548   2.497   4.990 -0.4081 -0.0159  0.2855
 9930SOL    HW134637   4.502   2.560   4.935  0.0657  0.8365  0.8555
 9930SOL    HW234638   4.538   2.413   4.944 -1.2815  0.4181 -0.3306
 9931SOL     OW34639   7.748   0.377   6.511  0.2099  0.1308  0.2853
 9931SOL    HW134640   7.764   0.284   6.498  1.3851  0.5741 -2.2123
 9931SOL    HW234641   7.833   0.413   6.535  0.3325  0.8312 -1.0645
 9932SOL     OW34642   2.191   6.012   3.504 -0.4262 -0.2451 -0.3142
 9932SOL    HW134643   2.149   6.097   3.498 -0.5050 -0.0160  2.4498
 9932SOL    HW234644   2.120   5.949   3.489 -0.2798  0.0626 -2.8588
 9933SOL     OW34645   3.836   1.831   4.374  0.0497  0.9440  0.4768
 9933SOL    HW134646   3.818   1.829   4.468 -0.2062  1.0352  0.4287
 9933SOL    HW234647   3.826   1.740   4.346  0.8271  0.7902  0.6693
 9934SOL     OW34648   8.126   0.583   0.266  0.0775 -0.6383  0.0607
 9934SOL    HW134649   8.085   0.497   0.254  1.1307 -1.3223  1.0963
 9934SOL    HW234650   8.204   0.565   0.318  0.3858  0.9486  0.2037
 9935SOL     OW34651   0.413   8.289   3.050 -0.3477 -0.5296 -0.2747
 9935SOL    HW134652   0.425   8.282   2.955  0.4088  1.5721 -0.3955
 9935SOL    HW234653   0.319   8.304   3.061 -0.0968  2.1990 -1.0213
 9936SOL     OW34654   4.483   9.158   7.842 -0.3931  0.4910 -0.1419
 9936SOL    HW134655   4.405   9.144   7.789 -1.0047 -0.6712  1.0157
 9936SOL    HW234656   4.493   9.253   7.846 -1.6071  0.6448 -0.4737
 9937SOL     OW34657   1.383   3.719   3.720 -0.1236  0.4999  0.1251
 9937SOL    HW134658   1.402   3.811   3.736  1.5244  0.6124 -2.0187
 9937SOL    HW234659   1.315   3.719   3.653  0.9454  0.2367 -1.0064
 9938SOL     OW34660   5.813   4.718   5.244 -0.1576 -0.6975 -0.0774
 9938SOL    HW134661   5.874   4.742   5.314  1.9551  1.5918 -2.4912
 9938SOL    HW234662   5.863   4.656   5.190 -0.1699  0.5701 -1.6328
 9939SOL     OW34663   0.353   5.887   7.769 -0.7215  0.5285  0.4081
 9939SOL    HW134664   0.425   5.837   7.808  1.6936  3.6689  0.3304
 9939SOL    HW234665   0.280   5.873   7.829  1.0817  0.2917  2.7100
 9940SOL     OW34666   8.760   7.840   8.722 -0.1243  0.1277 -0.2840
 9940SOL    HW134667   8.791   7.900   8.790 -0.6029 -0.5379  0.5442
 9940SOL    HW234668   8.702   7.892   8.667  0.2494  0.6695 -0.1641
 9941SOL     OW34669   5.885   4.801   4.590  0.0222 -0.0243  0.0250
 9941SOL    HW134670   5.840   4.886   4.592  0.4708  0.2632 -1.1286
 9941SOL    HW234671   5.965   4.818   4.539  0.7383 -0.8539  0.8426
 9942SOL     OW34672   3.597   2.929   9.419  0.3435 -0.5609  0.2717
 9942SOL    HW134673   3.546   2.905   9.342  0.0811 -0.4200  0.4011
 9942SOL    HW234674   3.561   3.013   9.447  1.5177  0.1940 -0.4034
 9943SOL     OW34675   5.677   7.495   1.975  0.0245  0.3967 -0.2118
 9943SOL    HW134676   5.733   7.446   2.035  0.3221  1.3296  0.2918
 9943SOL    HW234677   5.680   7.585   2.007 -0.9128  0.6633 -0.8171
 9944SOL     OW34678   2.787   2.085   2.403 -0.0725  0.7484  0.0480
 9944SOL    HW134679   2.785   2.082   2.499 -0.6157 -0.9394  0.0166
 9944SOL    HW234680   2.848   2.016   2.378 -2.5113 -1.2484 -0.8425
 9945SOL     OW34681   1.120   1.830   6.438  0.6337 -0.1676 -0.3832
 9945SOL    HW134682   1.113   1.905   6.379 -0.0203 -0.2513 -0.4201
 9945SOL    HW234683   1.065   1.763   6.398  1.6291 -0.8644 -0.6346
 9946SOL     OW34684   2.772   5.869   2.510 -0.1928 -0.1867 -0.3713
 9946SOL    HW134685   2.815   5.877   2.425 -1.0771 -2.6906 -1.1353
 9946SOL    HW234686   2.710   5.942   2.513  0.4013  0.3884 -1.5142
 9947SOL     OW34687   0.327   2.728   5.279 -0.5215  0.6768  0.2445
 9947SOL    HW134688   0.299   2.732   5.187  0.6053  0.7990 -0.1207
 9947SOL    HW234689   0.286   2.804   5.320  0.6596  1.8746 -0.6839
 9948SOL     OW34690   5.021   0.388   0.227  0.5525 -0.2745  0.0517
 9948SOL    HW134691   4.952   0.405   0.164  0.5090  2.3165  0.6667
 9948SOL    HW234692   4.976   0.353   0.304  0.3654 -1.5319 -0.6004
 9949SOL     OW34693   7.841   9.415   0.210  0.2799 -0.2208 -0.2549
 9949SOL    HW134694   7.854   9.467   0.289  0.9159 -2.3574  1.1358
 9949SOL    HW234695   7.908   9.447   0.149  0.2235  0.9980  0.2898
 9950SOL     OW34696   0.249   6.153   9.703 -0.6303  0.1184 -0.1318
 9950SOL    HW134697   0.276   6.065   9.677 -0.6647 -0.3879  1.4213
 9950SOL    HW234698   0.153   6.148   9.709 -0.6656  0.3867 -0.4446
 9951SOL     OW34699   0.499   5.251   6.434  0.1637 -0.4960  0.1702
 9951SOL    HW134700   0.447   5.178   6.401 -0.9356 -0.3151  1.4369
 9951SOL    HW234701   0.434   5.315   6.463  1.1043  0.9231 -0.7186
 9952SOL     OW34702   3.496   7.611   1.966 -0.0962  0.4699 -0.2279
 9952SOL    HW134703   3.415   7.564   1.985  1.4014 -1.3994  2.0333
 9952SOL    HW234704   3.533   7.631   2.052  1.7150  1.5814 -1.1939
 9953SOL     OW34705   7.846   4.817   3.031 -0.2145 -0.1809 -0.2155
 9953SOL    HW134706   7.921   4.845   3.083 -0.2594  1.8270 -1.1549
 9953SOL    HW234707   7.782   4.787   3.096 -0.2650  2.2364  0.9745
 9954SOL     OW34708   9.628   7.253   7.604 -0.2832  0.1043  0.4157
 9954SOL    HW134709   9.545   7.300   7.594 -0.4708 -0.5959 -1.8939
 9954SOL    HW234710   9.602   7.165   7.632 -0.4446 -0.3795 -1.1522
 9955SOL     OW34711   4.012   4.557   6.502 -0.0894 -0.2453 -0.5518
 9955SOL    HW134712   3.927   4.601   6.504  0.0264 -0.0483  1.2860
 9955SOL    HW234713   4.050   4.585   6.419 -2.0786 -0.8949 -1.7619
 9956SOL     OW34714   7.213   9.145   8.120  0.3044  0.0394  0.5101
 9956SOL    HW134715   7.178   9.174   8.036 -1.0868 -2.3660  0.1486
 9956SOL    HW234716   7.155   9.185   8.185 -1.4836 -1.6411  0.0389
 9957SOL     OW34717   8.219   4.958   3.680  0.7929  0.1667 -0.1989
 9957SOL    HW134718   8.232   5.049   3.655  0.4781  0.0336 -0.8915
 9957SOL    HW234719   8.222   4.958   3.775  0.5026  0.9410 -0.1830
 9958SOL     OW34720   2.315   3.335   8.170 -0.3984  0.8760  0.0409
 9958SOL    HW134721   2.371   3.411   8.152  0.4764 -0.0143 -1.1984
 9958SOL    HW234722   2.323   3.321   8.264 -0.6365  2.3476  0.3083
 9959SOL     OW34723   1.810   2.325   7.925 -0.4530  0.0708  0.4769
 9959SOL    HW134724   1.743   2.282   7.978 -0.2475 -0.1174  0.5889
 9959SOL    HW234725   1.818   2.269   7.848 -0.3951  0.0704  0.4832
 9960SOL     OW34726   4.486   1.938   7.614 -0.1775  0.0627  0.4807
 9960SOL    HW134727   4.467   1.870   7.678  0.3916 -0.1405  0.4393
 9960SOL    HW234728   4.416   2.003   7.627 -0.7394 -0.5376  0.4936
 9961SOL     OW34729   6.588   5.056   5.789  0.0555  0.1034 -0.0462
 9961SOL    HW134730   6.635   5.046   5.707  1.4962  0.9796  0.6366
 9961SOL    HW234731   6.629   4.994   5.849 -0.0021  0.4968  0.4104
 9962SOL     OW34732   1.328   2.836   8.463 -0.0612  0.0870  0.1396
 9962SOL    HW134733   1.377   2.851   8.544  0.0030 -0.6910  0.2482
 9962SOL    HW234734   1.241   2.871   8.480  0.4137  1.4120 -0.0240
 9963SOL     OW34735   3.506   1.393   7.146 -0.2297  0.2541 -0.4381
 9963SOL    HW134736   3.559   1.372   7.223 -0.0962  1.9740 -0.0367
 9963SOL    HW234737   3.549   1.470   7.108 -0.5395 -0.3138 -2.0045
 9964SOL     OW34738   9.644   5.531   6.543 -0.6163 -1.2122  0.3553
 9964SOL    HW134739   9.611   5.619   6.564  0.5210 -0.2910 -1.4970
 9964SOL    HW234740   9.738   5.536   6.561 -0.5626 -2.0980  0.3532
 9965SOL     OW34741   4.048   8.880   8.347 -0.3015 -0.4278  0.2925
 9965SOL    HW134742   3.999   8.852   8.270 -0.8638 -1.2620  0.9217
 9965SOL    HW234743   3.984   8.874   8.419  0.5600 -0.9925  1.0452
 9966SOL     OW34744   0.257   5.998   0.265 -0.1770  0.5264 -0.1538
 9966SOL    HW134745   0.206   5.919   0.280 -0.2236  0.5547 -0.1636
 9966SOL    HW234746   0.192   6.067   0.256 -0.1371  0.5625 -0.1666
 9967SOL     OW34747   7.175   2.312   6.479 -0.6045  0.4502 -0.2093
 9967SOL    HW134748   7.145   2.294   6.390 -2.3299  4.1075 -0.5438
 9967SOL    HW234749   7.259   2.356   6.467 -2.1931  3.6910 -0.4076
 9968SOL     OW34750   8.018   6.413   0.615  0.3670 -0.0778  0.1491
 9968SOL    HW134751   7.994   6.473   0.545  2.4440  0.8443  0.1575
 9968SOL    HW234752   8.088   6.457   0.662 -1.2904 -0.4399  3.1850
 9969SOL     OW34753   3.868   6.855   0.693  0.0675 -0.1419 -0.7189
 9969SOL    HW134754   3.908   6.937   0.721 -0.2334 -0.2273 -0.0030
 9969SOL    HW234755   3.833   6.874   0.606  0.9183  0.1734 -0.9999
 9970SOL     OW34756   6.031   0.490   5.262  0.1657 -0.0748  1.0062
 9970SOL    HW134757   6.068   0.415   5.215  0.5719  0.3852  0.5781
 9970SOL    HW234758   6.049   0.565   5.205  0.9133  0.5380  2.0093
 9971SOL     OW34759   5.158   6.238   0.232 -0.6539 -0.2149 -0.6306
 9971SOL    HW134760   5.068   6.219   0.258  0.0735 -2.2670  0.6615
 9971SOL    HW234761   5.167   6.201   0.145 -1.1402  0.2669 -0.8862
 9972SOL     OW34762   8.459   3.386   7.018  0.0447 -0.3312  0.2578
 9972SOL    HW134763   8.495   3.297   7.018  1.9436  0.3796  0.5212
 9972SOL    HW234764   8.420   3.396   6.931  1.6254 -0.7869 -0.5540
 9973SOL     OW34765   4.676   5.007   8.841  0.8867 -0.8846 -0.1430
 9973SOL    HW134766   4.588   4.999   8.805  1.3072 -2.6542 -0.8553
 9973SOL    HW234767   4.666   5.070   8.913 -0.5595  0.4108 -1.3920
 9974SOL     OW34768   2.984   6.608   0.764 -0.0259 -0.4542 -0.4942
 9974SOL    HW134769   2.972   6.615   0.670 -0.2365 -1.1522 -0.5319
 9974SOL    HW234770   3.013   6.694   0.792  1.9876 -0.7548 -1.4788
 9975SOL     OW34771   6.483   2.859   5.636  0.5963  1.0899  0.3990
 9975SOL    HW134772   6.404   2.906   5.608 -1.3703 -1.8769  0.4843
 9975SOL    HW234773   6.491   2.787   5.573  1.6624 -0.2169  1.9473
 9976SOL     OW34774   7.562   9.244   5.598  0.2796 -0.0683  0.1525
 9976SOL    HW134775   7.586   9.254   5.690  1.9944 -0.6126 -0.2088
 9976SOL    HW234776   7.621   9.177   5.564 -0.7948 -0.3829 -1.1891
 9977SOL     OW34777   3.098   0.745   8.171 -0.3610  0.1181  0.0958
 9977SOL    HW134778   3.124   0.801   8.098  0.8224 -0.3735  0.1156
 9977SOL    HW234779   3.052   0.804   8.231 -0.0902  0.8328 -0.3859
 9978SOL     OW34780   9.205   1.742   5.821 -0.2805  0.7483 -0.1527
 9978SOL    HW134781   9.127   1.775   5.865 -1.4510 -0.7668 -1.0251
 9978SOL    HW234782   9.197   1.647   5.826  2.0874  0.5253  0.7030
 9979SOL     OW34783   2.438   8.077   1.842  0.4485 -0.1650  0.3231
 9979SOL    HW134784   2.444   8.115   1.754  0.5555 -1.0565 -0.0731
 9979SOL    HW234785   2.395   7.993   1.828 -2.3755  0.9612  1.5279
 9980SOL     OW34786   7.995   3.917   6.068  0.1954  0.3781  0.6146
 9980SOL    HW134787   7.993   3.886   5.977  0.1468  1.1063  0.3572
 9980SOL    HW234788   7.903   3.924   6.092  0.1829  1.1595  0.3679
 9981SOL     OW34789   9.634   8.063   3.883 -0.5721  0.3192 -0.5269
 9981SOL    HW134790   9.646   8.049   3.977  0.4549  2.4628 -0.2758
 9981SOL    HW234791   9.549   8.022   3.863 -1.9139  1.7291  1.8187
 9982SOL     OW34792   4.436   4.340   2.745  0.5551 -0.4277 -0.1345
 9982SOL    HW134793   4.498   4.326   2.816  1.3036 -1.2678 -0.9200
 9982SOL    HW234794   4.350   4.321   2.783  1.0788 -2.3632  0.1977
 9983SOL     OW34795   8.819   7.556   0.089 -0.5979 -0.0418 -0.2415
 9983SOL    HW134796   8.800   7.611   0.013 -0.5980  1.1651  0.6003
 9983SOL    HW234797   8.734   7.519   0.114 -0.8319  0.5993 -0.0595
 9984SOL     OW34798   0.242   6.524   1.300  0.1294 -0.2255 -0.1631
 9984SOL    HW134799   0.297   6.579   1.356  1.0725  0.3363 -1.5899
 9984SOL    HW234800   0.200   6.586   1.240 -0.5041 -0.8606 -0.3813
 9985SOL     OW34801   6.281   8.827   7.230 -0.2359  0.4065  0.5086
 9985SOL    HW134802   6.260   8.745   7.185 -0.3452  0.9678 -0.5128
 9985SOL    HW234803   6.355   8.805   7.287 -0.6410 -0.5294  0.6836
 9986SOL     OW34804   1.012   6.329   2.665  0.8399 -0.0873 -0.4525
 9986SOL    HW134805   0.947   6.272   2.706 -0.3237  2.0311  0.8330
 9986SOL    HW234806   1.082   6.269   2.638 -0.9457 -2.2754 -0.5555
 9987SOL     OW34807   2.968   8.299   2.179  0.4517 -0.0321  0.0384
 9987SOL    HW134808   2.874   8.308   2.196  0.2259 -1.1953 -0.5138
 9987SOL    HW234809   2.982   8.205   2.171  1.9734  0.0025  1.6963
 9988SOL     OW34810   7.922   5.594   9.328 -0.2850  0.0291  0.3100
 9988SOL    HW134811   7.955   5.566   9.243  1.7399  0.5278  0.8927
 9988SOL    HW234812   7.886   5.514   9.367  2.0783 -1.0448  0.4483
 9989SOL     OW34813   2.533   6.613   3.387  0.4241  0.2092 -0.5514
 9989SOL    HW134814   2.482   6.538   3.356  1.3285 -1.1384  1.0569
 9989SOL    HW234815   2.624   6.590   3.366  0.9165 -0.0979  1.6504
 9990SOL     OW34816   7.678   7.827   3.010  0.8474  0.0648 -0.2308
 9990SOL    HW134817   7.608   7.815   2.946  0.2100  3.7038 -0.4356
 9990SOL    HW234818   7.643   7.790   3.091  0.3797 -1.7625 -1.2248
 9991SOL     OW34819   4.528   3.610   1.305  0.9158 -0.3345 -0.4043
 9991SOL    HW134820   4.534   3.692   1.255  0.2727  0.9454  1.5178
 9991SOL    HW234821   4.572   3.629   1.388 -0.9724 -1.2743  0.8803
 9992SOL     OW34822   9.025   7.712   9.104 -0.1225 -0.2118  0.5576
 9992SOL    HW134823   9.031   7.682   9.014 -2.8486  1.1758 -0.1995
 9992SOL    HW234824   8.933   7.700   9.128 -0.0197  1.7737  2.2556
 9993SOL     OW34825   1.367   4.959   3.948 -0.7458  0.5159 -0.6901
 9993SOL    HW134826   1.353   4.916   4.032  0.9030 -1.1761 -1.2011
 9993SOL    HW234827   1.404   5.044   3.970 -0.0966 -0.0090  0.3102
 9994SOL     OW34828   1.991   2.531   4.449  0.2462  0.8718 -0.6862
 9994SOL    HW134829   2.057   2.560   4.512  0.9781 -0.8974 -0.5826
 9994SOL    HW234830   1.913   2.584   4.469  1.5822  2.9806 -0.7900
 9995SOL     OW34831   7.792   0.748   2.419  0.5387 -0.0215  0.0864
 9995SOL    HW134832   7.774   0.805   2.344 -1.0964 -0.1909  0.3277
 9995SOL    HW234833   7.798   0.661   2.381  1.1346  0.0606 -0.0224
 9996SOL     OW34834   5.334   6.203   3.698 -0.5742 -0.5624 -0.0502
 9996SOL    HW134835   5.402   6.195   3.765 -0.8781 -1.8422  0.1326
 9996SOL    HW234836   5.258   6.236   3.746 -0.7667 -1.3962  0.2317
 9997SOL     OW34837   8.337   3.769   5.569  1.3346 -0.9496 -0.4664
 9997SOL    HW134838   8.386   3.792   5.489  0.0140  0.1965 -1.0031
 9997SOL    HW234839   8.334   3.851   5.618 -1.5622 -0.4184 -1.3321
 9998SOL     OW34840   5.290   5.126   5.652  0.2218  0.1557  0.0350
 9998SOL    HW134841   5.341   5.160   5.726  0.5691 -0.8125  0.2500
 9998SOL    HW234842   5.206   5.102   5.690  0.4999 -0.6088  0.1811
 9999SOL     OW34843   2.230   1.040   6.438 -0.1735 -0.0262 -0.3405
 9999SOL    HW134844   2.151   1.012   6.391  0.0338  0.4819 -1.0155
 9999SOL    HW234845   2.202   1.118   6.486 -0.1873 -0.0891 -0.2460
10000SOL     OW34846   8.538   5.444   3.522  0.0094 -0.4844 -0.0431
10000SOL    HW134847   8.596   5.381   3.480  0.5667  0.5052 -0.8073
10000SOL    HW234848   8.462   5.450   3.464 -0.2098 -0.7246  0.2178
10001SOL     OW34849   7.916   2.067   5.998  0.4764  0.2488 -0.4114
10001SOL    HW134850   7.992   2.040   5.946  1.3917  1.1670  0.4184
10001SOL    HW234851   7.938   2.155   6.029 -2.0215  1.6869 -2.3025
10002SOL     OW34852   4.965   4.095   5.494 -0.3910 -0.5684 -0.2102
10002SOL    HW134853   5.010   4.011   5.493 -1.3090 -1.0672 -0.5153
10002SOL    HW234854   4.894   4.084   5.557 -0.1479  0.1848  0.2180
10003SOL     OW34855   0.439   5.678   4.372  0.2289 -0.1094 -0.0574
10003SOL    HW134856   0.365   5.617   4.371  1.5924 -1.8377 -0.8483
10003SOL    HW234857   0.445   5.707   4.463 -0.7516 -0.7950  0.2404
10004SOL     OW34858   7.504   3.040   7.798 -0.0418  0.0829  0.2183
10004SOL    HW134859   7.570   3.056   7.731 -1.1648 -0.5658 -1.0861
10004SOL    HW234860   7.533   2.959   7.841  0.1158 -0.1132 -0.2435
10005SOL     OW34861   6.016   3.772   3.183 -0.5026  0.4120 -0.4669
10005SOL    HW134862   6.066   3.847   3.151  1.1513  0.0463  1.1499
10005SOL    HW234863   6.023   3.777   3.278 -4.0870  0.6784 -0.0557
10006SOL     OW34864   6.330   3.580   3.307  0.5681  0.0284 -0.3342
10006SOL    HW134865   6.293   3.584   3.219  1.6199 -0.6553 -0.8236
10006SOL    HW234866   6.364   3.491   3.315  2.2224  0.6661  0.0350
10007SOL     OW34867   7.498   1.229   9.397 -0.3855 -0.2876 -0.1708
10007SOL    HW134868   7.440   1.258   9.327  2.2468 -1.3061 -3.0193
10007SOL    HW234869   7.573   1.289   9.393  0.2338 -0.9090  1.2141
10008SOL     OW34870   3.271   2.489   6.598 -0.8878 -0.6166  0.1605
10008SOL    HW134871   3.186   2.466   6.636 -0.3128  0.3981  2.2516
10008SOL    HW234872   3.335   2.463   6.665  0.1076  2.2491  0.4993
10009SOL     OW34873   6.028   8.767   9.292 -0.0708  0.3107 -0.0334
10009SOL    HW134874   5.935   8.779   9.269 -0.3920 -0.7743  0.6228
10009SOL    HW234875   6.041   8.825   9.368 -1.3264 -2.3418  2.4262
10010SOL     OW34876   6.580   4.121   5.530  0.1832 -0.4229 -0.0491
10010SOL    HW134877   6.616   4.064   5.598 -0.4064  0.8839  1.4229
10010SOL    HW234878   6.642   4.115   5.458  1.4398 -0.9958  1.0310
10011SOL     OW34879   8.328   0.640   2.658  0.0508 -0.1334 -0.4800
10011SOL    HW134880   8.350   0.548   2.643  0.9796 -0.0150  0.0958
10011SOL    HW234881   8.236   0.639   2.682 -0.5404 -0.6987 -2.5316
10012SOL     OW34882   8.033   9.571   1.065 -0.2369 -0.3209  0.2858
10012SOL    HW134883   8.124   9.578   1.096 -0.2689  1.3426  0.0690
10012SOL    HW234884   8.037   9.602   0.975 -0.7289 -1.9791 -0.3368
10013SOL     OW34885   5.615   2.122   6.096 -0.4252  0.1624 -0.3977
10013SOL    HW134886   5.682   2.054   6.107  0.5362  1.0323 -0.7295
10013SOL    HW234887   5.534   2.081   6.126  0.1504 -1.0983 -0.5177
10014SOL     OW34888   5.939   4.505   6.900  0.1787 -0.0683  0.5139
10014SOL    HW134889   5.914   4.458   6.979  1.3406  0.6089  1.3033
10014SOL    HW234890   5.908   4.595   6.913 -1.9504 -0.5049 -0.9492
10015SOL     OW34891   6.480   7.096   5.961 -0.0667 -0.1876 -0.3273
10015SOL    HW134892   6.482   7.099   6.057  1.5008  0.3199 -0.3480
10015SOL    HW234893   6.439   7.178   5.935 -0.5756 -0.3648 -0.1038
10016SOL     OW34894   6.557   1.905   8.632  0.0118  0.0445  0.6125
10016SOL    HW134895   6.592   1.994   8.625  0.0913 -0.0717 -0.6701
10016SOL    HW234896   6.631   1.852   8.662  0.1944  0.2582  0.5434
10017SOL     OW34897   3.796   1.352   1.274  0.4532  0.0203  0.2358
10017SOL    HW134898   3.780   1.439   1.310 -1.8314 -0.2446  0.0209
10017SOL    HW234899   3.852   1.309   1.339  1.0786  1.4198  0.6441
10018SOL     OW34900   7.578   0.432   3.171  0.0426 -0.5214 -0.0998
10018SOL    HW134901   7.640   0.462   3.104  0.2486 -0.1003  0.2689
10018SOL    HW234902   7.550   0.346   3.142 -1.1249  0.3202 -1.5916
10019SOL     OW34903   6.448   7.999   5.613 -0.4469 -0.1205  0.0939
10019SOL    HW134904   6.384   8.029   5.678 -0.0588  0.4994  0.1971
10019SOL    HW234905   6.533   8.018   5.652 -0.2026 -0.2751 -0.3528
10020SOL     OW34906   1.882   3.426   3.516 -0.0182  0.3266 -0.2642
10020SOL    HW134907   1.950   3.429   3.448  0.6919 -0.6662  0.3623
10020SOL    HW234908   1.879   3.515   3.551  2.1470  0.0558  0.7880
10021SOL     OW34909   2.055   2.943   4.381  0.1638  0.5569  0.3486
10021SOL    HW134910   2.110   2.865   4.388  0.5344  0.8294  0.4520
10021SOL    HW234911   2.063   2.970   4.290  0.4243  0.7616  0.4325
10022SOL     OW34912   5.300   3.094   0.842 -0.2812  0.1167  0.0991
10022SOL    HW134913   5.250   3.136   0.912  1.9239  0.1467  1.7843
10022SOL    HW234914   5.385   3.074   0.882  0.4392 -1.5781 -2.0588
10023SOL     OW34915   8.390   8.752   8.739  0.1598  0.1640 -0.2224
10023SOL    HW134916   8.342   8.775   8.659 -0.4111 -3.0226 -0.9436
10023SOL    HW234917   8.322   8.734   8.803  0.3396 -2.3759 -0.6454
10024SOL     OW34918   4.761   3.651   4.569  0.4190 -0.0795 -0.5512
10024SOL    HW134919   4.825   3.708   4.611  0.8060 -1.1298  0.3436
10024SOL    HW234920   4.781   3.656   4.476  0.6625  0.9551 -0.4505
10025SOL     OW34921   7.736   2.492   5.208 -0.1793 -0.0468 -0.2606
10025SOL    HW134922   7.767   2.424   5.148 -1.1779  0.5037 -1.4592
10025SOL    HW234923   7.742   2.452   5.294  0.0550 -1.3523 -0.8497
10026SOL     OW34924   1.316   6.295   6.256  0.3019  0.2472  0.1067
10026SOL    HW134925   1.400   6.283   6.301 -0.5242  1.6240  2.1857
10026SOL    HW234926   1.315   6.387   6.232 -1.0818  0.5816  1.2584
10027SOL     OW34927   4.761   0.228   8.070  0.5899  0.1025  0.1020
10027SOL    HW134928   4.783   0.309   8.024  1.4128 -0.6146 -0.8094
10027SOL    HW234929   4.688   0.252   8.127 -0.1295  1.1540 -1.2043
10028SOL     OW34930   2.839   3.721   7.034 -0.0261  0.0269 -0.2095
10028SOL    HW134931   2.928   3.740   7.006 -0.1441  0.1909 -0.4797
10028SOL    HW234932   2.842   3.632   7.069 -0.1945 -0.8170 -2.1912
10029SOL     OW34933   4.393   5.247   7.290  0.1618 -0.2534  0.4245
10029SOL    HW134934   4.302   5.227   7.269 -0.0570  2.5739 -1.8317
10029SOL    HW234935   4.404   5.216   7.380 -3.0736 -0.4927  0.8484
10030SOL     OW34936   4.330   6.563   6.746 -0.6516  0.4904 -0.3170
10030SOL    HW134937   4.391   6.544   6.675 -1.3545  0.6964 -0.9922
10030SOL    HW234938   4.382   6.609   6.811 -0.0021  0.3197 -0.7064
10031SOL     OW34939   9.038   1.604   3.347 -0.4085  0.1228 -0.1440
10031SOL    HW134940   8.955   1.582   3.306 -0.7502  1.0823  0.0071
10031SOL    HW234941   9.017   1.676   3.407  0.7079  1.1424 -0.9226
10032SOL     OW34942   8.396   2.730   0.184  0.2947  0.6825  0.1574
10032SOL    HW134943   8.371   2.640   0.162  1.2219  0.6153 -0.7001
10032SOL    HW234944   8.458   2.755   0.115 -0.0823  2.0451  0.2850
10033SOL     OW34945   3.056   1.123   1.957  0.1078 -0.0342  0.3772
10033SOL    HW134946   2.965   1.101   1.940 -0.0376  0.8061  0.0134
10033SOL    HW234947   3.052   1.201   2.012  0.5961  0.5574 -0.4051
10034SOL     OW34948   3.796   2.756   4.716 -0.4792 -0.2277  0.0698
10034SOL    HW134949   3.759   2.806   4.643  0.5177 -1.9662 -1.7354
10034SOL    HW234950   3.888   2.782   4.718 -0.5156 -0.1407  0.7804
10035SOL     OW34951   1.371   3.572   5.001 -0.0979 -0.0867 -0.1804
10035SOL    HW134952   1.455   3.604   5.034  0.7738 -1.4155 -1.0209
10035SOL    HW234953   1.371   3.598   4.909 -1.1150  0.8469  0.0644
10036SOL     OW34954   8.438   0.973   5.021  0.4054  0.2271  0.4718
10036SOL    HW134955   8.483   1.029   4.958  0.4109 -0.1862  0.0979
10036SOL    HW234956   8.353   1.015   5.036 -1.5733 -1.8538 -3.2712
10037SOL     OW34957   5.671   9.719   5.130  0.1864 -0.6426 -0.1071
10037SOL    HW134958   5.635   9.694   5.045  0.3063  0.5013 -0.5114
10037SOL    HW234959   5.666   9.640   5.183 -2.7441 -0.6054 -0.1982
10038SOL     OW34960   1.254   8.694   7.530  0.0663  0.1083 -0.3864
10038SOL    HW134961   1.182   8.635   7.508  0.8783 -1.9941  2.0438
10038SOL    HW234962   1.333   8.642   7.516  0.7562 -0.1264  3.3506
10039SOL     OW34963   5.094   5.398   8.975  0.7384  0.0073  0.1941
10039SOL    HW134964   5.129   5.416   8.888 -0.8181  3.6221  0.1405
10039SOL    HW234965   5.082   5.484   9.015 -0.1211 -1.4366  3.4024
10040SOL     OW34966   0.947   5.775   1.828 -0.7709 -0.3377  0.2513
10040SOL    HW134967   1.014   5.815   1.882 -0.4848  0.4343 -0.6480
10040SOL    HW234968   0.937   5.687   1.864  0.1395 -0.1909  0.9047
10041SOL     OW34969   2.261   9.310   0.186 -0.3049 -0.5268  0.2836
10041SOL    HW134970   2.290   9.392   0.145  0.8503 -1.2450 -0.4057
10041SOL    HW234971   2.338   9.280   0.235 -0.5143 -1.4833  0.0524
10042SOL     OW34972   2.098   2.191   7.167 -0.0642  0.7405  0.2383
10042SOL    HW134973   2.172   2.130   7.167  0.8089  1.7801  0.0474
10042SOL    HW234974   2.131   2.269   7.123 -1.2188  1.3039  0.3340
10043SOL     OW34975   9.340   9.633   9.197  0.2062  0.3025 -0.2029
10043SOL    HW134976   9.411   9.696   9.185 -1.9304  2.8715 -0.1326
10043SOL    HW234977   9.282   9.646   9.122 -1.3093 -0.1460  0.8373
10044SOL     OW34978   0.075   4.898   7.947 -0.1830  0.0979  0.3135
10044SOL    HW134979   0.100   4.982   7.907 -0.8429  0.9160  1.5292
10044SOL    HW234980   0.084   4.834   7.877 -1.0029  1.4099 -1.0434
10045SOL     OW34981   7.763   4.192   3.342  0.1873 -0.2122  0.0299
10045SOL    HW134982   7.701   4.262   3.319  0.2798 -0.1557 -0.0504
10045SOL    HW234983   7.760   4.132   3.268 -0.6976 -0.8619  0.5804
10046SOL     OW34984   5.536   5.673   8.741 -0.2617 -0.0880 -0.7632
10046SOL    HW134985   5.522   5.763   8.772  1.1433  0.4966 -1.7333
10046SOL    HW234986   5.612   5.679   8.683 -0.3382 -1.8596 -1.0993
10047SOL     OW34987   0.519   3.732   8.238  0.5445  0.4409 -0.0357
10047SOL    HW134988   0.584   3.662   8.243  1.3936  1.2758  1.2178
10047SOL    HW234989   0.463   3.718   8.314  1.5959  1.9107  1.0674
10048SOL     OW34990   8.758   8.703   5.929 -0.3795 -0.1183  0.2941
10048SOL    HW134991   8.680   8.749   5.896  0.5854  0.3211 -1.4950
10048SOL    HW234992   8.812   8.772   5.968 -0.3338 -0.2340  0.4359
10049SOL     OW34993   6.738   4.571   4.015 -0.3234  0.1853 -0.1109
10049SOL    HW134994   6.817   4.580   3.962  2.5611  0.1604  3.7588
10049SOL    HW234995   6.722   4.658   4.051  0.1214 -0.5131  1.8684
10050SOL     OW34996   0.058   6.281   8.603 -0.0054  0.0374  0.1957
10050SOL    HW134997   0.062   6.191   8.635 -0.6771  0.4542  1.5686
10050SOL    HW234998  -0.032   6.292   8.573  0.0135  0.3050  0.2336
10051SOL     OW34999   2.065   3.887   8.005  0.1702 -0.1912 -0.2093
10051SOL    HW135000   2.129   3.871   7.936 -2.3012 -1.0952 -2.4478
10051SOL    HW235001   2.075   3.979   8.027 -0.3201  0.6776 -3.2919
10052SOL     OW35002   4.400   3.267   1.707  0.2459 -0.2489 -0.1944
10052SOL    HW135003   4.442   3.352   1.699  0.8853 -0.6221 -0.9754
10052SOL    HW235004   4.306   3.285   1.705  0.3287  0.5920  1.4721
10053SOL     OW35005   9.117   1.352   7.542 -0.2817  0.4803 -0.3982
10053SOL    HW135006   9.080   1.269   7.511  1.0459  0.0687 -0.9590
10053SOL    HW235007   9.130   1.338   7.636  2.8779 -1.2362 -0.9288
10054SOL     OW35008   8.399   6.856   6.803  0.0793 -0.6091  0.1081
10054SOL    HW135009   8.407   6.890   6.714  1.0074 -0.6711  0.1575
10054SOL    HW235010   8.472   6.895   6.850 -0.0293 -1.0837  0.6832
10055SOL     OW35011   3.914   0.652   3.261 -0.0490  0.4822 -0.4358
10055SOL    HW135012   3.820   0.634   3.254 -0.0907  0.1084  0.7883
10055SOL    HW235013   3.944   0.594   3.332  0.9472  1.1866 -0.2627
10056SOL     OW35014   8.889   9.258   9.034  0.3889 -0.3904 -0.1885
10056SOL    HW135015   8.961   9.234   9.093  0.1838 -1.6710 -0.4147
10056SOL    HW235016   8.820   9.195   9.055 -0.1061 -0.1325 -1.0065
10057SOL     OW35017   4.847   6.466   5.743 -0.2615  0.1464  0.1444
10057SOL    HW135018   4.838   6.448   5.837  0.5545  1.7202  0.5611
10057SOL    HW235019   4.794   6.399   5.701 -0.7994 -0.4883  1.7394
10058SOL     OW35020   6.743   4.724   7.917 -0.3233 -0.4628 -0.0530
10058SOL    HW135021   6.824   4.717   7.968 -0.2821 -0.1128 -0.0696
10058SOL    HW235022   6.711   4.634   7.910  0.1572 -0.6227 -0.1974
10059SOL     OW35023   0.846   1.371   0.096  0.2165  0.2440 -0.3514
10059SOL    HW135024   0.819   1.297   0.042 -1.8186  0.4439  0.2787
10059SOL    HW235025   0.778   1.376   0.164 -0.0850  3.0745 -0.7596
10060SOL     OW35026   6.774   6.571   0.718  0.1145 -0.1258  0.1049
10060SOL    HW135027   6.754   6.655   0.676  1.0425  0.3213  0.5227
10060SOL    HW235028   6.712   6.565   0.790  0.6838  0.7032  0.6929
10061SOL     OW35029   7.989   8.684   1.491 -0.2700  0.1104 -0.5542
10061SOL    HW135030   8.072   8.725   1.516 -0.7360 -0.3325  1.9535
10061SOL    HW235031   8.009   8.635   1.412  1.4853  1.2126 -0.8436
10062SOL     OW35032   5.731   9.445   1.566  0.3160  0.6088 -0.5212
10062SOL    HW135033   5.760   9.360   1.599 -0.1620  1.0225  1.0618
10062SOL    HW235034   5.668   9.476   1.632  1.1668  2.5932 -0.5727
10063SOL     OW35035   6.958   1.130   5.319 -0.2777 -0.0128  0.0450
10063SOL    HW135036   6.963   1.210   5.372  0.3591 -0.3025  0.4295
10063SOL    HW235037   7.047   1.116   5.287 -0.6008  0.0080 -0.9024
10064SOL     OW35038   2.439   6.461   0.799  0.3144  0.0943 -0.4877
10064SOL    HW135039   2.492   6.450   0.878 -1.1540 -0.5181  0.4394
10064SOL    HW235040   2.472   6.394   0.739  1.2860  0.4192 -0.3372
10065SOL     OW35041   0.932   0.958   1.752  0.2187 -0.4233 -0.1142
10065SOL    HW135042   0.877   0.997   1.820 -2.0607  0.9841 -2.5615
10065SOL    HW235043   0.983   0.891   1.798 -1.7510 -0.1174  2.7990
10066SOL     OW35044   7.231   1.787   6.074  0.2508  0.2898  0.3475
10066SOL    HW135045   7.277   1.857   6.026 -0.7366  0.9830  0.3825
10066SOL    HW235046   7.184   1.833   6.144 -0.8098 -0.3413  0.0690
10067SOL     OW35047   2.558   8.988   0.393 -0.0704 -0.2706 -0.2955
10067SOL    HW135048   2.561   8.914   0.332 -0.3214  0.0549 -0.7138
10067SOL    HW235049   2.603   8.957   0.471  0.0453 -0.7808 -0.5599
10068SOL     OW35050   1.588   2.836   2.668 -0.1497 -0.5309  0.3165
10068SOL    HW135051   1.606   2.859   2.759  0.6331 -0.5614  0.1768
10068SOL    HW235052   1.500   2.798   2.669 -0.4873  0.2270  0.9261
10069SOL     OW35053   1.409   4.478   7.992  0.3846  0.0109  0.2929
10069SOL    HW135054   1.345   4.468   8.062  0.3704 -0.3746  0.2236
10069SOL    HW235055   1.402   4.398   7.941 -0.3885  0.7482 -0.8028
10070SOL     OW35056   8.453   3.764   1.036 -0.4328 -0.1625  0.8396
10070SOL    HW135057   8.458   3.832   1.103 -0.4402  0.8410 -0.1486
10070SOL    HW235058   8.487   3.806   0.957 -2.7630 -0.4847 -0.4156
10071SOL     OW35059   4.651   5.007   8.211 -0.4300  0.3235  0.1222
10071SOL    HW135060   4.556   4.994   8.213 -0.5113  0.9394  1.4211
10071SOL    HW235061   4.688   4.919   8.209 -1.0187  0.0480  0.9695
10072SOL     OW35062   3.517   5.824   5.483 -0.9454  0.1683 -0.1068
10072SOL    HW135063   3.586   5.890   5.481 -0.5727 -0.1498 -3.5790
10072SOL    HW235064   3.564   5.741   5.472 -1.7110 -0.2684 -0.1158
10073SOL     OW35065   0.992   7.306   5.177 -0.0512 -0.7856 -0.1214
10073SOL    HW135066   0.992   7.217   5.213 -3.0990 -0.6190  0.5755
10073SOL    HW235067   0.905   7.317   5.140 -0.2286  2.3139  0.9098
10074SOL     OW35068   2.719   0.779   1.273 -0.0092  0.0167  0.4590
10074SOL    HW135069   2.783   0.826   1.326 -1.5536  0.8042  1.6954
10074SOL    HW235070   2.646   0.762   1.332 -2.1339  1.5592 -1.5536
10075SOL     OW35071   7.014   5.962   4.673 -0.4203 -0.2033  0.0498
10075SOL    HW135072   7.084   5.943   4.735 -1.6571  0.9272  1.9101
10075SOL    HW235073   6.989   5.877   4.637 -0.0333 -0.9812  1.5493
10076SOL     OW35074   2.235   5.737   8.634 -0.2102  0.6222 -0.5807
10076SOL    HW135075   2.272   5.656   8.669  0.1899  0.5756 -1.1114
10076SOL    HW235076   2.185   5.773   8.707  0.2300  0.2830 -0.1035
10077SOL     OW35077   2.930   6.931   4.198 -0.1082 -0.7061 -0.8406
10077SOL    HW135078   2.923   6.843   4.235  1.5013 -0.2680  0.6619
10077SOL    HW235079   3.013   6.931   4.150  1.9621  0.9427  2.3552
10078SOL     OW35080   1.065   2.967   2.278  0.4322 -0.2643  0.0852
10078SOL    HW135081   1.122   2.901   2.317  0.5645  0.6119  1.4628
10078SOL    HW235082   0.984   2.921   2.260  1.2077 -1.2730 -0.9014
10079SOL     OW35083   5.111   7.227   5.080 -0.1733 -0.5180 -0.1706
10079SOL    HW135084   5.069   7.313   5.084 -0.5819 -0.6556 -1.1038
10079SOL    HW235085   5.161   7.229   4.998  1.2939 -0.5318  0.6894
10080SOL     OW35086   7.086   8.898   0.613  0.0949 -0.2286 -0.6542
10080SOL    HW135087   7.053   8.910   0.702 -1.1436  1.1187 -1.2540
10080SOL    HW235088   7.079   8.804   0.598 -3.8285 -0.1175 -0.7513
10081SOL     OW35089   9.035   8.658   6.296 -0.5612  0.1832  0.5814
10081SOL    HW135090   9.047   8.722   6.226 -3.8807 -0.0431 -0.3707
10081SOL    HW235091   9.123   8.640   6.328  0.8425  2.1703 -1.8456
10082SOL     OW35092   9.550   9.624   6.993  0.4493 -0.1768  0.1501
10082SOL    HW135093   9.507   9.704   7.023 -0.5170 -0.9236  0.8137
10082SOL    HW235094   9.571   9.576   7.073 -1.1558 -1.6762 -0.2604
10083SOL     OW35095   6.493   6.433   1.438 -0.1327  0.1564 -0.5733
10083SOL    HW135096   6.512   6.354   1.488 -1.4572 -0.8505 -1.5794
10083SOL    HW235097   6.574   6.485   1.443  0.1707 -0.4448  1.5464
10084SOL     OW35098   4.368   2.390   1.091 -0.0523  0.2406  0.5107
10084SOL    HW135099   4.371   2.484   1.106 -3.3811  0.3707  1.1181
10084SOL    HW235100   4.316   2.355   1.163  0.3708 -1.9707 -0.1602
10085SOL     OW35101   3.811   8.118   9.569  0.8829  0.5073  0.2284
10085SOL    HW135102   3.805   8.201   9.521 -0.7773  0.8499  0.9868
10085SOL    HW235103   3.895   8.123   9.615  0.5062  2.0834  0.7983
10086SOL     OW35104   8.802   5.150   3.501  0.2276  0.5587 -0.1942
10086SOL    HW135105   8.875   5.212   3.494  0.5291  0.0710 -1.6124
10086SOL    HW235106   8.844   5.065   3.511 -0.1299  0.2610 -1.1190
10087SOL     OW35107   3.824   1.345   6.959  0.1068  0.0181 -0.2211
10087SOL    HW135108   3.738   1.326   6.921 -0.1682  0.3291  0.2302
10087SOL    HW235109   3.805   1.403   7.033  0.6440 -0.3961  0.2567
10088SOL     OW35110   0.051   9.185   4.544 -0.0421  0.1721 -0.1294
10088SOL    HW135111   0.146   9.196   4.533 -0.0479 -0.7712 -1.3640
10088SOL    HW235112   0.027   9.249   4.610  1.5081  0.2444  0.4095
10089SOL     OW35113   8.469   2.257   5.696  0.5059  0.2445  0.1870
10089SOL    HW135114   8.502   2.216   5.616  1.0276  1.6720 -0.3635
10089SOL    HW235115   8.522   2.220   5.766  1.2514  0.2852 -0.3481
10090SOL     OW35116   2.135   4.891   0.671 -0.3870 -0.4460  0.0268
10090SOL    HW135117   2.093   4.937   0.598  1.7112  0.8498 -0.4523
10090SOL    HW235118   2.184   4.820   0.630 -1.7623 -1.7418  0.5448
10091SOL     OW35119   2.000   8.769   6.297 -0.6827  0.2382 -0.0401
10091SOL    HW135120   1.910   8.771   6.265 -0.1430  1.5106 -1.5976
10091SOL    HW235121   2.053   8.792   6.221  0.8560  1.0352  1.2236
10092SOL     OW35122   6.860   6.962   1.511 -0.3067 -0.3361  0.3863
10092SOL    HW135123   6.885   7.005   1.593  0.1840 -0.9403  0.5561
10092SOL    HW235124   6.934   6.976   1.453  0.1991 -1.6218  0.6984
10093SOL     OW35125   2.639   2.176   1.140 -0.2530  0.2250  0.0723
10093SOL    HW135126   2.616   2.086   1.164 -2.5699  1.3773  2.7571
10093SOL    HW235127   2.554   2.219   1.126  0.8208  1.8675 -1.8837
10094SOL     OW35128   2.642   5.862   7.647  0.1602 -0.0226  0.0236
10094SOL    HW135129   2.566   5.913   7.619  0.8563  1.4218  0.6531
10094SOL    HW235130   2.626   5.844   7.739 -0.8108 -2.3646 -0.5282
10095SOL     OW35131   4.746   7.433   0.110  0.0576 -0.7611 -0.0093
10095SOL    HW135132   4.826   7.471   0.075 -0.3551 -0.4907 -0.6888
10095SOL    HW235133   4.774   7.381   0.186  0.7457  0.1047  0.3404
10096SOL     OW35134   4.762   1.225   4.560  0.2588  0.4520 -0.3096
10096SOL    HW135135   4.679   1.236   4.607  0.4133  0.8442 -0.1268
10096SOL    HW235136   4.791   1.136   4.582 -1.1762 -0.5318 -2.0745
10097SOL     OW35137   2.318   8.467   0.874  0.2316  0.3581 -0.1454
10097SOL    HW135138   2.388   8.472   0.809  0.0435 -0.0996 -0.3908
10097SOL    HW235139   2.353   8.511   0.951  1.6362 -1.7331  0.4971
10098SOL     OW35140   5.846   8.592   9.554 -0.1889 -0.2011 -0.2912
10098SOL    HW135141   5.859   8.509   9.509 -0.3474  0.1559 -0.9953
10098SOL    HW235142   5.934   8.618   9.582 -0.0304 -0.2093 -0.7732
10099SOL     OW35143   0.421   5.642   5.156 -0.4402 -0.1107 -0.0680
10099SOL    HW135144   0.369   5.646   5.236  0.9228  1.1763  0.7944
10099SOL    HW235145   0.358   5.658   5.086 -1.3553  0.4995  0.8664
10100SOL     OW35146   5.304   5.192   4.398 -0.1363  0.1223  0.3019
10100SOL    HW135147   5.290   5.139   4.320  0.0840 -0.3737  0.5917
10100SOL    HW235148   5.225   5.247   4.405  0.2686  0.8635 -0.7961
10101SOL     OW35149   4.784   3.759   4.228 -0.5824  0.2260 -0.0738
10101SOL    HW135150   4.774   3.845   4.269  0.6225  1.2105 -1.6970
10101SOL    HW235151   4.849   3.773   4.159  0.2294 -2.1797  0.1058
10102SOL     OW35152   7.153   0.336   1.874  0.1668  0.7351  0.1645
10102SOL    HW135153   7.159   0.404   1.940 -1.5421  1.2596 -0.1737
10102SOL    HW235154   7.116   0.261   1.919  0.5338  0.5451  0.1593
10103SOL     OW35155   1.364   1.573   1.181 -0.5367  0.1929 -0.5272
10103SOL    HW135156   1.315   1.499   1.144  1.1340 -1.0848 -0.2614
10103SOL    HW235157   1.371   1.635   1.108 -0.8345 -0.4846 -1.1469
10104SOL     OW35158   0.550   3.122   4.372 -0.1575 -0.9087 -0.3636
10104SOL    HW135159   0.589   3.128   4.459 -0.8046  1.2334 -0.1784
10104SOL    HW235160   0.625   3.117   4.312  0.2934 -1.6779  0.2351
10105SOL     OW35161   3.838   3.907   8.438 -0.2641  0.8119 -0.0770
10105SOL    HW135162   3.754   3.952   8.441 -0.8002 -0.1582  0.1699
10105SOL    HW235163   3.816   3.815   8.455  0.8528  0.5495  0.0306
10106SOL     OW35164   7.832   1.528   8.617 -0.0933 -0.4547  0.3576
10106SOL    HW135165   7.912   1.498   8.574 -0.8270 -1.7779 -0.1404
10106SOL    HW235166   7.820   1.469   8.691 -1.0842 -0.8742 -0.1109
10107SOL     OW35167   3.415   5.710   8.230 -0.0703  0.8317  0.2413
10107SOL    HW135168   3.454   5.622   8.238 -3.8365 -0.9064  1.9201
10107SOL    HW235169   3.370   5.710   8.146 -1.3852  0.4828  0.9160
10108SOL     OW35170   1.313   7.217   8.304  0.0706  0.2210 -0.0658
10108SOL    HW135171   1.309   7.280   8.376  1.1229  0.8666 -0.5528
10108SOL    HW235172   1.253   7.252   8.238  2.5565  2.2289 -1.4505
10109SOL     OW35173   2.350   0.121   2.262 -0.3447  0.3311  0.1583
10109SOL    HW135174   2.273   0.172   2.288 -2.9197 -2.1121 -1.9953
10109SOL    HW235175   2.333   0.033   2.298 -0.3765 -1.1470 -3.0705
10110SOL     OW35176   0.183   2.618   1.552  0.6847  0.5687  0.3279
10110SOL    HW135177   0.141   2.538   1.584  2.9423 -0.6361  0.4954
10110SOL    HW235178   0.258   2.630   1.609  1.2585  1.9456 -0.6628
10111SOL     OW35179   1.886   3.748   0.671 -0.0119 -0.9469 -0.3045
10111SOL    HW135180   1.833   3.702   0.736 -2.1603  0.4013 -0.9505
10111SOL    HW235181   1.876   3.697   0.591 -3.1102  0.8309 -1.2515
10112SOL     OW35182   3.994   6.175   7.843 -0.1243  0.0536  0.2362
10112SOL    HW135183   4.038   6.195   7.926  1.4785 -0.0402 -0.5417
10112SOL    HW235184   4.062   6.133   7.790 -1.5417 -1.3116 -0.5899
10113SOL     OW35185   0.194   6.146   5.875  0.3175  0.0782  0.4342
10113SOL    HW135186   0.124   6.212   5.880 -0.8051 -1.0540  0.1256
10113SOL    HW235187   0.227   6.154   5.786  1.6678  1.6513  1.0241
10114SOL     OW35188   3.970   3.846   5.337 -0.0287 -0.0226  0.2257
10114SOL    HW135189   3.913   3.835   5.262 -0.8567  1.6093  0.5687
10114SOL    HW235190   4.057   3.861   5.299  0.3233 -2.8099 -0.2909
10115SOL     OW35191   2.682   6.417   4.273  0.1985  0.4550 -0.2278
10115SOL    HW135192   2.733   6.336   4.282 -1.4670 -0.6410 -0.2914
10115SOL    HW235193   2.626   6.402   4.198 -0.5107  1.4717  0.0767
10116SOL     OW35194   4.674   6.605   0.523 -0.4641 -0.2356 -0.4794
10116SOL    HW135195   4.736   6.578   0.456 -0.3189  1.4119 -1.0589
10116SOL    HW235196   4.593   6.623   0.476 -0.3330  1.0372 -0.2548
10117SOL     OW35197   2.439   9.044   1.562 -0.6236 -0.1436 -0.2582
10117SOL    HW135198   2.469   8.954   1.556  2.2924  0.5880  1.2436
10117SOL    HW235199   2.420   9.069   1.472 -0.7162 -1.9954 -0.7919
10118SOL     OW35200   2.610   1.597   6.904  0.2612 -0.7054  0.1178
10118SOL    HW135201   2.579   1.668   6.848 -1.5186 -0.5610  1.1953
10118SOL    HW235202   2.535   1.538   6.912  1.4230 -2.2775 -0.0276
10119SOL     OW35203   1.706   3.959   6.171 -0.2269 -0.5165 -0.3307
10119SOL    HW135204   1.682   3.868   6.151  1.4887 -0.7477 -1.5728
10119SOL    HW235205   1.691   3.967   6.265 -1.1944 -1.8311 -0.3446
10120SOL     OW35206   6.189   2.230   7.694  0.6803 -0.1953 -0.3029
10120SOL    HW135207   6.193   2.320   7.661  0.8201 -0.2225 -0.3635
10120SOL    HW235208   6.143   2.237   7.777  0.6283 -0.0765 -0.3407
10121SOL     OW35209   0.774   9.342   4.506  0.3261  0.2434 -0.2406
10121SOL    HW135210   0.762   9.259   4.460  0.1260  0.0599  0.1458
10121SOL    HW235211   0.732   9.407   4.450 -2.8814 -0.3937  1.2099
10122SOL     OW35212   6.854   5.295   0.194 -0.6576 -0.0621  0.3145
10122SOL    HW135213   6.916   5.293   0.120  0.0244  2.5982  0.7229
10122SOL    HW235214   6.894   5.240   0.260 -0.2800 -0.8532 -0.5450
10123SOL     OW35215   7.172   1.093   9.599  0.7971 -0.1631  0.0642
10123SOL    HW135216   7.124   1.020   9.636 -0.7955  2.0609  2.7575
10123SOL    HW235217   7.115   1.126   9.529  0.0737  0.2940  0.8571
10124SOL     OW35218   3.597   3.743   4.290  0.5484  0.0405 -0.9105
10124SOL    HW135219   3.544   3.696   4.354  0.6067 -0.3280 -1.1278
10124SOL    HW235220   3.543   3.745   4.211 -0.6264  2.7573 -0.1509
10125SOL     OW35221   0.870   4.396   4.362  0.3337  0.2007  0.6199
10125SOL    HW135222   0.779   4.423   4.348  0.6443  0.4679 -1.1092
10125SOL    HW235223   0.915   4.422   4.281  2.2239  1.2180  1.9305
10126SOL     OW35224   0.658   0.599   2.523  0.3368  0.5035 -0.1881
10126SOL    HW135225   0.724   0.655   2.482 -1.2962  3.4690  0.8958
10126SOL    HW235226   0.592   0.585   2.454 -0.1166  1.5174  0.0134
10127SOL     OW35227   3.910   4.420   5.874 -0.4304  0.0055 -0.3824
10127SOL    HW135228   3.830   4.392   5.919 -0.3066 -0.4016 -0.4157
10127SOL    HW235229   3.962   4.461   5.943 -0.5535  0.0326 -0.3044
10128SOL     OW35230   4.210   7.858   3.295 -0.2657  0.5414  0.4277
10128SOL    HW135231   4.222   7.856   3.390 -1.8293  1.8803  0.6978
10128SOL    HW235232   4.121   7.825   3.280 -0.3532  1.1410 -0.4901
10129SOL     OW35233   7.318   0.198   8.760  0.5362 -0.1876  0.5794
10129SOL    HW135234   7.385   0.148   8.713 -1.3020 -0.7858 -1.5960
10129SOL    HW235235   7.345   0.289   8.750  0.6271 -0.3533 -1.0601
10130SOL     OW35236   2.535   5.951   2.746  0.3036 -0.4900  0.1961
10130SOL    HW135237   2.581   6.013   2.689  0.4446  0.6811  1.5199
10130SOL    HW235238   2.467   6.004   2.789 -1.7572 -1.9731 -1.0206
10131SOL     OW35239   5.341   5.090   7.068 -0.1363 -0.3789  0.0793
10131SOL    HW135240   5.293   5.038   7.132 -0.4848 -0.7377 -0.4686
10131SOL    HW235241   5.274   5.142   7.024  0.1436  0.1245  0.2394
10132SOL     OW35242   0.765   9.074   1.190 -0.4916 -0.7770  0.4192
10132SOL    HW135243   0.721   9.011   1.247  1.1884 -1.5727  0.8886
10132SOL    HW235244   0.850   9.090   1.232 -0.2167  0.5363 -0.5675
10133SOL     OW35245   0.670   7.863   0.742 -0.2015 -0.2204 -0.2809
10133SOL    HW135246   0.649   7.945   0.787 -2.5932 -0.2050 -1.2878
10133SOL    HW235247   0.731   7.818   0.801  2.1853  2.7452 -0.2514
10134SOL     OW35248   4.053   7.844   1.274  0.1921 -0.2744  0.3092
10134SOL    HW135249   4.131   7.865   1.223 -0.7371  2.5636 -0.1373
10134SOL    HW235250   3.983   7.836   1.209 -0.2180 -1.0651  0.8307
10135SOL     OW35251   5.774   1.053   1.527  0.1928 -0.2960  0.0802
10135SOL    HW135252   5.737   0.967   1.548 -1.2354  0.7363  2.1564
10135SOL    HW235253   5.824   1.077   1.606 -1.3726  1.7307  0.5286
10136SOL     OW35254   4.008   7.283   3.707 -0.4944  0.3315  0.6211
10136SOL    HW135255   3.939   7.322   3.761  0.2508  1.5138  0.7575
10136SOL    HW235256   4.089   7.305   3.753  0.1388  1.0979 -0.8176
10137SOL     OW35257   0.893   6.266   9.725  0.6610  0.5125 -0.0718
10137SOL    HW135258   0.971   6.211   9.720 -2.7288 -4.9860 -0.6989
10137SOL    HW235259   0.889   6.310   9.641  1.0286 -2.6300 -1.8995
10138SOL     OW35260   2.508   9.726   7.199 -0.8500  0.3556 -0.2336
10138SOL    HW135261   2.533   9.750   7.110  0.4641  1.2070  0.3360
10138SOL    HW235262   2.426   9.679   7.188  0.3106 -1.4035 -2.0882
10139SOL     OW35263   4.003   0.383   0.536  0.9284  0.2490  0.1670
10139SOL    HW135264   3.953   0.440   0.479  0.7435 -0.6879 -0.6240
10139SOL    HW235265   4.041   0.318   0.478  0.5163 -0.8878  1.1407
10140SOL     OW35266   7.361   1.814   8.601 -0.1431 -0.4673  0.6454
10140SOL    HW135267   7.326   1.742   8.550  0.7350  0.2974 -1.1427
10140SOL    HW235268   7.435   1.776   8.649 -0.0394 -0.8809  0.1594
10141SOL     OW35269   1.459   1.786   3.941  0.3092  0.0974 -1.0062
10141SOL    HW135270   1.396   1.722   3.909  0.2975  0.0913 -0.9713
10141SOL    HW235271   1.540   1.737   3.953 -0.6035 -0.8363  2.6039
10142SOL     OW35272   7.778   1.761   7.659 -0.5692  0.2720 -0.1996
10142SOL    HW135273   7.771   1.793   7.748 -0.2306  1.2110 -0.5028
10142SOL    HW235274   7.829   1.680   7.667  0.3225  0.8714  0.3450
10143SOL     OW35275   5.339   4.173   7.677  0.6419  0.5398 -0.5499
10143SOL    HW135276   5.401   4.154   7.607  1.1435 -1.1554  0.2933
10143SOL    HW235277   5.335   4.092   7.728 -1.9796  0.7131 -0.3344
10144SOL     OW35278   9.177   4.405   2.627  0.6900  0.5006 -0.1644
10144SOL    HW135279   9.217   4.348   2.693 -1.9247 -1.2382  0.0698
10144SOL    HW235280   9.112   4.457   2.675  1.5407  2.1984 -0.7503
10145SOL     OW35281   3.032   7.138   6.297  0.1646 -0.1061  0.1330
10145SOL    HW135282   2.965   7.124   6.230  0.2770  1.7440 -0.4341
10145SOL    HW235283   2.984   7.172   6.372  0.1554 -1.3501  0.7171
10146SOL     OW35284   2.069   6.672   8.180  0.0166  0.2711 -0.0093
10146SOL    HW135285   2.120   6.752   8.191  0.6396  0.1279 -1.5068
10146SOL    HW235286   2.026   6.683   8.095  2.6130 -2.2243 -1.8718
10147SOL     OW35287   9.324   8.910   4.600 -0.3749 -0.4902  0.2941
10147SOL    HW135288   9.390   8.903   4.531 -0.7492  0.5291 -0.1890
10147SOL    HW235289   9.343   8.838   4.659  0.7250 -0.6340 -0.2204
10148SOL     OW35290   4.553   3.085   4.146  0.3617  0.8114 -0.3384
10148SOL    HW135291   4.644   3.064   4.128 -0.2079 -0.9767 -1.3773
10148SOL    HW235292   4.557   3.164   4.200  2.5789 -0.0955  0.9846
10149SOL     OW35293   9.446   3.737   3.354 -0.7247 -0.7219 -0.5498
10149SOL    HW135294   9.474   3.762   3.443 -0.0663  0.1356 -0.9786
10149SOL    HW235295   9.445   3.642   3.355  0.8137 -0.7594 -0.0604
10150SOL     OW35296   2.029   4.014   1.553 -0.0901 -0.4653  0.5451
10150SOL    HW135297   1.979   4.077   1.501  0.3002 -2.0463 -1.8644
10150SOL    HW235298   2.120   4.032   1.531  0.3347  0.5728  2.8184
10151SOL     OW35299   2.707   2.657   0.417 -0.1948  0.3743  0.1800
10151SOL    HW135300   2.712   2.700   0.503 -1.0995  0.7100  0.0821
10151SOL    HW235301   2.613   2.640   0.405  0.0653 -0.9388 -0.1311
10152SOL     OW35302   4.675   8.725   5.361  0.3333 -0.1102  0.0282
10152SOL    HW135303   4.741   8.794   5.362 -0.7326  0.9327  0.4959
10152SOL    HW235304   4.599   8.764   5.403 -0.0808 -1.8136  0.9584
10153SOL     OW35305   8.861   0.939   7.291 -0.6375 -0.4971 -0.0449
10153SOL    HW135306   8.910   0.942   7.373 -2.3021  1.0446  0.9715
10153SOL    HW235307   8.879   0.852   7.255  1.0642 -0.7722  1.3389
10154SOL     OW35308   2.694   1.201   8.465  0.2928 -0.2796 -0.5434
10154SOL    HW135309   2.613   1.182   8.512  0.5570  2.0622  1.0089
10154SOL    HW235310   2.730   1.115   8.444 -0.6732 -1.4556  2.1699
10155SOL     OW35311   9.068   7.681   7.239  0.0227  0.5526  0.1609
10155SOL    HW135312   9.059   7.595   7.280 -1.3333  0.3409 -0.5197
10155SOL    HW235313   9.146   7.672   7.183  0.2756 -0.0232  0.5932
10156SOL     OW35314   7.528   3.144   5.258 -0.4391 -0.3548  0.0818
10156SOL    HW135315   7.548   3.221   5.312 -3.0194  0.1980  0.3944
10156SOL    HW235316   7.613   3.112   5.230  0.8210  1.5179  1.4744
10157SOL     OW35317   0.184   7.258   9.624  0.3097 -0.0121 -0.0801
10157SOL    HW135318   0.135   7.190   9.578 -0.7551 -0.4339  1.6091
10157SOL    HW235319   0.130   7.337   9.615 -0.8856 -0.5357  2.0000
10158SOL     OW35320   4.879   7.692   9.502  0.3663 -0.1476 -0.2559
10158SOL    HW135321   4.845   7.613   9.460 -2.1611  0.5677  0.2844
10158SOL    HW235322   4.881   7.758   9.433 -0.6889  0.1569 -0.0196
10159SOL     OW35323   0.355   5.618   3.762  0.0320 -0.2039  0.1287
10159SOL    HW135324   0.304   5.646   3.687 -0.3945  0.9277  0.8160
10159SOL    HW235325   0.371   5.698   3.812 -0.8107 -1.0849  1.9192
10160SOL     OW35326   6.325   4.546   3.441 -0.6995  0.1472 -0.3266
10160SOL    HW135327   6.395   4.494   3.481  0.5138  0.7322 -1.5761
10160SOL    HW235328   6.311   4.618   3.502 -1.7701 -1.1448  0.9846
10161SOL     OW35329   7.233   4.542   2.025 -0.2766  0.2494 -0.2323
10161SOL    HW135330   7.165   4.497   1.974 -0.2649 -0.3350  0.2432
10161SOL    HW235331   7.213   4.518   2.116  0.9280 -0.4474 -0.1292
10162SOL     OW35332   0.159   6.234   1.014 -0.1342  0.0054  0.2907
10162SOL    HW135333   0.226   6.288   1.055 -0.2376 -0.2513  0.8140
10162SOL    HW235334   0.187   6.224   0.924 -0.2204  1.1009  0.1354
10163SOL     OW35335   6.546   2.359   8.704  0.1146 -0.0604  0.7543
10163SOL    HW135336   6.487   2.418   8.751  1.6943  0.6566  1.9085
10163SOL    HW235337   6.572   2.408   8.626  0.1270  0.0927  0.8549
10164SOL     OW35338   8.612   5.815   6.833  0.0075 -0.2631 -0.1944
10164SOL    HW135339   8.609   5.751   6.762 -2.0205  0.3170 -0.6889
10164SOL    HW235340   8.670   5.884   6.802  0.2350 -0.6718 -0.6894
10165SOL     OW35341   5.324   7.531   0.089 -0.0432 -0.0463 -0.3165
10165SOL    HW135342   5.246   7.574   0.123 -0.4080 -1.0587  0.1815
10165SOL    HW235343   5.310   7.526  -0.006 -0.4101  0.1135 -0.2704
10166SOL     OW35344   5.038   3.646   4.903 -0.4025  0.4943 -0.0697
10166SOL    HW135345   5.048   3.556   4.871  3.2076 -0.1384  2.3012
10166SOL    HW235346   5.008   3.695   4.826 -0.6236 -2.3588 -1.9628
10167SOL     OW35347   2.059   2.609   7.907  0.1378 -0.0974  0.0297
10167SOL    HW135348   2.059   2.561   7.824  0.4966 -1.6874  0.9128
10167SOL    HW235349   2.130   2.672   7.898 -0.0068 -0.0505 -0.9738
10168SOL     OW35350   5.213   2.875   3.605 -0.1073 -0.4447 -0.3265
10168SOL    HW135351   5.120   2.888   3.586 -0.0580  1.1051  0.3387
10168SOL    HW235352   5.214   2.820   3.683 -0.5728  1.0797  0.8255
10169SOL     OW35353   9.282   8.372   0.316 -0.0895 -0.8880 -0.0620
10169SOL    HW135354   9.286   8.334   0.404 -0.9266  1.1248  0.9149
10169SOL    HW235355   9.370   8.404   0.300 -0.7352  2.2412  1.8068
10170SOL     OW35356   2.321   0.480   7.330 -0.4780  0.1791 -0.6621
10170SOL    HW135357   2.368   0.514   7.253 -1.4310  0.2976 -1.2112
10170SOL    HW235358   2.355   0.392   7.341  1.9123  1.1726  0.6718
10171SOL     OW35359   0.909   1.763   2.474 -0.3035  0.2609  0.6127
10171SOL    HW135360   0.987   1.718   2.507 -0.0484  1.2735  1.4369
10171SOL    HW235361   0.934   1.855   2.469 -0.4139  0.1998 -2.2640
10172SOL     OW35362   3.011   6.759   6.961 -0.3569  0.7703 -0.0238
10172SOL    HW135363   2.966   6.734   6.881 -0.4481 -0.3079  0.3469
10172SOL    HW235364   2.942   6.794   7.018 -0.6705 -0.3895  0.3448
10173SOL     OW35365   0.399   3.191   5.819 -0.1141 -0.1997  0.2541
10173SOL    HW135366   0.465   3.251   5.785 -0.9242 -0.1197 -1.2529
10173SOL    HW235367   0.432   3.166   5.905  1.8604 -0.1455 -0.4404
10174SOL     OW35368   3.372   6.829   4.012 -0.5402  0.0769 -0.2385
10174SOL    HW135369   3.281   6.843   3.987 -0.2251  0.4632 -1.2303
10174SOL    HW235370   3.406   6.917   4.027 -0.3531 -0.0733  0.2342
10175SOL     OW35371   2.476   0.239   5.943  0.6237  0.8797  0.3532
10175SOL    HW135372   2.505   0.240   5.852 -0.2094  1.7356  0.0816
10175SOL    HW235373   2.386   0.208   5.940  0.8121  0.2560  0.9631
10176SOL     OW35374   8.959   1.949   8.230  0.3672  1.3498 -0.1525
10176SOL    HW135375   8.890   1.884   8.215  2.9751 -1.5415 -0.5642
10176SOL    HW235376   8.977   1.985   8.143  1.8861 -0.7478 -0.7902
10177SOL     OW35377   7.171   0.255   0.598  0.0609 -0.4499  0.3426
10177SOL    HW135378   7.254   0.208   0.582  0.6931  0.6944  0.1344
10177SOL    HW235379   7.151   0.297   0.514 -0.1872  0.1100  0.6771
10178SOL     OW35380   2.368   6.833   7.381 -0.0821  0.5678  0.3257
10178SOL    HW135381   2.385   6.781   7.302  1.0888  1.4987 -0.0710
10178SOL    HW235382   2.442   6.815   7.438  0.6786  2.2403 -0.0779
10179SOL     OW35383   7.103   6.493   5.664  0.0823  0.0557 -0.2037
10179SOL    HW135384   7.187   6.511   5.621 -0.0911 -0.4244 -0.7487
10179SOL    HW235385   7.127   6.456   5.749  0.4309  1.2047  0.2248
10180SOL     OW35386   3.530   1.066   8.665  0.8270 -0.7715  0.1773
10180SOL    HW135387   3.482   1.101   8.590  2.2979  0.5182 -0.2035
10180SOL    HW235388   3.521   1.132   8.733  1.2972 -0.9502  0.4140
10181SOL     OW35389   0.344   5.416   8.876  0.1979  0.6778 -0.1977
10181SOL    HW135390   0.270   5.412   8.937 -0.3122  0.4573 -0.8098
10181SOL    HW235391   0.312   5.471   8.804  0.8828  1.1509 -0.1432
10182SOL     OW35392   4.043   6.332   1.538  0.2416 -0.4583 -0.6271
10182SOL    HW135393   3.984   6.388   1.589 -0.3270  1.0368 -2.7862
10182SOL    HW235394   3.985   6.267   1.498  0.5615 -1.1033 -0.0513
10183SOL     OW35395   1.057   9.506   1.805 -0.7495  0.1535 -0.2295
10183SOL    HW135396   1.107   9.561   1.865 -0.7178 -0.8188  0.6761
10183SOL    HW235397   0.983   9.560   1.779 -0.3203  0.8912  0.0313
10184SOL     OW35398   2.492   1.666   9.583 -0.3790  0.4685 -0.3350
10184SOL    HW135399   2.456   1.658   9.671 -3.0383 -1.0624 -1.4747
10184SOL    HW235400   2.579   1.625   9.589 -1.1351 -1.0242  1.2329
10185SOL     OW35401   0.976   3.590   7.750  0.3798 -0.0627 -0.0710
10185SOL    HW135402   0.938   3.619   7.667  1.8323 -0.8083 -1.0426
10185SOL    HW235403   0.921   3.630   7.817 -0.9587  0.3928 -1.3887
10186SOL     OW35404   7.755   8.900   1.432  0.1704  0.1715 -1.0989
10186SOL    HW135405   7.747   8.813   1.472  0.8119  0.2731 -0.7392
10186SOL    HW235406   7.690   8.953   1.478 -0.2762 -0.1269 -1.3705
10187SOL     OW35407   5.101   5.440   6.978 -0.4124  0.1506 -0.0362
10187SOL    HW135408   5.063   5.465   6.894  0.1833 -0.2651 -0.4361
10187SOL    HW235409   5.179   5.390   6.955  0.2689  0.8167  0.7627
10188SOL     OW35410   1.887   3.287   8.334  0.3354  0.3087 -0.1461
10188SOL    HW135411   1.923   3.207   8.372  0.4681  0.0459 -0.8239
10188SOL    HW235412   1.793   3.270   8.328  0.1327  0.8171  1.1859
10189SOL     OW35413   1.643   0.174   7.921  0.5106 -0.2067  0.7026
10189SOL    HW135414   1.691   0.244   7.876  0.9552  0.1612  1.7371
10189SOL    HW235415   1.659   0.096   7.868  0.0143  0.4552 -0.4646
10190SOL     OW35416   1.080   7.741   8.872  0.2902 -0.4925 -0.7429
10190SOL    HW135417   1.124   7.659   8.894 -1.7360 -1.2611  0.7673
10190SOL    HW235418   0.995   7.736   8.917  0.2098  2.5801 -0.3189
10191SOL     OW35419   7.903   8.075   2.810  0.2674 -0.4986 -0.0257
10191SOL    HW135420   7.843   8.144   2.779  1.0800 -0.2180 -1.0424
10191SOL    HW235421   7.989   8.117   2.811  0.8843 -1.6531 -1.3069
10192SOL     OW35422   1.088   8.964   9.133 -0.3520 -0.6959  0.3468
10192SOL    HW135423   1.111   8.959   9.226 -1.0640 -1.7752  0.4850
10192SOL    HW235424   1.047   8.880   9.114  1.6652 -1.3537 -1.4757
10193SOL     OW35425   2.079   9.516   8.907 -0.5976 -0.3107 -0.2007
10193SOL    HW135426   2.043   9.483   8.989 -2.4375 -0.6860 -1.1158
10193SOL    HW235427   2.069   9.611   8.913 -2.8856 -0.4543 -0.8863
10194SOL     OW35428   3.230   5.012   3.809  0.5102  0.3706 -0.4765
10194SOL    HW135429   3.200   5.101   3.823 -1.1127  0.0634 -1.6394
10194SOL    HW235430   3.213   4.967   3.891 -2.4517  0.2027 -1.0794
10195SOL     OW35431   1.474   1.529   9.121  0.2937 -0.3000 -0.3833
10195SOL    HW135432   1.448   1.516   9.213 -0.4481  1.4832 -0.3191
10195SOL    HW235433   1.464   1.623   9.106 -2.3834 -0.8657 -3.1223
10196SOL     OW35434   3.045   3.804   8.840  0.2678  0.1875 -0.4444
10196SOL    HW135435   2.975   3.856   8.801  0.4649  0.2182 -0.7564
10196SOL    HW235436   3.036   3.718   8.800  0.1991  0.0958 -0.2340
10197SOL     OW35437   8.049   8.623   6.938  0.2779  0.0708  0.4435
10197SOL    HW135438   8.125   8.647   6.991  1.6761  0.4543 -1.6150
10197SOL    HW235439   8.043   8.528   6.947  1.3501 -0.0318  0.2035
10198SOL     OW35440   1.346   8.418   7.279 -0.2536  0.3920  0.0262
10198SOL    HW135441   1.346   8.327   7.250 -0.2191 -0.4662  2.4960
10198SOL    HW235442   1.254   8.442   7.285 -0.2787  0.3021  0.0012
10199SOL     OW35443   0.967   8.328   3.615  0.5022 -0.5416 -0.1497
10199SOL    HW135444   1.015   8.373   3.684  1.8579 -0.4245 -1.1209
10199SOL    HW235445   0.876   8.334   3.641  0.8812  0.5134  1.0376
10200SOL     OW35446   0.323   9.123   8.610 -0.8326  0.2861 -0.0994
10200SOL    HW135447   0.334   9.068   8.532  1.3930 -0.7899  0.8951
10200SOL    HW235448   0.397   9.184   8.607  0.3567 -0.9635  2.0740
10201SOL     OW35449   0.278   7.345   6.512  0.1458  0.4667 -0.4798
10201SOL    HW135450   0.366   7.313   6.490 -0.1315 -1.2229  0.7110
10201SOL    HW235451   0.231   7.267   6.541 -1.3856  1.5593  0.0685
10202SOL     OW35452   1.574   4.535   9.482  0.2364  0.2729  0.2514
10202SOL    HW135453   1.658   4.574   9.506 -1.0027  2.4787  1.2983
10202SOL    HW235454   1.552   4.479   9.557  1.5611 -1.8090 -0.8282
10203SOL     OW35455   6.926   5.467   5.127 -0.1484  0.1159 -0.6138
10203SOL    HW135456   6.853   5.505   5.175 -0.4629 -0.6649 -0.4590
10203SOL    HW235457   6.897   5.378   5.106  1.5409 -0.9234  1.2247
10204SOL     OW35458   8.090   5.995   5.332  0.0938  0.0829  0.1855
10204SOL    HW135459   8.002   5.985   5.369  0.0750 -1.3077 -0.1568
10204SOL    HW235460   8.142   6.030   5.404 -0.3150 -0.9786  1.0426
10205SOL     OW35461   7.726   5.349   4.251 -0.0012  0.3201 -0.2049
10205SOL    HW135462   7.780   5.378   4.324 -1.2488  0.1016  0.8312
10205SOL    HW235463   7.760   5.397   4.175  0.5262  1.4882  0.7466
10206SOL     OW35464   0.193   0.801   6.558  0.1088 -0.8755 -0.1205
10206SOL    HW135465   0.124   0.838   6.612 -1.4154 -2.0863 -1.1463
10206SOL    HW235466   0.212   0.870   6.494 -1.0746 -0.9803 -0.6107
10207SOL     OW35467   8.192   0.080   4.519  0.2899 -0.6669 -0.1037
10207SOL    HW135468   8.279   0.109   4.490 -0.2393  0.6562 -0.4584
10207SOL    HW235469   8.131   0.129   4.463 -0.7076 -0.2551  1.2888
10208SOL     OW35470   4.147   2.896   2.274  0.1605  0.5328  0.1057
10208SOL    HW135471   4.059   2.929   2.292  0.7366  2.2798 -0.1471
10208SOL    HW235472   4.133   2.818   2.219 -1.2111  1.0728 -0.3441
10209SOL     OW35473   8.367   6.013   1.280  0.4625  0.7598  0.3841
10209SOL    HW135474   8.384   5.984   1.370  1.1741  1.2099  0.4049
10209SOL    HW235475   8.388   6.107   1.281  1.7934  0.5036 -0.5673
10210SOL     OW35476   2.904   7.273   1.328 -0.0484 -0.0907  0.5548
10210SOL    HW135477   2.880   7.351   1.378 -0.3347  2.2181 -2.8370
10210SOL    HW235478   2.847   7.204   1.363 -1.0142  1.5929  2.5438
10211SOL     OW35479   1.228   2.868   1.464  0.1576 -0.3755 -0.5103
10211SOL    HW135480   1.136   2.856   1.485  0.6816 -1.2623  1.5153
10211SOL    HW235481   1.257   2.939   1.522  0.6257  0.3312 -1.5799
10212SOL     OW35482   8.333   2.141   3.141  0.0776 -0.4022 -0.0513
10212SOL    HW135483   8.309   2.191   3.219  0.3141 -0.6947  0.2140
10212SOL    HW235484   8.256   2.145   3.085 -0.0771 -0.1489  0.1759
10213SOL     OW35485   6.203   3.667   0.043  0.2945  0.0176 -0.3120
10213SOL    HW135486   6.290   3.702   0.029  0.2788  0.0571 -0.3111
10213SOL    HW235487   6.206   3.628   0.131  1.3675 -3.0907 -1.5599
10214SOL     OW35488   4.514   5.392   0.194 -0.2338 -0.3421  0.2590
10214SOL    HW135489   4.588   5.383   0.254  2.0909  0.2002 -2.2747
10214SOL    HW235490   4.516   5.484   0.166 -1.5002 -0.4626 -0.3281
10215SOL     OW35491   5.166   9.377   7.126 -0.1769 -0.0720  0.0276
10215SOL    HW135492   5.164   9.471   7.147 -0.1189  0.0013 -0.2918
10215SOL    HW235493   5.217   9.372   7.045  1.9923 -0.6217  1.3609
10216SOL     OW35494   1.118   5.733   4.458  0.2111  0.1121  0.3143
10216SOL    HW135495   1.088   5.791   4.388  0.9838 -1.6546 -1.6032
10216SOL    HW235496   1.191   5.779   4.499  2.5154 -0.4004 -2.8348
10217SOL     OW35497   0.023   6.068   1.205  0.1947  0.6980 -0.7149
10217SOL    HW135498   0.050   6.131   1.138 -0.2128  1.4467 -0.1958
10217SOL    HW235499  -0.073   6.074   1.207  0.0920 -0.4427 -1.1195
10218SOL     OW35500   8.334   4.800   3.057  0.1020  0.2078  0.2459
10218SOL    HW135501   8.250   4.805   3.102  0.1746  0.2703  0.3773
10218SOL    HW235502   8.312   4.784   2.966 -0.0056 -4.9502  0.8905
10219SOL     OW35503   3.627   7.554   6.317 -0.4471 -0.0989  0.3097
10219SOL    HW135504   3.556   7.559   6.380  0.5441 -1.6931  1.6314
10219SOL    HW235505   3.586   7.520   6.237 -1.8128  2.4104 -0.1660
10220SOL     OW35506   5.454   7.694   4.797 -0.1241 -0.1841  0.3671
10220SOL    HW135507   5.403   7.740   4.864 -0.9962 -0.0847 -0.3408
10220SOL    HW235508   5.419   7.605   4.798 -0.6722  0.0002 -0.4373
10221SOL     OW35509   8.910   9.234   5.342 -0.0997 -0.1982 -0.3750
10221SOL    HW135510   8.874   9.323   5.344 -0.9872 -0.5438  1.2117
10221SOL    HW235511   9.000   9.243   5.372  0.8761  0.5234 -3.2312
10222SOL     OW35512   0.910   2.619   8.922  0.1308 -0.0215  0.1752
10222SOL    HW135513   0.922   2.570   9.003  0.8141  1.3249  0.9172
10222SOL    HW235514   0.903   2.711   8.950 -4.4373  0.1692 -0.8210
10223SOL     OW35515   6.273   5.640   9.369  0.3443 -0.2008  0.5032
10223SOL    HW135516   6.323   5.680   9.297  0.1563 -1.5285 -0.3930
10223SOL    HW235517   6.181   5.655   9.346  0.2768  0.9943  1.4362
10224SOL     OW35518   5.699   1.058   8.842 -0.1146  0.3121  0.3224
10224SOL    HW135519   5.793   1.053   8.860  0.3613  0.5465 -1.8303
10224SOL    HW235520   5.662   0.984   8.890  1.1925  0.1047  1.0618
10225SOL     OW35521   7.784   2.911   7.840  0.1016  0.4691 -1.3434
10225SOL    HW135522   7.803   2.818   7.825 -1.5482 -0.1663  0.0860
10225SOL    HW235523   7.856   2.958   7.799  1.9400 -1.5107 -0.5317
10226SOL     OW35524   6.116   0.283   7.874 -0.0869 -0.0676  0.1223
10226SOL    HW135525   6.053   0.349   7.846  0.6905 -0.2197 -2.1739
10226SOL    HW235526   6.169   0.328   7.941 -1.9273  0.3676  1.3623
10227SOL     OW35527   6.667   2.695   3.142  0.1067 -0.3998 -0.3263
10227SOL    HW135528   6.685   2.756   3.214  1.3441 -1.8900  0.7084
10227SOL    HW235529   6.688   2.609   3.178 -1.3032 -1.4338 -1.8230
10228SOL     OW35530   5.942   1.683   5.973 -0.2604  0.1283 -0.0825
10228SOL    HW135531   6.029   1.690   5.934  0.2000 -0.5728  0.7747
10228SOL    HW235532   5.887   1.647   5.903  0.9236 -2.7639  0.3165
10229SOL     OW35533   5.430   8.140   6.789 -0.7263  0.4135 -0.2418
10229SOL    HW135534   5.416   8.096   6.705  0.0509 -0.2087 -0.0601
10229SOL    HW235535   5.366   8.100   6.848 -0.5416  0.0730 -0.2717
10230SOL     OW35536   1.630   4.951   4.441 -0.1592  0.9264 -0.6157
10230SOL    HW135537   1.594   4.932   4.354 -0.5525 -1.5106  0.0097
10230SOL    HW235538   1.681   5.031   4.428 -0.2073  0.6545 -3.0774
10231SOL     OW35539   3.408   4.672   8.567  0.2634 -0.6010  0.2041
10231SOL    HW135540   3.326   4.621   8.570 -0.4478  0.4414 -0.7481
10231SOL    HW235541   3.399   4.735   8.638 -1.0011  1.2554 -1.4962
10232SOL     OW35542   7.278   7.562   1.364 -0.3973  0.0354 -0.3361
10232SOL    HW135543   7.266   7.471   1.390 -0.6885  0.5011  1.2849
10232SOL    HW235544   7.189   7.598   1.364 -0.3896  0.0895 -1.9259
10233SOL     OW35545   6.898   6.123   8.763 -0.0692  0.0619 -0.5739
10233SOL    HW135546   6.954   6.134   8.686 -0.3420 -0.9491 -0.9293
10233SOL    HW235547   6.959   6.099   8.833  0.0039 -0.6627 -0.8728
10234SOL     OW35548   2.872   9.699   3.964  0.0156 -0.2397  0.7534
10234SOL    HW135549   2.889   9.781   4.009  0.3700 -0.5124  1.1219
10234SOL    HW235550   2.921   9.634   4.013 -1.7585 -0.9976  1.5954
10235SOL     OW35551   8.835   1.431   1.683 -0.1723  0.4535  0.0376
10235SOL    HW135552   8.776   1.409   1.611 -1.0946 -0.4391  1.0265
10235SOL    HW235553   8.799   1.385   1.759  1.1632  0.8078  0.9295
10236SOL     OW35554   1.480   3.382   1.156 -0.6102  0.7279  0.5601
10236SOL    HW135555   1.438   3.297   1.142 -0.8277  0.3589  2.9811
10236SOL    HW235556   1.572   3.368   1.136 -0.8644  0.2974 -0.3436
10237SOL     OW35557   9.628   2.012   7.234  0.2606 -0.1795 -0.1367
10237SOL    HW135558   9.693   2.082   7.223 -1.6636  1.6300 -0.5122
10237SOL    HW235559   9.640   1.956   7.157  1.0092  0.4222 -0.4633
10238SOL     OW35560   0.973   6.988   7.343 -0.0812 -0.3280  0.5205
10238SOL    HW135561   0.957   7.030   7.259  1.1379  1.4175  1.0933
10238SOL    HW235562   0.990   6.896   7.322  2.2499  0.4386 -1.4204
10239SOL     OW35563   8.685   8.343   4.906  0.0957 -0.8424  0.2295
10239SOL    HW135564   8.612   8.303   4.952 -0.7511 -0.5999 -0.8719
10239SOL    HW235565   8.651   8.427   4.875  0.1636 -1.5550 -1.9888
10240SOL     OW35566   2.294   7.911   8.176 -0.2476  0.3337  0.5632
10240SOL    HW135567   2.363   7.854   8.209 -1.6457 -0.0052  3.1464
10240SOL    HW235568   2.331   7.999   8.183  1.0849 -0.0218 -1.2894
10241SOL     OW35569   0.662   8.418   6.784 -0.0828 -0.1982  0.1990
10241SOL    HW135570   0.620   8.441   6.701  0.7830  2.3382  0.3923
10241SOL    HW235571   0.719   8.492   6.804  0.1838 -0.9965  2.7887
10242SOL     OW35572   3.339   2.436   8.364 -0.1771  0.2788 -1.1989
10242SOL    HW135573   3.245   2.428   8.380 -0.3901  2.1762 -1.2034
10242SOL    HW235574   3.354   2.531   8.358  1.8058  0.0333 -0.8237
10243SOL     OW35575   1.231   0.069   4.538 -0.1593 -0.2709  0.1609
10243SOL    HW135576   1.253  -0.013   4.582  1.1754 -0.6777 -1.1651
10243SOL    HW235577   1.214   0.131   4.609 -0.5905 -1.5234  1.1940
10244SOL     OW35578   6.455   3.130   7.046 -0.0978  0.1681  0.1467
10244SOL    HW135579   6.522   3.198   7.036 -0.0676 -0.1448 -2.2825
10244SOL    HW235580   6.503   3.048   7.035 -0.6656 -0.1121 -0.2564
10245SOL     OW35581   7.763   5.375   9.444  0.0775 -0.5608 -0.2088
10245SOL    HW135582   7.823   5.359   9.517  1.8858  0.9516 -1.2588
10245SOL    HW235583   7.699   5.436   9.480  0.2376 -0.7609  0.4407
10246SOL     OW35584   6.649   4.898   0.244 -0.0724 -0.0317  0.4975
10246SOL    HW135585   6.612   4.951   0.315 -0.9890 -0.0649  0.0615
10246SOL    HW235586   6.574   4.849   0.209  0.2583  0.3868 -0.8455
10247SOL     OW35587   1.234   4.281   8.892 -0.3356  0.0110  0.2867
10247SOL    HW135588   1.222   4.239   8.977  0.0673  0.8048  0.7585
10247SOL    HW235589   1.159   4.341   8.885  0.3900  0.9951  0.7517
10248SOL     OW35590   4.336   9.008   6.748  0.2406  0.2901  0.1255
10248SOL    HW135591   4.417   9.005   6.800  0.0979 -1.1959  0.3093
10248SOL    HW235592   4.355   8.954   6.671 -1.3691 -2.2891  1.4177
10249SOL     OW35593   6.301   8.859   6.913 -0.5993  0.0555 -0.1181
10249SOL    HW135594   6.245   8.790   6.876 -1.2850  1.2736 -1.4683
10249SOL    HW235595   6.262   8.877   6.999 -1.6119  0.0823 -0.5597
10250SOL     OW35596   3.520   6.696   3.624 -0.2970 -0.5047 -0.3942
10250SOL    HW135597   3.447   6.648   3.586  1.1017 -3.2725  0.1894
10250SOL    HW235598   3.517   6.675   3.718  0.1167  0.9580 -0.0250
10251SOL     OW35599   6.349   8.719   2.238  0.1625 -0.4392 -0.1694
10251SOL    HW135600   6.315   8.635   2.270  0.7911 -0.4429  0.5184
10251SOL    HW235601   6.405   8.695   2.164 -1.0962 -0.4544 -1.1530
10252SOL     OW35602   3.732   0.092   5.366  0.1454  0.2373  0.0783
10252SOL    HW135603   3.812   0.052   5.332 -0.7969 -0.4642 -1.3758
10252SOL    HW235604   3.705   0.035   5.438 -0.5391 -1.1217 -1.2135
10253SOL     OW35605   4.219   4.601   5.766  0.1221 -0.8083 -0.8060
10253SOL    HW135606   4.285   4.668   5.749 -0.4399 -0.2676 -0.9275
10253SOL    HW235607   4.145   4.649   5.803 -1.1243 -0.9785 -2.8687
10254SOL     OW35608   2.777   2.655   5.267 -0.2928 -0.6346  0.4112
10254SOL    HW135609   2.701   2.672   5.322 -0.7505 -1.8113  0.1716
10254SOL    HW235610   2.754   2.691   5.182 -0.3828 -0.5611  0.4667
10255SOL     OW35611   7.015   4.282   0.305 -0.6119  0.2042  0.3799
10255SOL    HW135612   6.928   4.319   0.318  0.3023  2.8329 -0.3093
10255SOL    HW235613   7.051   4.332   0.232  2.6828  1.5788  2.7186
10256SOL     OW35614   6.941   2.346   7.740  0.1544  0.0666  0.2955
10256SOL    HW135615   6.866   2.404   7.758  0.4979  1.0792 -1.3106
10256SOL    HW235616   6.918   2.264   7.782 -1.8831  0.3557 -0.1351
10257SOL     OW35617   1.006   6.469   2.992  0.0825 -0.4257 -0.5225
10257SOL    HW135618   0.991   6.389   2.943 -0.4717  0.3315 -1.6308
10257SOL    HW235619   1.090   6.502   2.960  0.6439 -0.8947  0.4219
10258SOL     OW35620   1.688   5.274   8.646 -0.5567  0.1826  0.3129
10258SOL    HW135621   1.614   5.216   8.661 -0.6177  0.5606  1.5719
10258SOL    HW235622   1.758   5.216   8.614 -0.6990 -0.5457  1.2908
10259SOL     OW35623   7.235   3.360   4.505  0.1372 -0.1654  0.3234
10259SOL    HW135624   7.201   3.272   4.489  0.7501 -0.2211 -0.8238
10259SOL    HW235625   7.327   3.345   4.528  0.0117  0.1260  1.0342
10260SOL     OW35626   3.702   2.646   7.233 -0.4993  0.3439  0.0470
10260SOL    HW135627   3.744   2.631   7.318  1.7945 -0.9032 -1.2341
10260SOL    HW235628   3.617   2.603   7.241  0.5148 -1.6280  1.0623
10261SOL     OW35629   8.184   9.267   4.720  0.8302 -0.0171  0.1421
10261SOL    HW135630   8.219   9.186   4.684  1.3906  0.6221 -0.7988
10261SOL    HW235631   8.119   9.296   4.656  0.7772  0.3878  0.3711
10262SOL     OW35632   0.665   9.519   3.641 -0.0578 -0.3246  0.0099
10262SOL    HW135633   0.579   9.533   3.600 -0.1178  2.4601  0.8686
10262SOL    HW235634   0.728   9.529   3.570 -0.3574 -0.4259 -0.2707
10263SOL     OW35635   0.731   8.641   0.880  0.4133  0.6666 -0.0956
10263SOL    HW135636   0.794   8.710   0.900  1.3260 -0.4494  1.0029
10263SOL    HW235637   0.781   8.576   0.832  0.2622 -0.4893  1.2577
10264SOL     OW35638   1.362   6.793   1.802 -0.2521  0.1658  1.1076
10264SOL    HW135639   1.320   6.823   1.722 -0.7448 -0.2874  1.1922
10264SOL    HW235640   1.452   6.825   1.795 -0.2160 -0.0894  0.2498
10265SOL     OW35641   0.043   8.402   4.921 -0.0773 -0.5746  0.0572
10265SOL    HW135642   0.126   8.372   4.885  0.3494 -1.0181  1.3630
10265SOL    HW235643   0.051   8.389   5.015 -0.9560  1.0474  0.4016
10266SOL     OW35644   3.836   5.106   2.822 -0.2841 -0.2855  0.3807
10266SOL    HW135645   3.789   5.052   2.885 -0.8090 -0.4918 -0.1766
10266SOL    HW235646   3.835   5.194   2.860 -0.2647 -0.4794  0.8335
10267SOL     OW35647   3.682   6.467   9.170 -0.4595 -0.5129 -0.0696
10267SOL    HW135648   3.639   6.477   9.255 -1.1016 -2.0374 -0.1788
10267SOL    HW235649   3.673   6.374   9.149  1.2286 -0.5096 -1.0082
10268SOL     OW35650   5.366   0.375   7.632 -0.6840 -0.1291 -0.7121
10268SOL    HW135651   5.446   0.372   7.580 -1.1587  2.7901 -1.8111
10268SOL    HW235652   5.395   0.398   7.720 -0.1583 -1.3640 -0.5553
10269SOL     OW35653   7.893   4.488   5.164  0.0580 -0.3039  0.4994
10269SOL    HW135654   7.817   4.538   5.193 -0.1153 -2.1606  3.6514
10269SOL    HW235655   7.965   4.521   5.217  1.3649  0.7928 -1.8138
10270SOL     OW35656   8.369   0.180   8.969 -0.0651 -0.4312 -0.0874
10270SOL    HW135657   8.421   0.241   8.916 -0.6168  0.4789  0.3969
10270SOL    HW235658   8.411   0.182   9.055 -0.0862 -0.7336 -0.0711
10271SOL     OW35659   1.493   6.638   3.015  0.5504 -0.0155  0.3543
10271SOL    HW135660   1.561   6.703   3.032  0.8022  0.4612 -2.0897
10271SOL    HW235661   1.413   6.677   3.051  1.1691  0.3958  1.3238
10272SOL     OW35662   0.113   0.847   9.245 -0.2975 -0.4701 -0.1225
10272SOL    HW135663   0.058   0.875   9.318  1.9484  0.7969  1.2195
10272SOL    HW235664   0.199   0.886   9.264  0.5727 -0.7056 -3.0851
10273SOL     OW35665   0.311   6.998   1.694 -0.2821  0.0255  0.0398
10273SOL    HW135666   0.279   6.915   1.659 -0.3829  0.1334 -0.1214
10273SOL    HW235667   0.234   7.055   1.698  0.0741  0.6304 -1.3316
10274SOL     OW35668   1.877   6.538   3.460  0.8955  0.1397 -0.3304
10274SOL    HW135669   1.826   6.542   3.379 -2.5870 -1.7695  1.5596
10274SOL    HW235670   1.917   6.451   3.459  1.5615  0.4415 -0.3663
10275SOL     OW35671   6.697   3.709   4.530 -0.0266 -0.0551 -0.4416
10275SOL    HW135672   6.714   3.681   4.619  0.1286 -2.3431 -1.1280
10275SOL    HW235673   6.602   3.710   4.523 -0.0733 -2.2123 -0.8550
10276SOL     OW35674   8.884   1.684   1.019  0.0522  0.3273 -0.0974
10276SOL    HW135675   8.800   1.645   0.995  0.7365 -0.9754 -0.4537
10276SOL    HW235676   8.865   1.777   1.029 -0.7187  0.7643 -3.9377
10277SOL     OW35677   0.637   5.428   0.754 -0.3873 -0.2222 -1.0569
10277SOL    HW135678   0.614   5.358   0.815  0.7419  1.3269  1.3282
10277SOL    HW235679   0.628   5.389   0.667 -1.9858 -2.5947  0.0763
10278SOL     OW35680   5.426   5.192   1.231 -0.3938 -0.0611 -0.0763
10278SOL    HW135681   5.426   5.282   1.264  1.1783 -0.5162  1.2883
10278SOL    HW235682   5.447   5.138   1.307  2.7489 -1.2219 -1.5837
10279SOL     OW35683   4.558   4.175   5.883 -0.4214  0.0638 -0.1914
10279SOL    HW135684   4.519   4.261   5.863 -0.8067  0.4139  1.8116
10279SOL    HW235685   4.649   4.182   5.854 -0.6981  0.8039 -0.9194
10280SOL     OW35686   5.947   0.821   1.373 -0.0491  0.1514  0.0421
10280SOL    HW135687   5.974   0.824   1.465  0.5130  0.3555 -0.1271
10280SOL    HW235688   5.907   0.735   1.362  1.1526 -0.4340  0.1236
10281SOL     OW35689   5.969   2.948   5.517 -0.0986  0.0980  0.2920
10281SOL    HW135690   5.941   2.921   5.429  1.5193  0.2374 -0.3120
10281SOL    HW235691   5.947   3.041   5.520 -1.1562 -0.1495  0.4650
10282SOL     OW35692   3.313   5.312   7.792 -0.0851  0.0847 -0.5018
10282SOL    HW135693   3.342   5.394   7.752 -0.0533 -0.2371 -1.1535
10282SOL    HW235694   3.227   5.333   7.830  0.5592  0.7940  0.6210
10283SOL     OW35695   6.225   8.783   0.612 -0.6263  0.5101  0.1937
10283SOL    HW135696   6.154   8.740   0.660 -0.4306  1.1449  1.0834
10283SOL    HW235697   6.287   8.713   0.594 -1.2677  0.0325 -0.2046
10284SOL     OW35698   3.982   1.797   1.187  0.0265 -0.3527 -0.1010
10284SOL    HW135699   3.979   1.836   1.100 -1.5926  1.1580  0.5659
10284SOL    HW235700   4.073   1.766   1.196  0.9201  1.6470 -1.4118
10285SOL     OW35701   9.632   4.687   3.716  0.7808  0.1947  0.1691
10285SOL    HW135702   9.573   4.617   3.687  0.5508  0.1186  0.8125
10285SOL    HW235703   9.701   4.642   3.765 -0.9572  0.6218  3.2232
10286SOL     OW35704   4.714   7.551   7.513  0.1231 -0.0455  0.0516
10286SOL    HW135705   4.662   7.580   7.438  0.8282 -1.9278 -1.2386
10286SOL    HW235706   4.654   7.497   7.564  0.7740 -2.5036 -1.6192
10287SOL     OW35707   6.839   9.449   1.582 -0.0096  0.0833 -0.7798
10287SOL    HW135708   6.847   9.541   1.559  0.8165  0.1538 -0.2197
10287SOL    HW235709   6.848   9.402   1.499  0.4704  0.4551 -0.9352
10288SOL     OW35710   3.475   4.085   6.436 -0.0273 -0.4853  0.5135
10288SOL    HW135711   3.418   4.147   6.482 -0.7357 -0.6202 -0.1692
10288SOL    HW235712   3.419   4.044   6.371  0.9226 -0.3919 -0.3944
10289SOL     OW35713   7.061   0.576   1.292  0.2399 -0.9247 -0.0761
10289SOL    HW135714   7.031   0.583   1.201  0.2217  1.0218  0.0387
10289SOL    HW235715   7.080   0.483   1.304 -0.9488 -1.4134 -1.6833
10290SOL     OW35716   6.229   4.935   5.802  0.4093 -0.2581  0.0629
10290SOL    HW135717   6.227   4.844   5.833  0.9249 -0.4859 -0.5426
10290SOL    HW235718   6.195   4.930   5.713 -1.3298  0.4285  0.6395
10291SOL     OW35719   7.757   9.506   0.949 -0.6664 -0.7272 -0.3879
10291SOL    HW135720   7.829   9.503   0.886 -0.0569  1.2287  0.1605
10291SOL    HW235721   7.679   9.484   0.898 -0.2178  1.0005 -1.8927
10292SOL     OW35722   7.529   5.224   9.003 -0.3102 -0.0555 -0.5375
10292SOL    HW135723   7.542   5.216   8.908 -0.0031 -0.2064 -0.4816
10292SOL    HW235724   7.569   5.146   9.040 -0.2827  0.0844 -0.2669
10293SOL     OW35725   0.394   5.603   8.060  0.2138 -0.0160 -0.1958
10293SOL    HW135726   0.394   5.572   7.970  1.2696 -0.6441  0.0086
10293SOL    HW235727   0.334   5.678   8.060 -0.3114 -0.4275 -1.2651
10294SOL     OW35728   4.460   8.318   4.564  0.0364 -0.6239 -0.0515
10294SOL    HW135729   4.372   8.304   4.531 -0.0822 -0.2790  0.1116
10294SOL    HW235730   4.461   8.410   4.594  0.1919 -0.8647  0.7220
10295SOL     OW35731   5.171   1.495   3.110 -0.3369  0.3518  0.0356
10295SOL    HW135732   5.212   1.410   3.094  1.0755  0.6301  1.8171
10295SOL    HW235733   5.101   1.476   3.174  0.4524  0.5991  0.9957
10296SOL     OW35734   9.601   8.566   3.067  0.0329 -0.1670 -0.5428
10296SOL    HW135735   9.655   8.558   2.988  0.2717  1.6406 -0.6095
10296SOL    HW235736   9.514   8.540   3.039  0.1864  0.1439 -1.3417
10297SOL     OW35737   5.152   0.211   2.127  0.0670 -0.1738  0.0944
10297SOL    HW135738   5.188   0.141   2.181  0.9430 -0.6558 -1.0784
10297SOL    HW235739   5.212   0.217   2.052 -2.0088 -0.6773 -1.6999
10298SOL     OW35740   8.830   2.926   5.162 -0.2746 -0.3561  0.4790
10298SOL    HW135741   8.918   2.910   5.128 -0.3047  0.9283 -0.2694
10298SOL    HW235742   8.774   2.927   5.084 -0.3572  2.5503  0.4612
10299SOL     OW35743   0.898   8.702   7.052 -0.1333  0.1502  0.1100
10299SOL    HW135744   0.982   8.656   7.057 -0.0870  0.3450  1.5234
10299SOL    HW235745   0.855   8.665   6.975  0.3243 -1.5627  0.6245
10300SOL     OW35746   0.607   8.131   9.179  0.1419 -0.3102 -0.3076
10300SOL    HW135747   0.700   8.116   9.164  0.4724 -1.7476  2.4648
10300SOL    HW235748   0.577   8.054   9.227 -1.8269  1.2931  1.2716
10301SOL     OW35749   8.224   8.285   3.759  0.0530  0.1649 -0.6182
10301SOL    HW135750   8.138   8.291   3.801  1.0707  1.4291  1.4254
10301SOL    HW235751   8.213   8.333   3.677 -1.4977 -0.8070 -1.0455
10302SOL     OW35752   9.170   4.737   1.220 -0.0662 -0.0780 -0.3960
10302SOL    HW135753   9.239   4.678   1.250 -1.9580 -1.5243  1.3493
10302SOL    HW235754   9.157   4.714   1.128  1.8816  0.4127 -0.8500
10303SOL     OW35755   6.248   3.086   8.791 -0.0848  1.2178  0.5350
10303SOL    HW135756   6.205   3.016   8.742  2.0945  0.7403 -0.8081
10303SOL    HW235757   6.301   3.132   8.726  3.3089  0.3007  2.3935
10304SOL     OW35758   8.682   1.496   2.118  0.1090  0.0388  0.6728
10304SOL    HW135759   8.774   1.499   2.142  0.6048 -0.6291 -1.0444
10304SOL    HW235760   8.656   1.405   2.132 -0.1381  0.1012  0.6299
10305SOL     OW35761   7.858   2.661   9.734 -0.6734 -0.0925 -0.7148
10305SOL    HW135762   7.798   2.733   9.718 -1.5158 -0.4897  0.5668
10305SOL    HW235763   7.804   2.582   9.725  0.0552 -0.5467 -1.2879
10306SOL     OW35764   6.070   5.095   7.969 -0.2590  0.2688  0.3254
10306SOL    HW135765   6.118   5.067   7.891  0.1402  0.1142  0.6248
10306SOL    HW235766   5.993   5.038   7.972 -2.3843  2.7168 -2.0923
10307SOL     OW35767   6.566   8.705   1.027  0.0564 -0.1080 -0.2429
10307SOL    HW135768   6.480   8.728   0.990 -0.1546  0.2321  0.4428
10307SOL    HW235769   6.574   8.761   1.104  0.0461 -1.5186  0.7996
10308SOL     OW35770   1.770   5.646   8.182 -0.5903 -0.0789 -0.2885
10308SOL    HW135771   1.686   5.600   8.188 -0.3133 -0.4836  0.6158
10308SOL    HW235772   1.778   5.693   8.265 -0.2796  0.6029 -0.6906
10309SOL     OW35773   4.637   7.389   9.625  0.0837  0.1351  0.0890
10309SOL    HW135774   4.677   7.418   9.707  1.8454 -1.7715  0.0003
10309SOL    HW235775   4.578   7.319   9.651 -1.0854  1.0202 -0.0939
10310SOL     OW35776   4.741   8.020   4.499  0.2336 -0.0298 -0.1383
10310SOL    HW135777   4.729   8.035   4.592 -3.0185  0.6017 -0.5198
10310SOL    HW235778   4.794   7.941   4.493  1.8089  0.7716  2.1751
10311SOL     OW35779   7.171   8.635   4.789 -0.3094  0.3188 -0.7926
10311SOL    HW135780   7.160   8.555   4.840 -1.5735  0.8289 -0.2076
10311SOL    HW235781   7.081   8.664   4.770  0.1295  0.9800 -1.9869
10312SOL     OW35782   5.377   7.881   2.751  0.4208  0.0503 -0.0554
10312SOL    HW135783   5.291   7.846   2.727  0.1102  0.8645 -0.1765
10312SOL    HW235784   5.381   7.965   2.706 -0.4573  2.0156  3.1975
10313SOL     OW35785   1.030   1.879   7.496 -0.0792 -0.6738 -0.0525
10313SOL    HW135786   1.058   1.910   7.582 -1.2360 -0.1611  0.1549
10313SOL    HW235787   1.093   1.810   7.474  2.0073  1.1374 -0.1140
10314SOL     OW35788   1.076   2.578   0.259  0.0468  0.3116  0.7365
10314SOL    HW135789   1.048   2.632   0.333  0.7676  1.2088  0.3735
10314SOL    HW235790   1.061   2.633   0.182 -0.4931 -0.5354  0.2227
10315SOL     OW35791   5.549   5.132   2.497 -0.1730 -0.2805  0.3413
10315SOL    HW135792   5.611   5.119   2.568  1.1315 -2.4761 -1.0789
10315SOL    HW235793   5.599   5.180   2.430 -1.1341  1.0622  0.5449
10316SOL     OW35794   5.191   7.535   7.303  0.0887 -0.1734  0.2745
10316SOL    HW135795   5.194   7.454   7.354  0.9929  0.0476  0.6012
10316SOL    HW235796   5.118   7.585   7.340 -0.9029 -1.1077 -0.3691
10317SOL     OW35797   2.586   9.092   8.731 -0.0863  0.0528  0.1229
10317SOL    HW135798   2.616   9.118   8.644  0.1735 -3.8910 -1.1279
10317SOL    HW235799   2.492   9.079   8.720  0.2426 -2.5414 -0.3121
10318SOL     OW35800   7.857   2.030   1.050  0.0260 -0.2635  0.1851
10318SOL    HW135801   7.855   2.019   1.145 -0.5089 -0.7713  0.1235
10318SOL    HW235802   7.894   2.117   1.037  2.0840 -0.9821  0.8019
10319SOL     OW35803   2.226   7.646   8.900 -0.2490 -0.1694 -0.0299
10319SOL    HW135804   2.296   7.588   8.929  0.4583 -0.7662 -2.7139
10319SOL    HW235805   2.147   7.611   8.942  0.8560  0.1655  2.5804
10320SOL     OW35806   7.561   7.506   5.701  0.4734  0.4128  0.2103
10320SOL    HW135807   7.639   7.467   5.740  0.8004  0.0811 -0.7540
10320SOL    HW235808   7.576   7.600   5.707  0.9179  0.3510  0.0938
10321SOL     OW35809   6.271   5.406   4.489 -0.1155 -0.2336 -1.0303
10321SOL    HW135810   6.296   5.316   4.507  0.5154  0.4056  1.8794
10321SOL    HW235811   6.185   5.399   4.447 -1.2116 -2.2050  1.2692
10322SOL     OW35812   8.986   1.128   4.951  0.1172  1.1231  0.1778
10322SOL    HW135813   8.994   1.095   4.862  0.7134 -0.4043  0.7551
10322SOL    HW235814   8.947   1.055   5.000 -0.4503  2.0302  1.1148
10323SOL     OW35815   6.287   7.141   5.562  0.8324 -0.4021 -0.6711
10323SOL    HW135816   6.209   7.089   5.578  1.1050 -1.1501 -1.6903
10323SOL    HW235817   6.254   7.227   5.537  0.3614 -0.4028 -0.0735
10324SOL     OW35818   0.962   7.397   6.999  0.1395 -0.2266 -0.1589
10324SOL    HW135819   0.916   7.326   6.955  0.3530 -0.2325 -0.3728
10324SOL    HW235820   1.000   7.449   6.928  0.7431 -0.4098  0.0238
10325SOL     OW35821   2.114   0.889   0.712  0.2347  0.1184  0.2595
10325SOL    HW135822   2.070   0.973   0.726 -1.6381 -0.6280 -0.7931
10325SOL    HW235823   2.090   0.835   0.787 -0.5713 -0.2504 -0.2551
10326SOL     OW35824   2.874   7.733   0.607  0.0309 -0.2242  0.0124
10326SOL    HW135825   2.933   7.790   0.558  0.2326 -0.9426 -0.6047
10326SOL    HW235826   2.923   7.709   0.685 -0.3265  1.0026  0.6368
10327SOL     OW35827   3.387   0.812   3.061  0.4813 -0.3115 -0.6226
10327SOL    HW135828   3.446   0.879   3.094  1.8965 -0.9212 -1.8047
10327SOL    HW235829   3.397   0.816   2.966 -2.4794  0.5257 -0.9992
10328SOL     OW35830   9.692   6.771   5.448 -0.1457  0.1761 -0.3068
10328SOL    HW135831   9.768   6.713   5.443 -1.5153 -2.3027  3.2292
10328SOL    HW235832   9.658   6.774   5.359  3.7942  1.2158 -1.9973
10329SOL     OW35833   3.259   7.657   4.552 -0.2370  0.8905  0.1839
10329SOL    HW135834   3.175   7.622   4.522  0.1370  0.8115 -0.8112
10329SOL    HW235835   3.244   7.677   4.645 -1.1442  0.2390  0.2035
10330SOL     OW35836   1.518   5.687   7.526 -0.0733  0.3114 -0.2580
10330SOL    HW135837   1.570   5.621   7.570  1.4800  1.0051 -0.9470
10330SOL    HW235838   1.552   5.688   7.436 -2.5838 -0.5051 -1.2923
10331SOL     OW35839   2.815   7.072   3.989  0.0209 -0.1127  0.3452
10331SOL    HW135840   2.858   7.035   4.067  0.2392 -1.7052 -0.4864
10331SOL    HW235841   2.725   7.040   3.994 -0.1871  0.4637  0.3539
10332SOL     OW35842   3.006   9.357   0.417 -0.0079  0.4637 -0.4506
10332SOL    HW135843   3.100   9.377   0.423  0.1540 -0.5192  0.5394
10332SOL    HW235844   2.993   9.283   0.476 -1.1539 -0.3626 -1.6711
10333SOL     OW35845   0.644   0.263   8.949  0.2002 -0.2669 -0.1516
10333SOL    HW135846   0.614   0.336   9.003  0.0176  0.1491 -0.8046
10333SOL    HW235847   0.711   0.301   8.892  1.7494 -1.1014  1.0263
10334SOL     OW35848   4.705   5.646   1.972  0.0934 -0.2537  0.3520
10334SOL    HW135849   4.725   5.589   2.047  1.2514 -0.8232 -0.3483
10334SOL    HW235850   4.614   5.627   1.951 -0.9447  1.4433  2.8674
10335SOL     OW35851   0.417   0.756   5.686  0.1429  0.2894  0.2462
10335SOL    HW135852   0.325   0.733   5.700  0.2532 -0.2104  0.1700
10335SOL    HW235853   0.420   0.851   5.698 -0.3293  0.2710  0.5414
10336SOL     OW35854   8.756   0.293   5.852 -0.8982 -0.6173 -0.3874
10336SOL    HW135855   8.834   0.341   5.825 -0.9961 -1.0108 -1.4255
10336SOL    HW235856   8.706   0.356   5.904  0.9958 -0.9273  2.0351
10337SOL     OW35857   8.949   4.984   0.874  0.6267  0.1388  0.1257
10337SOL    HW135858   8.922   4.894   0.855  0.5117 -0.4485  2.7179
10337SOL    HW235859   8.871   5.026   0.910  0.8192  1.1679 -0.5930
10338SOL     OW35860   9.069   3.371   3.680  0.7062  0.3035 -0.5729
10338SOL    HW135861   9.129   3.326   3.739 -1.2350 -2.2862 -0.4005
10338SOL    HW235862   9.001   3.407   3.738  0.5169  0.6158 -0.9807
10339SOL     OW35863   5.159   9.742   5.789  0.1471 -0.1390  0.1854
10339SOL    HW135864   5.107   9.799   5.845  1.5023 -0.7032  2.1129
10339SOL    HW235865   5.145   9.654   5.824  1.3222 -0.4573 -0.0826
10340SOL     OW35866   1.374   8.236   9.523 -0.1236 -0.4813  0.6622
10340SOL    HW135867   1.403   8.176   9.454  1.3541 -1.4679  2.0841
10340SOL    HW235868   1.450   8.291   9.541 -1.5294  2.0960 -0.7910
10341SOL     OW35869   2.122   7.617   3.141  0.4510  0.4102  0.2454
10341SOL    HW135870   2.218   7.615   3.149  0.5942  1.5847 -0.9439
10341SOL    HW235871   2.106   7.651   3.054 -1.0706  1.2456  0.8230
10342SOL     OW35872   4.224   5.591   4.712 -0.0841 -0.5552  0.1567
10342SOL    HW135873   4.271   5.508   4.720  0.4982 -0.2049  0.5008
10342SOL    HW235874   4.228   5.630   4.799 -0.1470 -0.0628 -0.0513
10343SOL     OW35875   1.377   2.031   6.350  0.4580 -0.4456 -0.5905
10343SOL    HW135876   1.351   2.017   6.259  2.1171 -0.0026 -1.1624
10343SOL    HW235877   1.321   2.103   6.379  0.4237 -0.0786 -1.5145
10344SOL     OW35878   1.223   7.888   7.223 -0.4382 -0.4293  0.2155
10344SOL    HW135879   1.154   7.901   7.289  0.6088 -0.3757  1.3310
10344SOL    HW235880   1.175   7.867   7.143 -1.7488 -0.5945  1.0058
10345SOL     OW35881   1.791   6.670   0.073 -0.5027 -0.6289  0.0702
10345SOL    HW135882   1.780   6.608   0.002 -0.4825  0.7069 -1.1496
10345SOL    HW235883   1.765   6.754   0.036  2.6391  0.7190  0.5505
10346SOL     OW35884   2.659   8.557   0.207 -0.1894  0.2604 -0.1823
10346SOL    HW135885   2.706   8.593   0.133 -0.1095  1.5661  0.4719
10346SOL    HW235886   2.708   8.586   0.284 -0.1492 -1.2374  0.3960
10347SOL     OW35887   3.751   7.171   7.634 -0.8326 -0.4011  0.6390
10347SOL    HW135888   3.837   7.192   7.598 -0.6641  0.8018  1.6802
10347SOL    HW235889   3.721   7.096   7.582  0.5393 -0.4130 -0.1856
10348SOL     OW35890   0.577   0.502   3.502  0.3715 -0.3558 -0.2311
10348SOL    HW135891   0.558   0.415   3.537  0.6309  0.0778  1.0305
10348SOL    HW235892   0.518   0.510   3.426  1.4724 -2.2279 -1.3794
10349SOL     OW35893   1.974   9.627   3.064 -0.1821 -0.4124  2.1608
10349SOL    HW135894   2.050   9.674   3.099 -0.0778  1.3652 -0.2227
10349SOL    HW235895   1.899   9.680   3.092 -0.1078  0.9291  0.0097
10350SOL     OW35896   8.558   4.789   7.955  0.1911  0.4534  0.1264
10350SOL    HW135897   8.588   4.780   7.865  0.8944  2.4309  0.1049
10350SOL    HW235898   8.607   4.724   8.004  0.6685  0.1598 -0.7338
10351SOL     OW35899   4.647   6.152   3.165  0.7103  0.6941 -0.1980
10351SOL    HW135900   4.644   6.080   3.102 -1.2127 -1.8518  2.5818
10351SOL    HW235901   4.737   6.153   3.196  0.8132 -0.3727 -0.4369
10352SOL     OW35902   9.110   7.160   9.157 -0.1794  0.8206  0.0917
10352SOL    HW135903   9.038   7.098   9.165 -0.9740  1.5800 -0.9254
10352SOL    HW235904   9.173   7.132   9.223 -1.4357  0.1829  1.0658
10353SOL     OW35905   7.926   3.112   8.429 -0.4636  0.0261 -0.2977
10353SOL    HW135906   7.961   3.200   8.414 -1.8308  0.4548 -1.2120
10353SOL    HW235907   7.994   3.053   8.396  0.2348  0.7492 -0.1850
10354SOL     OW35908   2.815   2.920   6.343 -0.1027  0.2035  0.2137
10354SOL    HW135909   2.887   2.984   6.344  0.0888  0.0140  1.9595
10354SOL    HW235910   2.853   2.841   6.306  0.8910 -0.1663  1.9133
10355SOL     OW35911   4.676   3.766   8.002  0.1093  0.0523 -0.3876
10355SOL    HW135912   4.586   3.742   7.983  0.3891 -0.1539 -1.5132
10355SOL    HW235913   4.675   3.790   8.095 -1.8402  3.3951 -1.0760
10356SOL     OW35914   7.150   3.693   0.279 -0.4374  0.2927 -0.5407
10356SOL    HW135915   7.110   3.780   0.275 -0.9732  0.1039  0.3378
10356SOL    HW235916   7.238   3.707   0.313  0.0373  0.6485 -1.8818
10357SOL     OW35917   9.261   4.174   4.798 -0.0809  0.2314 -0.4274
10357SOL    HW135918   9.336   4.214   4.754 -0.7398  2.1519  0.0964
10357SOL    HW235919   9.192   4.174   4.731 -0.0946 -0.0208 -0.4140
10358SOL     OW35920   4.888   8.548   3.797 -0.3235 -0.0487  0.1177
10358SOL    HW135921   4.972   8.555   3.751 -0.8940 -0.9526 -1.1348
10358SOL    HW235922   4.896   8.607   3.872  0.4837  1.9113 -1.4091
10359SOL     OW35923   7.410   0.211   7.927 -0.0088 -0.2611 -0.5918
10359SOL    HW135924   7.430   0.244   8.015 -0.4992  0.5819 -0.7807
10359SOL    HW235925   7.317   0.229   7.916 -0.1316 -1.0986 -0.9836
10360SOL     OW35926   3.402   6.989   0.710 -0.0397 -0.3586  0.3073
10360SOL    HW135927   3.362   7.075   0.724  0.7185  0.0721 -0.1025
10360SOL    HW235928   3.473   7.005   0.648 -0.0754 -1.3372 -0.0082
10361SOL     OW35929   1.483   0.515   8.923 -0.0423 -1.0697  0.7927
10361SOL    HW135930   1.392   0.540   8.905  0.5570  1.1546  0.4647
10361SOL    HW235931   1.504   0.451   8.855 -0.2386  1.3718 -1.8011
10362SOL     OW35932   9.317   8.264   4.076 -0.1974  0.2180 -0.4648
10362SOL    HW135933   9.389   8.284   4.016 -1.3717  3.1290 -1.0956
10362SOL    HW235934   9.277   8.186   4.040  1.0210  0.0913 -1.6503
10363SOL     OW35935   7.874   0.028   7.721  0.3858  0.2122  0.2966
10363SOL    HW135936   7.784   0.014   7.750  0.5347 -0.0275  0.6454
10363SOL    HW235937   7.889   0.122   7.734  0.8511 -0.0865  2.1893
10364SOL     OW35938   4.026   1.828   4.967 -0.0561  0.0196  0.1876
10364SOL    HW135939   4.063   1.740   4.975  0.1358  0.0468 -0.3154
10364SOL    HW235940   4.087   1.874   4.909 -1.5428 -0.3513 -1.8004
10365SOL     OW35941   1.178   7.933   8.229 -0.2095 -0.0939 -0.4009
10365SOL    HW135942   1.266   7.968   8.240 -0.0482 -0.3669 -0.7930
10365SOL    HW235943   1.155   7.897   8.314 -0.4695  1.1582  0.0813
10366SOL     OW35944   8.197   8.367   5.547 -0.0544 -0.0565 -0.7242
10366SOL    HW135945   8.265   8.311   5.507 -0.8325 -1.3885 -0.2568
10366SOL    HW235946   8.115   8.326   5.522 -0.6037 -0.1631  1.1162
10367SOL     OW35947   0.330   8.508   3.877  0.4218 -0.3834 -0.3821
10367SOL    HW135948   0.306   8.445   3.809  0.4231 -1.2978  0.4295
10367SOL    HW235949   0.318   8.459   3.959  1.9551  0.1515  0.1932
10368SOL     OW35950   1.985   3.943   3.841 -0.6224  0.6678  0.5800
10368SOL    HW135951   1.964   4.028   3.879 -2.1730  0.5138  0.1549
10368SOL    HW235952   2.005   3.962   3.750 -1.0548  0.5760  0.4638
10369SOL     OW35953   0.631   6.016   3.790  0.1788 -0.4000 -0.0087
10369SOL    HW135954   0.572   5.943   3.810 -0.0071 -1.1602 -2.8060
10369SOL    HW235955   0.719   5.981   3.803  0.0621 -0.3468  0.9450
10370SOL     OW35956   3.269   7.033   6.661  0.4362  0.1499  0.1158
10370SOL    HW135957   3.182   7.069   6.643  1.0158  1.1563 -0.8504
10370SOL    HW235958   3.268   6.946   6.621  0.1289  0.4815 -0.6233
10371SOL     OW35959   2.802   2.861   9.197  0.1469  0.1601 -0.1818
10371SOL    HW135960   2.767   2.785   9.150  3.2567 -2.0705  0.7687
10371SOL    HW235961   2.875   2.892   9.142  2.4981 -1.1931  1.9945
10372SOL     OW35962   3.113   0.239   7.777 -0.2015 -0.3486  0.0684
10372SOL    HW135963   3.022   0.248   7.748 -0.4306 -0.6373  0.6943
10372SOL    HW235964   3.155   0.190   7.707 -1.6112 -4.4284  1.7673
10373SOL     OW35965   4.460   4.449   8.609  0.0096 -0.8526  0.0427
10373SOL    HW135966   4.385   4.492   8.567 -0.5750 -0.4813  1.4130
10373SOL    HW235967   4.421   4.376   8.657  0.3476 -0.0557  1.6102
10374SOL     OW35968   4.699   7.429   3.882  0.2098 -0.1397  0.1275
10374SOL    HW135969   4.790   7.437   3.910  0.3479 -1.7862  0.2728
10374SOL    HW235970   4.651   7.493   3.935  1.3645  1.2480 -0.4640
10375SOL     OW35971   9.301   5.759   3.471 -0.0278  0.4565 -0.0221
10375SOL    HW135972   9.319   5.733   3.380  1.1567 -1.2726  0.6683
10375SOL    HW235973   9.287   5.854   3.466 -0.8725  0.2878 -2.1216
10376SOL     OW35974   8.004   6.114   5.873 -0.4617 -0.2933  0.2865
10376SOL    HW135975   8.070   6.110   5.943  0.2684  1.0359 -0.2749
10376SOL    HW235976   7.920   6.107   5.918  0.0199 -0.0448  1.2437
10377SOL     OW35977   4.029   5.385   0.892 -0.0352 -0.3345  0.4239
10377SOL    HW135978   3.934   5.382   0.907 -0.0509  2.0707  1.1389
10377SOL    HW235979   4.045   5.314   0.830 -2.3215 -0.6740  0.1196
10378SOL     OW35980   9.354   5.487   3.936  0.5410 -0.6102  0.0324
10378SOL    HW135981   9.360   5.578   3.906  0.6228 -0.1119  1.5069
10378SOL    HW235982   9.379   5.435   3.859  1.6984  0.6552 -0.4931
10379SOL     OW35983   3.719   7.087   2.085  0.3404  0.2003  0.3373
10379SOL    HW135984   3.732   7.050   1.998  1.7718  0.3247  0.4762
10379SOL    HW235985   3.640   7.140   2.077  0.2221 -0.1254 -0.7756
10380SOL     OW35986   8.124   3.897   0.138 -0.7410 -0.5951  0.0607
10380SOL    HW135987   8.201   3.945   0.106 -1.1489 -0.5470 -0.8917
10380SOL    HW235988   8.133   3.899   0.233 -1.7653  3.1786  0.2566
10381SOL     OW35989   5.347   4.399   0.351  0.1898  0.1975  0.5640
10381SOL    HW135990   5.352   4.442   0.436  1.7055 -0.0613  0.6283
10381SOL    HW235991   5.419   4.336   0.351 -0.7029 -0.8731 -0.3411
10382SOL     OW35992   7.827   5.597   7.091 -0.0362  0.6622 -0.2499
10382SOL    HW135993   7.852   5.510   7.059 -0.7087 -0.3281  1.7449
10382SOL    HW235994   7.805   5.646   7.012 -1.5693 -1.5993 -1.3487
10383SOL     OW35995   0.673   7.741   8.069  0.6982 -0.1373  0.1627
10383SOL    HW135996   0.643   7.662   8.115 -0.9461  0.1620 -0.3285
10383SOL    HW235997   0.767   7.745   8.088  0.9854 -2.5873 -0.3495
10384SOL     OW35998   2.332   3.535   2.860 -0.5588  0.1864  0.7168
10384SOL    HW135999   2.303   3.590   2.788 -0.2906  0.4953  0.8448
10384SOL    HW236000   2.369   3.596   2.924  0.9669 -0.2478  0.2816
10385SOL     OW36001   8.565   6.724   3.849  0.0712  0.8077 -0.3515
10385SOL    HW136002   8.641   6.667   3.846 -0.2459  0.3485  0.0967
10385SOL    HW236003   8.554   6.754   3.759  0.4304  0.4016 -0.5341
10386SOL     OW36004   5.404   0.637   0.264  0.2281  0.3170 -0.1375
10386SOL    HW136005   5.369   0.693   0.334 -0.9349  1.7741 -1.7938
10386SOL    HW236006   5.336   0.572   0.249 -1.2624  2.2096 -2.2931
10387SOL     OW36007   9.030   5.183   2.346 -0.4109 -0.2837 -0.3338
10387SOL    HW136008   8.946   5.212   2.309 -0.6442 -0.0301  0.3859
10387SOL    HW236009   9.070   5.263   2.380  0.2061 -0.3751 -0.8164
10388SOL     OW36010   5.611   6.248   4.987 -0.7097  0.0167 -0.2405
10388SOL    HW136011   5.533   6.260   5.041 -0.5373  0.3532 -0.0624
10388SOL    HW236012   5.658   6.176   5.028 -0.2798  0.6607  0.4183
10389SOL     OW36013   9.552   6.304   7.363 -0.2389 -0.1191 -0.3553
10389SOL    HW136014   9.644   6.326   7.351 -0.2770 -0.6558 -1.9144
10389SOL    HW236015   9.552   6.217   7.402 -0.0709 -0.3429 -0.8464
10390SOL     OW36016   1.837   3.865   3.302 -0.1130 -0.6228  0.1147
10390SOL    HW136017   1.802   3.888   3.216 -0.2600 -1.2039  0.0141
10390SOL    HW236018   1.760   3.853   3.357 -0.0284 -0.5896  0.2404
10391SOL     OW36019   6.451   1.227   6.138 -0.3070  0.4090  0.0547
10391SOL    HW136020   6.380   1.178   6.097  0.4858 -0.5181 -0.2562
10391SOL    HW236021   6.470   1.178   6.219  0.7504 -0.0396 -0.4476
10392SOL     OW36022   8.419   3.422   0.302 -0.3637  0.4582 -0.0655
10392SOL    HW136023   8.433   3.362   0.229 -0.2281 -1.1243  1.1922
10392SOL    HW236024   8.324   3.433   0.306 -1.0218 -3.6969  2.5645
10393SOL     OW36025   4.391   5.527   6.764  0.4060 -0.2660  0.1787
10393SOL    HW136026   4.325   5.459   6.780  0.0414  0.4365  1.8480
10393SOL    HW236027   4.399   5.573   6.847  1.4207  1.0697 -0.6156
10394SOL     OW36028   0.027   7.011   6.365 -0.2522  0.1392  0.7830
10394SOL    HW136029  -0.007   6.921   6.366  1.7420 -0.7018 -0.6886
10394SOL    HW236030   0.106   7.006   6.419  0.5035  0.6971 -0.2391
10395SOL     OW36031   1.148   3.507   0.781 -0.3761  0.1106 -0.0958
10395SOL    HW136032   1.061   3.468   0.791  0.2426 -1.1460  0.7005
10395SOL    HW236033   1.187   3.459   0.708  0.0605 -0.1498  0.3013
10396SOL     OW36034   5.172   7.383   8.917 -0.2977  0.1036  0.0887
10396SOL    HW136035   5.096   7.352   8.967 -0.0041 -0.2827  0.3023
10396SOL    HW236036   5.147   7.470   8.886 -1.5850 -0.7717 -1.4755
10397SOL     OW36037   5.083   5.116   2.598 -0.4405 -0.1909  0.0251
10397SOL    HW136038   5.028   5.053   2.551 -0.5293 -1.2512  1.4792
10397SOL    HW236039   5.038   5.130   2.681  0.1089  1.0336  0.1343
10398SOL     OW36040   1.661   1.394   4.985 -0.8377 -0.3707  0.5844
10398SOL    HW136041   1.720   1.397   4.910 -1.1247  2.4496  0.3628
10398SOL    HW236042   1.714   1.422   5.059 -1.1391 -0.8948  1.0128
10399SOL     OW36043   0.937   3.972   1.237 -0.0178 -0.0451 -0.9374
10399SOL    HW136044   0.954   4.032   1.164  1.3752  1.1903  0.3279
10399SOL    HW236045   0.975   3.889   1.209  3.0769  1.1314 -0.5966
10400SOL     OW36046   7.657   0.216   3.399 -0.2414  0.2450 -0.5337
10400SOL    HW136047   7.700   0.142   3.442 -1.4047  0.8949  1.9499
10400SOL    HW236048   7.576   0.179   3.363 -0.9117  0.2902  0.8636
10401SOL     OW36049   0.776   4.111   1.401 -0.1193  0.5256 -0.5333
10401SOL    HW136050   0.827   4.041   1.360  0.2235  0.5503 -0.1530
10401SOL    HW236051   0.831   4.190   1.391  0.0870  0.4837  0.1936
10402SOL     OW36052   1.569   0.942   2.345  0.2835  0.0192  0.3904
10402SOL    HW136053   1.506   1.005   2.378 -0.0180  0.6997 -1.4161
10402SOL    HW236054   1.655   0.981   2.364  0.1371  0.1550  0.7884
10403SOL     OW36055   9.157   4.864   9.462 -0.4049 -0.1478 -0.4010
10403SOL    HW136056   9.252   4.856   9.451 -0.3942  0.3198 -0.6885
10403SOL    HW236057   9.122   4.851   9.374 -0.5819  0.0582 -0.3612
10404SOL     OW36058   0.469   7.405   8.655  0.0352 -0.7613 -0.1970
10404SOL    HW136059   0.483   7.380   8.746  1.1650 -0.1504 -0.1813
10404SOL    HW236060   0.542   7.365   8.607  0.2562  0.0734 -0.5949
10405SOL     OW36061   6.059   7.235   5.925 -0.3277 -0.4512  0.4576
10405SOL    HW136062   6.005   7.292   5.980 -0.5089 -0.5519  0.3852
10405SOL    HW236063   6.015   7.236   5.839  1.0606  1.3380 -0.3055
10406SOL     OW36064   7.876   9.654   1.407 -0.1808 -0.0405 -0.1083
10406SOL    HW136065   7.916   9.739   1.391 -0.3778  0.2311  0.8014
10406SOL    HW236066   7.924   9.618   1.481 -1.4049  0.1781  0.8328
10407SOL     OW36067   1.819   8.248   4.416 -0.0563 -0.0206 -0.3426
10407SOL    HW136068   1.764   8.174   4.441 -0.5226  0.3296 -0.3334
10407SOL    HW236069   1.842   8.231   4.325  2.0347 -1.5519  0.3730
10408SOL     OW36070   9.420   7.102   0.741  0.5348  0.5907 -0.1271
10408SOL    HW136071   9.427   7.076   0.833  2.4909  0.1023 -0.3726
10408SOL    HW236072   9.377   7.188   0.744  1.5015  1.0656  1.3435
10409SOL     OW36073   6.269   5.535   1.074 -0.3028  0.2924  0.1982
10409SOL    HW136074   6.267   5.566   1.165 -0.1858  1.5491 -0.2013
10409SOL    HW236075   6.347   5.576   1.037 -1.1944  1.0833 -0.8742
10410SOL     OW36076   5.412   2.284   8.094 -0.3243  0.1294 -0.0297
10410SOL    HW136077   5.326   2.316   8.122  0.4400  0.1805  2.6013
10410SOL    HW236078   5.474   2.330   8.151  1.1794 -2.4518  0.5874
10411SOL     OW36079   5.200   0.214   8.047 -0.3836 -0.1038  0.1214
10411SOL    HW136080   5.117   0.239   8.007  0.1058 -0.6005 -1.2487
10411SOL    HW236081   5.266   0.264   7.999  0.0829  1.0175  1.8109
10412SOL     OW36082   0.215   5.924   6.795  0.9570  0.7195  0.5905
10412SOL    HW136083   0.286   5.910   6.732  1.5057  0.3909  1.2629
10412SOL    HW236084   0.235   5.863   6.866 -0.6018 -0.1597  0.3045
10413SOL     OW36085   0.460   4.992   6.062  0.0922 -0.0432 -0.6610
10413SOL    HW136086   0.470   4.958   6.151 -0.7979  0.0182 -0.5305
10413SOL    HW236087   0.451   5.087   6.073 -0.8315 -0.1083 -0.7343
10414SOL     OW36088   5.147   5.162   2.024 -0.2685  0.7960  0.1028
10414SOL    HW136089   5.078   5.176   2.089  0.5702  1.3074  0.9089
10414SOL    HW236090   5.120   5.084   1.976 -0.4749 -0.1157  1.6596
10415SOL     OW36091   9.696   6.875   3.894 -0.2004 -0.4888  0.2262
10415SOL    HW136092   9.722   6.882   3.802 -2.0073 -1.1628 -0.3583
10415SOL    HW236093   9.729   6.789   3.922 -0.1810 -0.5422  0.0388
10416SOL     OW36094   6.015   8.196   2.409  0.1753 -1.0559  0.8613
10416SOL    HW136095   5.963   8.173   2.487  1.9060  0.5145  2.6044
10416SOL    HW236096   6.106   8.192   2.440  0.8271  1.4567 -0.5299
10417SOL     OW36097   4.342   9.392   3.073  0.5276 -0.5197  0.1201
10417SOL    HW136098   4.261   9.356   3.110  0.2176  0.8122  0.8052
10417SOL    HW236099   4.340   9.484   3.096  0.6884  0.2612 -2.6104
10418SOL     OW36100   4.927   4.573   9.182  0.0235 -0.0212  0.5574
10418SOL    HW136101   4.971   4.651   9.147  3.4010 -1.2746  1.5520
10418SOL    HW236102   4.931   4.509   9.110  1.1070 -0.5441  1.0533
10419SOL     OW36103   0.432   8.178   0.436 -0.1184  0.5457 -0.1525
10419SOL    HW136104   0.443   8.273   0.427  0.0466  0.4362 -1.1535
10419SOL    HW236105   0.383   8.168   0.518 -0.5563  1.5189 -0.2755
10420SOL     OW36106   3.949   9.665   1.690  0.5766  0.0227 -0.2735
10420SOL    HW136107   4.024   9.689   1.744 -0.3827  0.5023  0.8859
10420SOL    HW236108   3.950   9.729   1.619  1.7413 -0.4942 -0.7445
10421SOL     OW36109   0.161   1.604   4.128 -0.1862 -0.0687  0.0358
10421SOL    HW136110   0.116   1.608   4.043  0.3106 -1.6198 -0.3291
10421SOL    HW236111   0.246   1.563   4.108  0.9258  1.6869  0.9078
10422SOL     OW36112   7.602   6.900   8.629 -0.7390  0.3232 -0.8262
10422SOL    HW136113   7.595   6.970   8.565  0.7976  0.6780 -0.6600
10422SOL    HW236114   7.565   6.936   8.709  0.5252  1.1716 -0.5976
10423SOL     OW36115   0.841   3.687   0.507  0.1293  0.2401 -0.1794
10423SOL    HW136116   0.826   3.623   0.576  0.2787  0.9055  0.4831
10423SOL    HW236117   0.786   3.761   0.531  1.6699  1.2690  0.3198
10424SOL     OW36118   3.799   5.237   3.407 -0.0499 -0.2598 -0.0265
10424SOL    HW136119   3.874   5.291   3.430  0.9187 -2.2551  1.8458
10424SOL    HW236120   3.834   5.175   3.342 -1.1266  1.1592 -2.0994
10425SOL     OW36121   1.705   7.836   9.072 -0.8067  0.0524  0.5575
10425SOL    HW136122   1.643   7.802   9.007 -0.3311  1.5008 -0.7404
10425SOL    HW236123   1.656   7.904   9.118  0.2045  2.6003 -1.7897
10426SOL     OW36124   2.738   1.103   5.190 -0.1494 -0.0618  0.2961
10426SOL    HW136125   2.718   1.175   5.250  1.2395  0.9846 -0.4362
10426SOL    HW236126   2.796   1.045   5.241 -0.4945 -0.1729  0.5698
10427SOL     OW36127   1.508   4.890   6.556 -0.3492 -0.6425 -0.5551
10427SOL    HW136128   1.530   4.983   6.557  1.2811 -0.9634  1.4854
10427SOL    HW236129   1.413   4.888   6.567 -0.3319  0.7814  0.1391
10428SOL     OW36130   2.972   9.696   4.599 -0.2494 -0.3258  0.3612
10428SOL    HW136131   2.927   9.751   4.536 -0.9303 -0.7031  0.5097
10428SOL    HW236132   3.041   9.652   4.549  0.2275  0.5670  0.2208
10429SOL     OW36133   5.985   1.194   4.825  0.0962 -0.2583 -0.0625
10429SOL    HW136134   5.938   1.127   4.875 -0.6566  1.0738  1.0785
10429SOL    HW236135   6.039   1.238   4.891  0.8476  0.0381 -0.8651
10430SOL     OW36136   3.949   7.829   2.609 -0.4216  0.3401 -0.1798
10430SOL    HW136137   3.935   7.910   2.657  1.3338  1.6091 -1.6659
10430SOL    HW236138   3.941   7.760   2.674  1.6627  1.9556  1.9381
10431SOL     OW36139   0.770   4.166   4.135  0.1105 -0.8113 -0.5878
10431SOL    HW136140   0.775   4.102   4.064  2.4565 -2.3733  0.8294
10431SOL    HW236141   0.847   4.148   4.189 -1.2119  0.7147  2.0164
10432SOL     OW36142   3.032   9.179   5.817  0.5735 -0.1562  0.3112
10432SOL    HW136143   3.120   9.160   5.849  1.3644  2.2737 -0.1894
10432SOL    HW236144   3.008   9.102   5.766  1.7809 -1.5028  1.6825
10433SOL     OW36145   1.558   6.736   5.042  0.5057 -0.2649  0.1820
10433SOL    HW136146   1.509   6.675   4.987  1.1371  0.2766 -1.0290
10433SOL    HW236147   1.629   6.684   5.079 -0.9095 -1.0613  1.9618
10434SOL     OW36148   5.582   0.263   0.112 -1.1601  0.2987 -0.1966
10434SOL    HW136149   5.552   0.189   0.166 -1.8400  0.5235 -0.2595
10434SOL    HW236150   5.677   0.263   0.123 -1.2851  0.3817  1.0693
10435SOL     OW36151   2.767   5.866   9.138 -0.1672  0.0103  0.2979
10435SOL    HW136152   2.726   5.947   9.109  1.2628  1.2736  1.6837
10435SOL    HW236153   2.768   5.872   9.233  3.3843  0.1738  0.3656
10436SOL     OW36154   2.853   7.292   4.242 -0.4501  0.5829  0.0422
10436SOL    HW136155   2.844   7.205   4.205 -0.9575  0.6153  0.0783
10436SOL    HW236156   2.763   7.325   4.248 -0.1831  1.5320 -0.9742
10437SOL     OW36157   4.907   1.396   0.280  0.6836 -0.1815 -0.4174
10437SOL    HW136158   4.894   1.374   0.188 -0.5738 -0.5531 -0.1625
10437SOL    HW236159   4.996   1.431   0.283  0.9940 -0.7923 -1.6514
10438SOL     OW36160   7.814   8.761   6.349 -0.0880  0.1895 -0.3997
10438SOL    HW136161   7.835   8.793   6.261 -3.0141  0.1977 -1.2080
10438SOL    HW236162   7.747   8.694   6.334 -1.0022  0.5369  1.8541
10439SOL     OW36163   8.021   2.856   3.645 -0.3382  0.3283 -0.0493
10439SOL    HW136164   7.978   2.847   3.560  0.0537 -0.0587 -0.2056
10439SOL    HW236165   8.018   2.950   3.663 -2.5570  0.1891  0.6148
10440SOL     OW36166   6.176   4.260   7.599 -0.2149 -0.7812 -0.0119
10440SOL    HW136167   6.264   4.276   7.631 -0.8713  0.4959  1.2155
10440SOL    HW236168   6.177   4.292   7.509  0.1425  0.7871  0.5180
10441SOL     OW36169   3.202   8.517   6.207 -0.1260  0.2897  0.1808
10441SOL    HW136170   3.290   8.542   6.181  0.4702  1.2444  2.8129
10441SOL    HW236171   3.180   8.577   6.279 -2.8019 -0.1374 -0.1672
10442SOL     OW36172   9.630   2.917   5.800 -0.5002 -0.2646  0.3623
10442SOL    HW136173   9.643   2.822   5.809 -1.1185 -0.2800  1.2510
10442SOL    HW236174   9.708   2.956   5.837 -0.4927 -0.4211  0.5120
10443SOL     OW36175   7.534   2.061   4.289 -0.4678  0.6355 -0.0335
10443SOL    HW136176   7.443   2.062   4.317 -0.2188  2.7150  0.9069
10443SOL    HW236177   7.572   2.140   4.328  2.5611 -1.7057  2.3769
10444SOL     OW36178   6.554   6.933   7.161 -0.0418 -0.1618 -0.0628
10444SOL    HW136179   6.558   6.976   7.246 -0.2114  0.5391 -0.3993
10444SOL    HW236180   6.509   6.996   7.104 -0.2952 -0.7854 -0.5692
10445SOL     OW36181   8.076   4.009   5.776  0.4048  0.9018 -0.1771
10445SOL    HW136182   8.124   3.938   5.733 -1.7172 -0.6594 -0.1103
10445SOL    HW236183   8.144   4.062   5.816  2.1454 -0.5110 -1.0930
10446SOL     OW36184   4.204   2.697   4.651 -0.8116  0.5462 -0.2571
10446SOL    HW136185   4.179   2.645   4.575 -1.0366 -0.5074  0.5128
10446SOL    HW236186   4.147   2.774   4.647 -0.9963  0.3770 -1.0092
10447SOL     OW36187   7.744   5.903   7.655  0.4973  0.1233  0.2958
10447SOL    HW136188   7.816   5.914   7.716 -0.1540  0.2695  1.0534
10447SOL    HW236189   7.704   5.990   7.649 -1.5649 -0.5730  2.3885
10448SOL     OW36190   8.359   6.239   8.684 -0.1333 -0.5624  0.2843
10448SOL    HW136191   8.354   6.203   8.596 -2.6469  0.7808 -0.2213
10448SOL    HW236192   8.282   6.203   8.729 -0.9650  1.6048  0.7266
10449SOL     OW36193   1.370   2.626   2.965 -0.6108  0.1647  0.2750
10449SOL    HW136194   1.393   2.574   2.888  0.3097 -0.7268  1.1218
10449SOL    HW236195   1.446   2.682   2.981 -1.4378  1.5331 -0.3958
10450SOL     OW36196   4.852   6.419   9.729  0.3119 -0.5179  0.2498
10450SOL    HW136197   4.851   6.499   9.781  0.8823 -0.0499 -0.4522
10450SOL    HW236198   4.761   6.406   9.704 -0.1592 -1.2698  2.1192
10451SOL     OW36199   0.761   2.872   4.467 -0.1743 -0.7204  0.1440
10451SOL    HW136200   0.775   2.862   4.561  1.1815  0.8428  0.1621
10451SOL    HW236201   0.792   2.790   4.429 -1.6472 -1.7622  1.0980
10452SOL     OW36202   8.587   5.717   8.896 -0.2328  0.2567  0.8830
10452SOL    HW136203   8.587   5.793   8.954 -2.2403  0.1403  1.1099
10452SOL    HW236204   8.592   5.642   8.954 -1.5346  0.1588  0.8952
10453SOL     OW36205   1.335   0.489   2.454  0.0717  0.1538 -0.4107
10453SOL    HW136206   1.340   0.411   2.398  0.9176 -0.2426  0.2102
10453SOL    HW236207   1.414   0.487   2.507 -0.2560  1.0413  0.1459
10454SOL     OW36208   2.048   7.892   4.066  0.0881  0.2965 -0.1830
10454SOL    HW136209   1.963   7.925   4.038  0.2258 -1.0083 -2.3641
10454SOL    HW236210   2.028   7.830   4.137 -0.5062  1.8869  1.0839
10455SOL     OW36211   2.385   3.715   3.634 -0.2084 -0.5625  0.2787
10455SOL    HW136212   2.378   3.801   3.676 -0.7723 -1.5137  2.2562
10455SOL    HW236213   2.370   3.652   3.705 -2.3260 -2.2791 -1.5344
10456SOL     OW36214   6.536   4.572   0.532  0.2244  0.4522  0.4550
10456SOL    HW136215   6.567   4.590   0.621  1.0905 -0.2582  0.3148
10456SOL    HW236216   6.606   4.603   0.475 -0.4940  1.2587 -0.0091
10457SOL     OW36217   8.105   8.667   4.643 -0.1564  0.1689  0.1903
10457SOL    HW136218   8.017   8.647   4.609  0.1314  2.0499 -1.9835
10457SOL    HW236219   8.093   8.748   4.692  0.3170  0.3708 -0.0201
10458SOL     OW36220   9.015   9.462   6.803 -0.0013 -0.1900 -0.1115
10458SOL    HW136221   9.071   9.395   6.765 -1.4669 -1.0299 -0.9006
10458SOL    HW236222   9.036   9.542   6.755  2.3321  0.1742  1.3784
10459SOL     OW36223   1.347   2.245   7.530 -0.2462 -0.5169 -0.0018
10459SOL    HW136224   1.411   2.193   7.482 -2.0952 -1.8397 -1.1736
10459SOL    HW236225   1.322   2.315   7.469 -1.6763 -1.4607 -0.5447
10460SOL     OW36226   4.309   5.301   3.339  0.0663 -0.0388  0.4877
10460SOL    HW136227   4.238   5.264   3.285  0.1107  1.7279 -0.8575
10460SOL    HW236228   4.382   5.241   3.327 -0.5728 -0.7967  0.2786
10461SOL     OW36229   3.686   8.990   2.018  0.0654  1.0210  0.1590
10461SOL    HW136230   3.776   8.963   2.036 -0.6581 -1.3238  0.5700
10461SOL    HW236231   3.693   9.083   1.996  2.6982  0.6649 -0.8508
10462SOL     OW36232   6.475   0.159   2.253 -0.4970 -0.6868  0.5842
10462SOL    HW136233   6.563   0.120   2.250 -0.5213 -0.6744 -0.9121
10462SOL    HW236234   6.473   0.206   2.336  1.6161  0.9195 -0.1920
10463SOL     OW36235   5.061   0.841   5.821  0.3755  0.1934  0.8890
10463SOL    HW136236   5.022   0.830   5.908 -1.3585  1.2228  0.3046
10463SOL    HW236237   5.002   0.793   5.763  1.4913 -0.4442  0.2691
10464SOL     OW36238   6.817   2.316   0.119  0.0395 -0.2899 -0.0506
10464SOL    HW136239   6.827   2.356   0.033  0.8467  0.0297  0.1781
10464SOL    HW236240   6.818   2.389   0.180  0.7556 -0.6008  0.3200
10465SOL     OW36241   9.197   4.005   1.950  1.0372 -0.1543  0.1823
10465SOL    HW136242   9.217   3.955   1.871  1.2211 -0.1949  0.2549
10465SOL    HW236243   9.267   4.069   1.956  0.0937  1.0072 -0.6552
10466SOL     OW36244   8.569   5.765   2.549  0.5774  0.7990 -0.0351
10466SOL    HW136245   8.519   5.833   2.504 -1.3093 -0.4792  0.0350
10466SOL    HW236246   8.588   5.803   2.635 -2.2335  0.5540  0.7804
10467SOL     OW36247   8.248   4.479   8.211  0.1346  0.7760  0.1237
10467SOL    HW136248   8.187   4.551   8.224 -1.3102  0.1557 -2.5874
10467SOL    HW236249   8.203   4.403   8.247 -0.9544  0.2546 -2.1869
10468SOL     OW36250   1.682   4.503   7.662  0.2395 -0.0994  0.6928
10468SOL    HW136251   1.676   4.457   7.578  1.7561  0.4243  0.2673
10468SOL    HW236252   1.650   4.440   7.726 -0.4800 -0.6871 -0.2106
10469SOL     OW36253   1.078   1.707   8.737  0.1506  0.3407  0.6639
10469SOL    HW136254   1.032   1.646   8.795  0.3619 -0.9927 -0.5342
10469SOL    HW236255   1.164   1.668   8.723  0.4828  1.1746  0.2735
10470SOL     OW36256   9.491   3.056   8.224 -0.0771 -0.3895 -0.6527
10470SOL    HW136257   9.557   3.031   8.288  1.2061 -2.2812 -2.5700
10470SOL    HW236258   9.420   2.992   8.237 -0.5552  0.2475 -0.0696
10471SOL     OW36259   2.978   1.476   2.003  0.3011 -0.3805  0.3415
10471SOL    HW136260   2.886   1.450   1.994  0.1301 -0.9210  2.8245
10471SOL    HW236261   3.000   1.518   1.920 -1.9265 -1.0136 -0.6314
10472SOL     OW36262   9.695   4.904   4.859  0.2376 -0.1616 -0.8908
10472SOL    HW136263   9.779   4.938   4.890 -0.5959  0.2648  1.0726
10472SOL    HW236264   9.682   4.947   4.774  2.1855 -0.5950 -1.4502
10473SOL     OW36265   0.245   4.720   5.122 -0.0535 -0.2608 -0.3790
10473SOL    HW136266   0.187   4.753   5.191 -0.9057 -1.0806 -0.6734
10473SOL    HW236267   0.195   4.649   5.081  0.4686  0.1323 -1.7670
10474SOL     OW36268   7.206   5.855   8.846 -0.1124  0.0340  0.5092
10474SOL    HW136269   7.250   5.772   8.864  0.1046  0.3409  1.4352
10474SOL    HW236270   7.115   5.831   8.828  0.0488 -0.4424  0.3293
10475SOL     OW36271   2.629   3.153   3.105 -0.0560 -0.1113  0.3626
10475SOL    HW136272   2.572   3.114   3.171  0.8659 -0.7339  0.8232
10475SOL    HW236273   2.601   3.244   3.099 -1.2903 -0.4806  0.3461
10476SOL     OW36274   2.791   7.401   0.420 -0.2104  0.0059  0.0004
10476SOL    HW136275   2.772   7.388   0.327  0.6104 -2.4426  0.1131
10476SOL    HW236276   2.816   7.315   0.452 -1.2915  0.5970  2.7194
10477SOL     OW36277   4.464   0.846   9.055 -0.3515  0.0307  0.0439
10477SOL    HW136278   4.444   0.834   8.962 -0.6939 -0.8047  0.2209
10477SOL    HW236279   4.498   0.935   9.060 -0.1328  0.0151 -0.9146
10478SOL     OW36280   5.670   4.484   8.077  0.1448  0.0825 -0.4534
10478SOL    HW136281   5.706   4.556   8.128 -0.7542 -0.3045  0.7604
10478SOL    HW236282   5.716   4.406   8.108 -0.6122 -0.1946 -0.0096
10479SOL     OW36283   1.566   8.638   1.694  0.2000  0.7633 -0.6096
10479SOL    HW136284   1.630   8.705   1.719 -1.0599  1.2585  1.5244
10479SOL    HW236285   1.584   8.565   1.753  1.2438 -0.6412 -2.5933
10480SOL     OW36286   1.376   5.196   7.018 -0.2785  0.3891 -0.0216
10480SOL    HW136287   1.446   5.261   7.008  0.4178 -0.5508 -1.7355
10480SOL    HW236288   1.389   5.136   6.945 -1.1770 -1.4439  1.2531
10481SOL     OW36289   1.049   4.908   6.089  0.3391  0.0791  0.2948
10481SOL    HW136290   0.960   4.941   6.077  0.1199 -0.1475  1.2386
10481SOL    HW236291   1.086   4.962   6.158  1.3881  1.0089 -0.9448
10482SOL     OW36292   1.668   0.622   5.344  0.1789  0.0826  0.4294
10482SOL    HW136293   1.703   0.702   5.305  0.8718 -0.9798 -1.2200
10482SOL    HW236294   1.648   0.646   5.435  1.6869  1.7318  0.3651
10483SOL     OW36295   3.405   2.987   4.281 -0.5392 -0.2073  0.0747
10483SOL    HW136296   3.500   2.994   4.269 -0.4273 -2.1731 -0.6018
10483SOL    HW236297   3.395   2.926   4.354 -1.2816 -0.1806 -0.0010
10484SOL     OW36298   9.585   8.396   9.549 -0.6086 -0.3191 -0.9965
10484SOL    HW136299   9.603   8.475   9.600  0.2403  0.3403 -2.2740
10484SOL    HW236300   9.652   8.334   9.577 -0.1768  0.0217 -1.2785
10485SOL     OW36301   0.358   3.400   4.877 -0.0904  0.3770 -0.1247
10485SOL    HW136302   0.444   3.435   4.852  0.1569 -0.2378 -0.1394
10485SOL    HW236303   0.345   3.432   4.966  0.2569  0.2865 -0.0379
10486SOL     OW36304   3.905   2.886   1.844 -0.5548 -0.1571 -0.4322
10486SOL    HW136305   3.957   2.933   1.778 -1.7625  1.0421 -0.5891
10486SOL    HW236306   3.954   2.897   1.925  1.0512 -1.8162 -1.1266
10487SOL     OW36307   3.210   2.053   0.670  0.0020 -0.5284 -0.3823
10487SOL    HW136308   3.219   2.147   0.685  0.2601 -0.6124  0.0177
10487SOL    HW236309   3.164   2.021   0.748 -0.7966 -0.6135 -0.8831
10488SOL     OW36310   6.885   4.979   3.896  0.7689  0.1562 -0.1041
10488SOL    HW136311   6.966   4.945   3.857  0.8308 -1.1887  1.0888
10488SOL    HW236312   6.816   4.928   3.853  0.7300 -0.2319  0.4070
10489SOL     OW36313   8.857   6.877   7.607  0.3693  0.1947  0.0503
10489SOL    HW136314   8.934   6.934   7.615  0.0722  0.5608  0.3401
10489SOL    HW236315   8.893   6.789   7.603  0.9829  0.4833 -2.5045
10490SOL     OW36316   3.615   2.234   8.056 -0.1354 -0.0927  0.1887
10490SOL    HW136317   3.548   2.180   8.015 -1.1010  0.5812  0.8309
10490SOL    HW236318   3.599   2.226   8.150  0.5656  0.2285  0.3458
10491SOL     OW36319   7.427   3.540   0.385  0.5518  0.5305 -0.0388
10491SOL    HW136320   7.495   3.487   0.427 -0.9944 -0.7918  0.9080
10491SOL    HW236321   7.366   3.475   0.348 -0.5697  1.6606 -0.2348
10492SOL     OW36322   5.318   4.772   4.365  0.3755 -0.2039  0.1610
10492SOL    HW136323   5.353   4.721   4.292  0.2679  0.7619 -0.5927
10492SOL    HW236324   5.388   4.833   4.388 -0.1901  0.6492 -0.2896
10493SOL     OW36325   2.124   1.778   0.833 -0.1999 -0.3693 -1.0994
10493SOL    HW136326   2.033   1.752   0.817 -0.9284 -0.1086  1.8718
10493SOL    HW236327   2.130   1.868   0.802 -1.1687 -0.1829 -0.7769
10494SOL     OW36328   5.249   1.106   5.956  0.5594  0.0449  0.1467
10494SOL    HW136329   5.336   1.088   5.921 -0.0697 -2.3042 -0.4547
10494SOL    HW236330   5.198   1.133   5.880 -0.6260 -4.3745 -0.9467
10495SOL     OW36331   5.360   0.821   0.467  0.2477  0.6831 -0.2415
10495SOL    HW136332   5.383   0.914   0.462  1.9759  0.2897 -0.0402
10495SOL    HW236333   5.286   0.818   0.527 -1.4706  2.1824 -2.1457
10496SOL     OW36334   9.121   3.070   4.425 -0.2071  0.0273  0.2816
10496SOL    HW136335   9.046   3.016   4.451 -0.7932  1.0222  0.6939
10496SOL    HW236336   9.150   3.031   4.343 -0.1765 -1.3413  0.9146
10497SOL     OW36337   8.611   8.301   6.616  1.2999  0.1720  0.2896
10497SOL    HW136338   8.585   8.290   6.707  0.2621  1.0400  0.1135
10497SOL    HW236339   8.549   8.246   6.567  1.2972  0.4043  0.0323
10498SOL     OW36340   7.183   1.562   4.996 -0.6855  0.1741  0.3832
10498SOL    HW136341   7.271   1.596   5.013 -0.9540 -0.4455  3.8959
10498SOL    HW236342   7.129   1.640   4.985 -0.0680  0.6486  0.6687
10499SOL     OW36343   6.535   4.314   6.546  0.9477 -0.4011 -0.4057
10499SOL    HW136344   6.456   4.353   6.583  1.7814 -1.7085  3.1407
10499SOL    HW236345   6.504   4.259   6.474 -1.2729 -0.2788  0.3801
10500SOL     OW36346   1.020   3.386   7.965  0.5697 -0.3556 -0.0372
10500SOL    HW136347   1.024   3.291   7.969 -0.2933 -0.4055 -0.3442
10500SOL    HW236348   0.927   3.408   7.971  0.8492  0.5490  1.6939
10501SOL     OW36349   9.307   2.659   9.727 -0.2523  0.0666 -0.1128
10501SOL    HW136350   9.284   2.640   9.818 -0.3153 -0.7887 -0.2923
10501SOL    HW236351   9.390   2.706   9.733  0.2125 -0.7726  0.3650
10502SOL     OW36352   4.750   3.737   3.120  0.1507 -0.3849 -0.1199
10502SOL    HW136353   4.705   3.689   3.190  0.9363  0.0444  0.7061
10502SOL    HW236354   4.752   3.677   3.047 -0.8320 -0.7947  0.1671
10503SOL     OW36355   0.652   6.764   1.389 -0.2501 -0.1432 -0.1776
10503SOL    HW136356   0.560   6.788   1.383 -0.3051 -0.2065  0.3833
10503SOL    HW236357   0.669   6.754   1.482  0.3880  0.1174 -0.2564
10504SOL     OW36358   6.681   7.589   1.016  0.0467 -0.4929  0.0939
10504SOL    HW136359   6.768   7.580   1.055  0.6163  1.0622 -0.7561
10504SOL    HW236360   6.695   7.578   0.922 -0.2356  2.0400 -0.3136
10505SOL     OW36361   1.461   2.726   4.382  0.2550 -0.0492 -0.0907
10505SOL    HW136362   1.524   2.798   4.374  1.9136 -1.1779  1.9284
10505SOL    HW236363   1.473   2.675   4.303  0.7523  0.5933 -0.4401
10506SOL     OW36364   7.132   8.640   2.573 -0.0455  0.5612 -0.0862
10506SOL    HW136365   7.156   8.664   2.484 -0.0212 -0.0887 -0.2553
10506SOL    HW236366   7.197   8.574   2.598  1.1853  2.1270  1.1284
10507SOL     OW36367   8.668   2.620   6.663 -0.1567 -0.6948 -0.5486
10507SOL    HW136368   8.599   2.681   6.689 -1.7034 -1.9521 -1.5112
10507SOL    HW236369   8.683   2.566   6.741  0.3322  0.0900 -0.0869
10508SOL     OW36370   0.483   4.477   9.376 -1.3346 -0.2224 -0.4278
10508SOL    HW136371   0.413   4.439   9.429 -1.1590  1.4730  1.0963
10508SOL    HW236372   0.541   4.519   9.439  1.0574 -1.5038 -1.6495
10509SOL     OW36373   0.390   4.150   5.610  0.4703  0.2190  0.0526
10509SOL    HW136374   0.329   4.218   5.580 -0.8279 -0.3810  1.2043
10509SOL    HW236375   0.354   4.121   5.693  0.3448 -2.6806 -0.9133
10510SOL     OW36376   4.025   5.724   2.026  1.0313  0.1163  0.1744
10510SOL    HW136377   3.945   5.769   2.053  1.1970  1.8637 -2.0227
10510SOL    HW236378   4.010   5.699   1.935  3.1901  1.0352 -0.5002
10511SOL     OW36379   0.025   2.029   2.629  0.2045  0.0223  0.3877
10511SOL    HW136380   0.051   1.942   2.602 -2.3443 -0.4102 -1.0155
10511SOL    HW236381  -0.006   2.018   2.719  0.0460 -0.5018  0.2708
10512SOL     OW36382   3.037   5.172   5.338 -0.5758  0.2652  0.0137
10512SOL    HW136383   3.078   5.123   5.267 -2.5398  0.8037 -1.5662
10512SOL    HW236384   2.960   5.120   5.361  0.7384 -0.6576  2.8379
10513SOL     OW36385   4.206   7.286   9.348  0.0732  0.4842  0.1906
10513SOL    HW136386   4.283   7.269   9.293  0.2267  1.2514  0.1533
10513SOL    HW236387   4.242   7.328   9.426 -0.2793  0.5976  0.2909
10514SOL     OW36388   2.782   4.426   3.094  0.3650 -0.2402 -0.0519
10514SOL    HW136389   2.810   4.387   3.011 -0.2177  0.6896 -0.7019
10514SOL    HW236390   2.756   4.351   3.148 -0.0151 -0.8101 -1.0036
10515SOL     OW36391   3.541   3.034   8.018  0.2019 -0.3831 -0.2916
10515SOL    HW136392   3.498   3.107   7.974  3.1016  0.8079 -1.3646
10515SOL    HW236393   3.568   3.068   8.102 -1.6983 -1.4469  0.8359
10516SOL     OW36394   1.636   8.867   0.511  0.0936  0.2513  0.1947
10516SOL    HW136395   1.696   8.874   0.437 -0.6059 -3.1922 -0.8822
10516SOL    HW236396   1.585   8.948   0.509  2.9685  2.1550 -0.3475
10517SOL     OW36397   8.534   9.334   2.581  0.4459 -0.0371 -0.0093
10517SOL    HW136398   8.539   9.354   2.675 -1.7560 -0.6851  0.3081
10517SOL    HW236399   8.603   9.270   2.567  1.2736  0.5996  1.0158
10518SOL     OW36400   9.642   9.433   4.413 -0.2416  0.1361 -0.0563
10518SOL    HW136401   9.692   9.489   4.472 -1.6126  2.2841 -0.7958
10518SOL    HW236402   9.579   9.388   4.469  0.2750  0.0246  0.4415
10519SOL     OW36403   2.478   6.969   3.754 -0.2646 -0.6885  0.0260
10519SOL    HW136404   2.415   6.917   3.805 -0.4613 -0.9071 -0.4370
10519SOL    HW236405   2.481   6.926   3.669 -1.2643  0.7042 -0.7522
10520SOL     OW36406   1.921   6.865   6.404 -0.1928  0.0932  0.0195
10520SOL    HW136407   1.833   6.829   6.414 -0.2649 -0.0603 -1.0901
10520SOL    HW236408   1.948   6.840   6.316  0.0798  2.0459 -0.4970
10521SOL     OW36409   1.737   0.902   9.593  0.0989 -0.2813 -0.4545
10521SOL    HW136410   1.691   0.946   9.521 -1.3048 -0.0958  0.5099
10521SOL    HW236411   1.686   0.822   9.607 -1.5969  1.1498  2.3472
10522SOL     OW36412   1.885   7.537   8.709 -0.4205 -0.0952  0.2561
10522SOL    HW136413   1.884   7.632   8.715  0.8301  0.1927 -2.5362
10522SOL    HW236414   1.793   7.511   8.712 -0.9421  1.4391 -1.0400
10523SOL     OW36415   6.790   4.440   3.088  0.4423  0.1661 -0.1389
10523SOL    HW136416   6.710   4.465   3.135  0.1033  0.8810 -1.0774
10523SOL    HW236417   6.805   4.349   3.114 -0.6440  0.0412  0.1008
10524SOL     OW36418   5.506   7.717   0.687 -0.0045 -0.6758  0.2164
10524SOL    HW136419   5.502   7.776   0.762 -0.4486 -0.5523  0.0974
10524SOL    HW236420   5.530   7.773   0.613 -0.0268 -0.7170  0.1776
10525SOL     OW36421   8.774   6.024   1.137  0.1810 -0.3669 -0.4085
10525SOL    HW136422   8.722   6.101   1.162 -0.4335 -0.4737 -1.3086
10525SOL    HW236423   8.718   5.976   1.075  1.1910 -0.6884 -1.1077
10526SOL     OW36424   2.493   2.534   7.241  0.0628  0.4781 -0.0515
10526SOL    HW136425   2.461   2.489   7.319 -1.9891  2.1617  0.1628
10526SOL    HW236426   2.417   2.539   7.183  0.7747  1.7893 -0.9316
10527SOL     OW36427   4.219   3.376   4.331  0.0352 -0.5651  0.4161
10527SOL    HW136428   4.130   3.412   4.330 -0.2612 -1.2729  0.6739
10527SOL    HW236429   4.251   3.390   4.241  0.2231  1.0144  0.7064
10528SOL     OW36430   1.403   6.782   1.450  0.6280 -0.6517 -0.2827
10528SOL    HW136431   1.416   6.739   1.366  0.3260  1.9911 -1.8029
10528SOL    HW236432   1.403   6.876   1.430  0.6933  0.1101  2.6996
10529SOL     OW36433   3.813   7.291   8.962 -0.4440  0.3775  0.0435
10529SOL    HW136434   3.878   7.252   8.903 -1.0918 -1.5876  0.5412
10529SOL    HW236435   3.841   7.263   9.049 -1.3407  0.4214  0.3570
10530SOL     OW36436   4.468   7.114   9.346 -0.3292  0.2403  0.1337
10530SOL    HW136437   4.394   7.073   9.391  0.0444  0.5823  1.0874
10530SOL    HW236438   4.544   7.093   9.401 -0.1946  2.7208  1.0354
10531SOL     OW36439   0.325   1.176   9.559 -0.1360  0.1153 -0.0343
10531SOL    HW136440   0.266   1.188   9.484 -1.0012 -0.9268  0.4494
10531SOL    HW236441   0.411   1.200   9.526 -1.1899  5.3816  0.1985
10532SOL     OW36442   5.314   8.921   3.479  0.8988  0.3427 -0.0946
10532SOL    HW136443   5.324   8.830   3.505 -1.9072 -0.2592 -0.8221
10532SOL    HW236444   5.327   8.920   3.384  2.3959  1.0057  0.0800
10533SOL     OW36445   7.037   6.098   2.060 -0.5211  0.0108  0.1764
10533SOL    HW136446   7.044   6.014   2.016  1.5519 -0.3647  1.1466
10533SOL    HW236447   6.945   6.103   2.087 -0.7617 -1.7797 -0.2049
10534SOL     OW36448   8.515   0.400   7.936  0.7148 -0.0447 -0.0056
10534SOL    HW136449   8.517   0.424   8.028  1.6725 -0.8244  0.1991
10534SOL    HW236450   8.452   0.460   7.896  2.2086  2.0842  0.6533
10535SOL     OW36451   0.429   7.579   6.141 -0.2738 -0.2349  0.3200
10535SOL    HW136452   0.365   7.585   6.211 -0.3957  1.6772  0.1078
10535SOL    HW236453   0.489   7.653   6.157 -0.7474  0.7328 -1.9619
10536SOL     OW36454   2.170   5.386   6.001  0.0568 -0.6372 -0.0238
10536SOL    HW136455   2.130   5.299   5.990  3.1509 -2.2747  0.7230
10536SOL    HW236456   2.236   5.392   5.932  0.1189  1.0249  0.1339
10537SOL     OW36457   2.610   3.005   1.091  0.0806 -0.5395 -0.4350
10537SOL    HW136458   2.588   3.035   1.179  1.8196  0.3021 -0.2649
10537SOL    HW236459   2.544   2.938   1.072 -0.4525 -0.5895  1.4124
10538SOL     OW36460   2.369   0.876   5.694 -0.2480  0.3317 -0.7708
10538SOL    HW136461   2.340   0.942   5.631 -2.8011 -0.6309 -0.7476
10538SOL    HW236462   2.360   0.793   5.648 -1.2268 -0.3141  0.4972
10539SOL     OW36463   4.117   1.603   5.871  0.0558  0.2126  0.2038
10539SOL    HW136464   4.153   1.518   5.847 -0.7055 -0.2154  0.5607
10539SOL    HW236465   4.128   1.608   5.966 -0.3139  0.3155  0.2435
10540SOL     OW36466   2.604   7.931   7.089  0.0352 -0.1879 -0.3373
10540SOL    HW136467   2.647   7.849   7.065  0.2807 -0.5190  1.1495
10540SOL    HW236468   2.629   7.993   7.020  2.0861 -0.6349 -0.0501
10541SOL     OW36469   1.693   2.579   6.305  0.3429  0.0930 -0.5391
10541SOL    HW136470   1.709   2.489   6.279 -0.1713  0.7574 -3.4553
10541SOL    HW236471   1.604   2.598   6.275  1.2811  2.2570 -2.2464
10542SOL     OW36472   7.288   6.733   9.395  0.0164  0.4824  0.0544
10542SOL    HW136473   7.277   6.640   9.416 -1.9244  0.2103 -1.8348
10542SOL    HW236474   7.376   6.738   9.358  1.1916 -0.0462  2.5424
10543SOL     OW36475   9.640   9.599   7.542 -0.2857  0.1975 -0.0006
10543SOL    HW136476   9.636   9.690   7.571  0.6870 -0.5993  2.9422
10543SOL    HW236477   9.597   9.549   7.611 -0.6893 -1.6277 -1.4782
10544SOL     OW36478   1.253   0.962   8.981 -0.2239 -0.5337 -0.4520
10544SOL    HW136479   1.293   0.894   8.927 -1.4218 -0.4252 -1.5110
10544SOL    HW236480   1.304   1.040   8.963 -1.9756  0.0757 -3.2826
10545SOL     OW36481   8.190   1.342   0.580  0.1257  0.3068 -0.3189
10545SOL    HW136482   8.182   1.435   0.558 -2.0004 -0.0919 -1.5544
10545SOL    HW236483   8.249   1.307   0.514 -0.3253  0.5044 -0.8356
10546SOL     OW36484   2.581   4.262   2.881 -0.0753  0.1653  0.3224
10546SOL    HW136485   2.570   4.354   2.907  2.6517  1.0287 -1.1223
10546SOL    HW236486   2.676   4.253   2.870 -0.4539 -2.3162 -1.4185
10547SOL     OW36487   4.279   2.074   0.560  0.6826 -0.1646  0.5400
10547SOL    HW136488   4.337   2.080   0.483 -0.3986 -1.3586 -0.4112
10547SOL    HW236489   4.327   2.120   0.629  1.9095  0.5301 -0.7129
10548SOL     OW36490   3.981   5.962   8.069 -0.5183  0.1678  0.3645
10548SOL    HW136491   3.976   5.894   8.136  0.6107 -0.5991 -0.3027
10548SOL    HW236492   4.074   5.983   8.061 -0.6589  0.4544 -0.7538
10549SOL     OW36493   9.222   8.387   6.790 -0.4353  0.4476 -0.7458
10549SOL    HW136494   9.190   8.432   6.711 -0.6107  0.8141 -0.4654
10549SOL    HW236495   9.291   8.329   6.758 -0.1366  0.9965 -1.0916
10550SOL     OW36496   7.334   3.342   0.902  0.0933 -0.5188 -0.8207
10550SOL    HW136497   7.318   3.429   0.939  0.2588 -1.3777  1.3907
10550SOL    HW236498   7.247   3.303   0.895  0.0528 -0.3246 -1.4842
10551SOL     OW36499   0.274   6.924   5.520  0.1736  0.2504 -0.7299
10551SOL    HW136500   0.326   6.961   5.448 -0.7586  2.1943 -0.4651
10551SOL    HW236501   0.241   7.000   5.568 -0.4264 -0.9756  0.9159
10552SOL     OW36502   6.954   1.021   2.618  1.2240  0.6980 -0.4321
10552SOL    HW136503   6.935   1.045   2.708  0.1010  1.0777 -0.7567
10552SOL    HW236504   7.004   0.939   2.625 -0.5171 -0.3575  0.4906
10553SOL     OW36505   7.923   8.746   3.602  0.2359  0.3266  0.1164
10553SOL    HW136506   7.940   8.732   3.509 -1.4397  1.6805 -0.4492
10553SOL    HW236507   7.860   8.679   3.626 -0.1695  0.6585 -0.0143
10554SOL     OW36508   1.624   7.296   6.882 -0.0844 -0.5783  0.3342
10554SOL    HW136509   1.686   7.367   6.867 -1.3100  0.8561  1.7381
10554SOL    HW236510   1.639   7.235   6.809  1.1743  0.9898 -0.7715
10555SOL     OW36511   2.906   4.955   7.705  0.4420  0.3747  0.0447
10555SOL    HW136512   2.891   5.017   7.634 -1.5714  1.1715  1.0608
10555SOL    HW236513   2.997   4.969   7.730  0.2054  2.5952 -0.1149
10556SOL     OW36514   8.505   5.750   7.274 -0.3924 -0.0871  0.7972
10556SOL    HW136515   8.469   5.823   7.324  1.1430  0.5385  1.0328
10556SOL    HW236516   8.542   5.691   7.340 -0.4438 -0.4253  0.5303
10557SOL     OW36517   6.321   0.755   6.085  0.0936 -0.5914  0.2000
10557SOL    HW136518   6.395   0.800   6.125 -0.4792  0.4890  0.0670
10557SOL    HW236519   6.244   0.799   6.119 -0.4539 -0.8594 -0.6635
10558SOL     OW36520   4.852   0.898   3.739  0.0286 -0.3336  0.0625
10558SOL    HW136521   4.931   0.844   3.734  0.0001 -0.5563  1.6371
10558SOL    HW236522   4.874   0.978   3.691  0.7454 -0.9326 -0.6252
10559SOL     OW36523   8.887   5.951   4.424 -0.9070 -0.5524 -0.2827
10559SOL    HW136524   8.838   6.020   4.468  0.8518  0.0709  0.8430
10559SOL    HW236525   8.944   5.997   4.362 -1.5084 -1.2263 -1.3632
10560SOL     OW36526   0.293   0.731   3.710  0.1287 -0.4071  0.0299
10560SOL    HW136527   0.372   0.777   3.685 -0.1611  0.5317  0.7768
10560SOL    HW236528   0.282   0.664   3.643 -0.3290  1.6311 -2.0625
10561SOL     OW36529   4.578   6.938   6.891  0.1303  0.8646  0.5761
10561SOL    HW136530   4.640   6.959   6.821 -1.5945 -0.0936 -1.3487
10561SOL    HW236531   4.577   7.016   6.946  3.0892  0.8700  0.7900
10562SOL     OW36532   6.819   7.142   6.565 -0.2005 -0.6270 -0.0843
10562SOL    HW136533   6.812   7.106   6.654 -0.5397 -0.0165  0.1373
10562SOL    HW236534   6.785   7.231   6.572  2.3792  0.4561 -0.2156
10563SOL     OW36535   5.437   6.267   8.215 -0.1534 -0.6475 -0.3920
10563SOL    HW136536   5.505   6.226   8.161  0.7431 -0.1204  0.3078
10563SOL    HW236537   5.439   6.218   8.297 -0.6343 -0.6414 -0.3738
10564SOL     OW36538   8.021   4.458   0.424  0.2012 -0.6684 -0.3455
10564SOL    HW136539   8.006   4.482   0.332 -0.1321 -1.4440 -0.5004
10564SOL    HW236540   7.935   4.468   0.466  0.6046  0.9035  0.1867
10565SOL     OW36541   1.234   9.510   0.055 -0.6514  0.9358 -0.8036
10565SOL    HW136542   1.315   9.460   0.052 -0.9070  0.5303 -0.9679
10565SOL    HW236543   1.261   9.597   0.087 -0.3608  0.3847  0.5378
10566SOL     OW36544   2.375   9.061   3.361  0.5387 -0.0680  0.0197
10566SOL    HW136545   2.355   9.073   3.268  0.5732  0.2785  0.0562
10566SOL    HW236546   2.469   9.074   3.368  0.6368 -0.7643 -0.0023
10567SOL     OW36547   7.493   2.286   4.828  0.5555 -0.2071  0.1521
10567SOL    HW136548   7.479   2.354   4.763  1.6990 -2.4578 -2.6617
10567SOL    HW236549   7.405   2.264   4.859 -0.0362  0.8483 -0.7036
10568SOL     OW36550   6.744   7.447   2.815  0.5775 -0.4305  0.0240
10568SOL    HW136551   6.788   7.460   2.899  0.3952 -1.5751  0.3141
10568SOL    HW236552   6.813   7.416   2.757  0.4069 -1.0731  0.1581
10569SOL     OW36553   6.643   0.046   5.373 -0.2328 -0.0851 -0.0005
10569SOL    HW136554   6.662   0.047   5.467 -1.3916  2.2630  0.2662
10569SOL    HW236555   6.548   0.056   5.367 -0.2411 -0.7179 -1.4325
10570SOL     OW36556   3.688   1.753   9.460  0.4347 -0.2748  0.4899
10570SOL    HW136557   3.773   1.708   9.452 -0.1491 -1.8293  2.2760
10570SOL    HW236558   3.636   1.696   9.516 -1.5768  1.0047  0.0296
10571SOL     OW36559   4.617   4.848   7.978 -0.0253  0.2146 -0.1535
10571SOL    HW136560   4.640   4.789   7.906 -1.5245  2.0642 -2.2901
10571SOL    HW236561   4.661   4.930   7.956 -0.2435  0.7391  1.2603
10572SOL     OW36562   0.519   3.164   4.020 -0.7221 -0.0401  0.2694
10572SOL    HW136563   0.556   3.093   4.073 -2.6878 -1.2265  0.1666
10572SOL    HW236564   0.537   3.138   3.930 -2.0732 -0.8252  0.2042
10573SOL     OW36565   4.397   0.427   5.389  0.4342  0.2341  0.2338
10573SOL    HW136566   4.339   0.377   5.446  0.1045  0.8779  0.4643
10573SOL    HW236567   4.481   0.426   5.433 -0.1949  2.1416  1.6174
10574SOL     OW36568   2.468   7.990   2.144 -0.2819 -0.1086 -0.0548
10574SOL    HW136569   2.555   8.023   2.121  0.3586 -1.7302 -0.0630
10574SOL    HW236570   2.429   7.966   2.060 -1.4677  2.2127 -0.2408
10575SOL     OW36571   9.344   5.488   3.492  0.3921 -0.4339  0.0912
10575SOL    HW136572   9.348   5.583   3.504  0.8830 -0.4342 -0.0180
10575SOL    HW236573   9.427   5.457   3.529 -0.3353 -0.9605  1.3588
10576SOL     OW36574   0.783   1.639   0.968  0.4965 -0.4243  0.3283
10576SOL    HW136575   0.724   1.657   0.895  0.8628  2.6086  0.6612
10576SOL    HW236576   0.749   1.692   1.041  1.1607 -1.9988  1.8706
10577SOL     OW36577   9.028   7.988   8.814 -0.2273 -0.0303 -0.5477
10577SOL    HW136578   9.085   7.913   8.830 -1.3380 -0.9252 -0.6870
10577SOL    HW236579   9.031   8.000   8.719  1.0889  1.0431 -0.3957
10578SOL     OW36580   5.712   6.920   9.578 -0.0128  0.2734  0.2850
10578SOL    HW136581   5.621   6.889   9.567 -0.7837  2.6979 -0.8539
10578SOL    HW236582   5.717   6.946   9.670 -0.4944  0.1527  0.3515
10579SOL     OW36583   0.384   8.513   4.586 -0.0073 -0.2626 -0.7926
10579SOL    HW136584   0.387   8.418   4.578 -0.3112 -0.4620  1.0722
10579SOL    HW236585   0.423   8.531   4.671  0.9078  1.3732 -1.5136
10580SOL     OW36586   9.382   6.711   8.495 -0.8151 -0.1454 -0.6378
10580SOL    HW136587   9.474   6.729   8.477 -1.0336  0.7010 -0.9437
10580SOL    HW236588   9.334   6.760   8.428 -1.5198  0.0818  0.0106
10581SOL     OW36589   7.189   9.518   8.978 -0.2785 -0.0588 -0.1769
10581SOL    HW136590   7.221   9.602   9.012 -0.1038 -0.1815 -0.0351
10581SOL    HW236591   7.094   9.528   8.973 -0.3607 -0.2356  0.8859
10582SOL     OW36592   2.025   6.719   6.768 -0.7011  0.3469 -0.1018
10582SOL    HW136593   2.061   6.636   6.736  1.1329  1.3123 -0.6783
10582SOL    HW236594   1.979   6.695   6.848 -0.7152 -1.3146 -0.5588
10583SOL     OW36595   0.782   2.412   8.772  0.4779 -0.4140  0.6730
10583SOL    HW136596   0.838   2.463   8.830 -1.5066  0.0106  2.3655
10583SOL    HW236597   0.841   2.353   8.725  2.3431  0.3515  1.9708
10584SOL     OW36598   1.881   0.903   0.923  0.3113 -0.2661 -0.8432
10584SOL    HW136599   1.901   0.932   1.012 -0.0786  0.3220 -0.9450
10584SOL    HW236600   1.824   0.827   0.935  0.6529 -0.4879 -0.5873
10585SOL     OW36601   5.234   5.633   2.022  0.5387 -0.0608  0.0271
10585SOL    HW136602   5.310   5.579   2.046 -0.6661 -1.5088  0.7341
10585SOL    HW236603   5.178   5.574   1.973 -0.7214  0.6213  0.6072
10586SOL     OW36604   8.536   1.894   7.749 -0.1748 -0.0630  0.3132
10586SOL    HW136605   8.581   1.820   7.708 -0.5378 -1.0225  1.5927
10586SOL    HW236606   8.452   1.858   7.778 -0.4172  0.8817  0.8231
10587SOL     OW36607   3.782   4.823   9.082  0.1630  0.0232 -0.1247
10587SOL    HW136608   3.780   4.910   9.043 -1.6799 -0.7491 -1.8926
10587SOL    HW236609   3.706   4.820   9.140 -0.6954 -0.8767 -1.2527
10588SOL     OW36610   4.366   5.357   9.298  0.0840 -0.0706 -0.8121
10588SOL    HW136611   4.414   5.332   9.219 -0.0726 -1.2976 -0.5323
10588SOL    HW236612   4.274   5.348   9.274  0.0204 -2.5634  0.1097
10589SOL     OW36613   9.670   1.497   4.173 -0.3536  0.0384 -0.4029
10589SOL    HW136614   9.755   1.542   4.174 -0.8931  1.3166 -3.0112
10589SOL    HW236615   9.644   1.497   4.080 -1.0026 -4.6310 -0.4849
10590SOL     OW36616   8.881   3.167   2.131  0.2277 -0.0715 -0.8560
10590SOL    HW136617   8.883   3.222   2.210 -3.0466  0.3364 -0.9337
10590SOL    HW236618   8.881   3.229   2.058 -1.5643 -0.2048 -0.9987
10591SOL     OW36619   2.527   5.988   5.908 -0.3093 -0.0723 -0.3017
10591SOL    HW136620   2.508   5.928   5.836  1.2905 -0.8193 -0.1358
10591SOL    HW236621   2.552   6.070   5.865  1.7770 -0.8569 -0.6694
10592SOL     OW36622   4.116   4.249   0.806  0.4362  0.5673  0.2983
10592SOL    HW136623   4.071   4.284   0.728  1.1479  0.1673 -0.3054
10592SOL    HW236624   4.193   4.205   0.771  0.1124 -0.7155  1.1276
10593SOL     OW36625   6.885   5.188   5.066 -0.3908 -0.2306 -0.1530
10593SOL    HW136626   6.802   5.153   5.099 -0.3881  0.0490  0.1580
10593SOL    HW236627   6.900   5.140   4.984 -0.8606 -0.2819 -0.2148
10594SOL     OW36628   3.142   3.448   2.780  0.4252  0.2168 -0.5032
10594SOL    HW136629   3.075   3.410   2.837  0.0992  3.0713  1.2575
10594SOL    HW236630   3.094   3.489   2.709  0.5985 -0.7157 -1.1671
10595SOL     OW36631   0.883   9.440   3.966  0.1675 -0.3310  0.0446
10595SOL    HW136632   0.965   9.486   3.947  1.1325 -1.0216  2.1621
10595SOL    HW236633   0.874   9.375   3.896  0.5228  0.8373 -1.1251
10596SOL     OW36634   1.541   4.784   4.679 -0.1472 -0.0854  0.2645
10596SOL    HW136635   1.464   4.745   4.638  0.3530  0.0943 -0.8668
10596SOL    HW236636   1.587   4.828   4.608  0.6144  0.4499  1.0642
10597SOL     OW36637   5.494   2.248   0.548  0.5016 -0.1793 -0.5209
10597SOL    HW136638   5.528   2.184   0.485 -0.5531 -0.9144 -0.3692
10597SOL    HW236639   5.527   2.217   0.633  0.2555 -0.3499 -0.4854
10598SOL     OW36640   8.064   3.853   3.190 -0.6782 -0.0277  0.6704
10598SOL    HW136641   8.141   3.875   3.137 -0.3728 -2.4418 -0.0302
10598SOL    HW236642   8.068   3.913   3.264  2.1533 -0.3361  0.8750
10599SOL     OW36643   4.062   3.514   5.279  0.1585 -0.2541  0.5263
10599SOL    HW136644   3.972   3.482   5.284  0.5901 -2.1117 -1.9944
10599SOL    HW236645   4.085   3.533   5.370 -2.1669 -1.4472  1.4501
10600SOL     OW36646   7.056   0.291   1.221  0.1695 -0.6011  0.3449
10600SOL    HW136647   6.997   0.279   1.295  2.1241 -2.6350  1.7100
10600SOL    HW236648   7.022   0.235   1.152  0.7039 -2.1528  1.2958
10601SOL     OW36649   0.526   4.002   6.069 -0.6850 -0.5697  0.1626
10601SOL    HW136650   0.609   3.995   6.116 -1.2204 -0.1438  1.1921
10601SOL    HW236651   0.463   3.954   6.123 -0.3013 -5.0559 -2.8543
10602SOL     OW36652   2.299   2.940   9.631  0.1298  0.2920 -0.3865
10602SOL    HW136653   2.351   3.019   9.647 -0.0975  0.1155  1.4493
10602SOL    HW236654   2.344   2.871   9.680 -1.0085 -0.1750  0.0473
10603SOL     OW36655   0.482   3.293   7.224  0.0802  0.1859 -0.2138
10603SOL    HW136656   0.519   3.368   7.176 -0.5126  0.0319 -0.9375
10603SOL    HW236657   0.395   3.323   7.251  0.8946  0.7408  1.9574
10604SOL     OW36658   1.961   3.653   5.989 -0.4404 -0.0350  0.0947
10604SOL    HW136659   2.025   3.691   6.049 -0.6239  2.2311 -1.0499
10604SOL    HW236660   1.876   3.676   6.027 -0.7005 -2.7014  1.4035
10605SOL     OW36661   2.941   3.796   2.644 -0.5522 -0.3267 -0.1829
10605SOL    HW136662   2.857   3.840   2.658  0.3820  1.8330 -0.9651
10605SOL    HW236663   2.979   3.788   2.731 -0.2638  1.5281 -0.0951
10606SOL     OW36664   6.039   4.685   7.998  0.0171  0.1831 -0.2690
10606SOL    HW136665   6.133   4.676   7.982 -0.2792 -1.1483 -1.4214
10606SOL    HW236666   6.030   4.678   8.093  0.9737 -0.9042 -0.2492
10607SOL     OW36667   1.905   4.213   3.287  0.1227  0.5086  0.0951
10607SOL    HW136668   1.830   4.168   3.325  1.9893 -3.8994 -0.7728
10607SOL    HW236669   1.965   4.226   3.360 -0.4326  1.7464  0.3531
10608SOL     OW36670   7.245   9.509   9.581  0.1943 -0.5867 -0.1366
10608SOL    HW136671   7.311   9.541   9.519 -0.9938  1.3493 -0.5137
10608SOL    HW236672   7.239   9.415   9.565  0.6712 -0.3024 -2.2319
10609SOL     OW36673   8.551   9.029   4.469 -0.1287 -0.3427  0.0644
10609SOL    HW136674   8.488   9.056   4.403  0.2183 -0.4311 -0.3043
10609SOL    HW236675   8.624   8.992   4.420  0.6641  0.6798  0.4224
10610SOL     OW36676   1.120   2.466   7.678  0.3072  0.0406  0.7549
10610SOL    HW136677   1.036   2.500   7.646 -0.7711 -1.2574  2.0566
10610SOL    HW236678   1.120   2.374   7.653  1.9644  0.2992 -0.3518
10611SOL     OW36679   3.638   0.003   1.596 -0.2351  0.1983 -0.2533
10611SOL    HW136680   3.707   0.063   1.569  0.0077  0.5139  1.0315
10611SOL    HW236681   3.577   0.058   1.646 -1.3548 -0.1036 -1.2398
10612SOL     OW36682   4.087   5.800   4.320  0.3634  0.3233 -0.4367
10612SOL    HW136683   4.091   5.789   4.415  0.5037 -2.5909 -0.6892
10612SOL    HW236684   3.995   5.818   4.301 -0.0914 -1.2161  0.1405
10613SOL     OW36685   7.899   1.409   5.548  0.1224 -0.0554 -0.2594
10613SOL    HW136686   7.898   1.313   5.547  0.1255 -0.0701 -2.3001
10613SOL    HW236687   7.897   1.434   5.456 -1.0212  1.9375  0.2525
10614SOL     OW36688   7.083   4.189   1.632  0.3497  0.1294 -0.0627
10614SOL    HW136689   7.152   4.252   1.610  1.3781 -0.9102  0.1044
10614SOL    HW236690   7.075   4.134   1.554 -1.2441  1.0357 -0.5931
10615SOL     OW36691   1.321   2.707   1.937 -0.2207  0.7053  0.4531
10615SOL    HW136692   1.232   2.706   1.971  0.8245  0.3987  3.5584
10615SOL    HW236693   1.368   2.645   1.993  2.0499  1.2002 -0.7819
10616SOL     OW36694   0.360   3.370   4.032 -0.8094  0.3609  0.0778
10616SOL    HW136695   0.416   3.292   4.035  0.2984  0.9499 -2.5298
10616SOL    HW236696   0.272   3.335   4.024 -0.3252 -0.6834 -1.0832
10617SOL     OW36697   2.733   3.876   9.021  0.7590  0.0032  0.4834
10617SOL    HW136698   2.796   3.913   8.959 -0.5951  0.5818 -0.5969
10617SOL    HW236699   2.775   3.888   9.106  2.6055 -0.6894 -0.2707
10618SOL     OW36700   9.185   3.100   9.260  0.6442 -0.6270 -0.2900
10618SOL    HW136701   9.268   3.120   9.216  0.6266  1.3510  0.4805
10618SOL    HW236702   9.145   3.032   9.205  2.4946 -1.2119 -0.9916
10619SOL     OW36703   5.177   7.393   0.533 -0.1470  0.1301 -0.1410
10619SOL    HW136704   5.100   7.441   0.502  0.1859  1.3298  0.8546
10619SOL    HW236705   5.159   7.377   0.626 -0.0644 -1.3262 -0.3521
10620SOL     OW36706   4.736   8.548   9.665  0.1599 -0.0081 -0.1071
10620SOL    HW136707   4.773   8.621   9.716 -0.7233 -0.6589  1.5342
10620SOL    HW236708   4.770   8.469   9.707 -0.4227 -0.5680 -0.6681
10621SOL     OW36709   4.657   7.075   8.688  0.1845 -0.4799  0.1231
10621SOL    HW136710   4.639   7.159   8.646  0.0358 -1.8509 -2.7364
10621SOL    HW236711   4.749   7.058   8.669  0.4691 -0.6057  1.4740
10622SOL     OW36712   7.268   1.250   9.272  0.7617 -0.0837 -0.2605
10622SOL    HW136713   7.279   1.157   9.291  1.5394 -0.0744 -0.6070
10622SOL    HW236714   7.175   1.260   9.252  0.5652 -0.6806  0.3187
10623SOL     OW36715   5.534   8.012   3.069  0.2187 -0.5290 -0.5599
10623SOL    HW136716   5.468   8.042   3.006  2.0997 -0.3203 -2.5406
10623SOL    HW236717   5.604   8.078   3.064  1.7219 -2.0439 -0.4634
10624SOL     OW36718   4.786   4.966   1.107  0.6831  0.1415 -0.4380
10624SOL    HW136719   4.718   5.034   1.106 -0.1715 -0.6798 -0.0768
10624SOL    HW236720   4.782   4.929   1.195 -0.3640 -1.7884 -1.2262
10625SOL     OW36721   8.965   0.557   8.281  0.1104 -0.2739  0.2725
10625SOL    HW136722   8.913   0.615   8.225 -1.3680 -1.7981 -0.0099
10625SOL    HW236723   9.055   0.582   8.264 -0.3476  0.0434 -2.0073
10626SOL     OW36724   2.102   0.781   3.642 -0.2148 -0.2442  0.3725
10626SOL    HW136725   2.109   0.815   3.731  0.3271  1.0448 -0.1387
10626SOL    HW236726   2.010   0.796   3.618 -0.1065  0.3906  0.3419
10627SOL     OW36727   6.163   2.887   8.626 -0.4305 -0.8822 -0.5610
10627SOL    HW136728   6.221   2.874   8.551  0.6951  0.3047  0.0613
10627SOL    HW236729   6.075   2.883   8.589  0.0650  2.3255 -2.5142
10628SOL     OW36730   0.356   6.056   1.675 -0.1993 -0.0183  0.4104
10628SOL    HW136731   0.388   5.969   1.698 -2.4372 -0.6458  1.4769
10628SOL    HW236732   0.347   6.053   1.580  1.1381 -0.4047  0.2730
10629SOL     OW36733   7.439   9.589   9.391 -0.0452  0.2618  0.0909
10629SOL    HW136734   7.505   9.601   9.322  0.2328 -0.1965  0.2704
10629SOL    HW236735   7.411   9.677   9.413  2.5595  0.7329  1.9940
10630SOL     OW36736   8.465   7.104   5.528  0.1183  0.3282  0.2795
10630SOL    HW136737   8.403   7.044   5.569 -1.4182  1.6842  0.0202
10630SOL    HW236738   8.536   7.113   5.592  0.2234 -1.4615  0.4545
10631SOL     OW36739   6.162   1.047   5.423  0.2567 -0.4652  0.2144
10631SOL    HW136740   6.116   0.964   5.408  0.0841 -0.3434  0.0627
10631SOL    HW236741   6.238   1.023   5.475 -0.3553 -0.5666  1.0754
10632SOL     OW36742   1.233   7.899   9.581  0.1457 -0.4056 -0.1644
10632SOL    HW136743   1.321   7.912   9.616 -0.6008  1.0642  1.2977
10632SOL    HW236744   1.229   7.958   9.505  0.2517 -0.0200  0.1233
10633SOL     OW36745   1.958   3.402   8.607 -0.2375  0.0285  0.5936
10633SOL    HW136746   1.964   3.321   8.557  3.1367  0.7908 -0.4819
10633SOL    HW236747   1.903   3.460   8.553  0.6643 -0.2473 -0.6565
10634SOL     OW36748   5.198   5.368   6.103 -0.1974 -0.6218  0.4174
10634SOL    HW136749   5.138   5.338   6.171  0.1195  0.3145  1.1418
10634SOL    HW236750   5.150   5.438   6.058 -0.8411 -1.9760 -1.0907
10635SOL     OW36751   3.245   5.771   5.476  0.3805  0.6225  0.6150
10635SOL    HW136752   3.237   5.731   5.390 -3.6539  3.5310 -0.6474
10635SOL    HW236753   3.337   5.796   5.482  1.1921 -1.2848 -1.9695
10636SOL     OW36754   5.150   0.959   2.313 -0.3955 -0.1278  0.2070
10636SOL    HW136755   5.217   1.013   2.270 -0.5446 -0.4201 -0.4000
10636SOL    HW236756   5.129   0.891   2.249 -0.5901 -0.5997  0.7643
10637SOL     OW36757   6.453   0.783   2.402 -0.1337  0.2987  0.5830
10637SOL    HW136758   6.523   0.717   2.402 -1.0831 -0.7401  0.8544
10637SOL    HW236759   6.407   0.769   2.320  0.7558  1.8777 -0.2345
10638SOL     OW36760   8.746   3.803   5.208 -0.0800 -0.0271 -0.5920
10638SOL    HW136761   8.831   3.807   5.165  0.3552  1.4546  0.3245
10638SOL    HW236762   8.755   3.731   5.271  0.2435 -0.3602 -1.0141
10639SOL     OW36763   7.991   1.019   3.629  0.7911 -0.2577  0.1349
10639SOL    HW136764   7.967   0.934   3.592  1.8945 -0.9510  0.9250
10639SOL    HW236765   7.947   1.021   3.714 -1.0615  0.9656 -0.8077
10640SOL     OW36766   8.604   4.022   1.421  0.2182 -0.3505 -0.0683
10640SOL    HW136767   8.560   4.024   1.506 -0.6812 -0.8558 -0.5160
10640SOL    HW236768   8.642   3.934   1.416 -0.3414 -0.5703 -0.4912
10641SOL     OW36769   0.142   6.780   7.054 -0.4522  0.0088  0.8604
10641SOL    HW136770   0.197   6.717   7.008  0.5298  1.9415 -0.7803
10641SOL    HW236771   0.129   6.851   6.991 -3.8932  0.1938  1.5900
10642SOL     OW36772   9.390   1.445   6.122  0.0514  0.1500  0.3110
10642SOL    HW136773   9.298   1.419   6.130  0.5606 -2.7314 -1.7189
10642SOL    HW236774   9.439   1.363   6.125  2.3493  1.3471 -1.2493
10643SOL     OW36775   7.699   9.457   3.437 -0.3458 -0.0832 -0.1153
10643SOL    HW136776   7.778   9.415   3.471 -0.7047 -0.5465  0.1376
10643SOL    HW236777   7.626   9.411   3.478 -0.7451  0.8163  0.2198
10644SOL     OW36778   0.825   9.294   2.999  0.0897  0.7683 -0.0798
10644SOL    HW136779   0.831   9.305   3.094 -1.3557  0.2470  0.0978
10644SOL    HW236780   0.771   9.368   2.970  0.6301  0.9977 -0.5200
10645SOL     OW36781   2.296   0.739   8.493 -0.2477  0.1536  0.1119
10645SOL    HW136782   2.386   0.707   8.491  0.5764  2.3033 -0.6393
10645SOL    HW236783   2.303   0.831   8.466 -2.4396  0.9317  1.9122
10646SOL     OW36784   4.463   2.071   5.498  0.1906 -0.0274  0.2689
10646SOL    HW136785   4.414   2.151   5.514 -0.5393 -0.4101 -0.0233
10646SOL    HW236786   4.400   2.011   5.459  0.6176 -0.8921  0.8680
10647SOL     OW36787   3.976   6.203   0.686  0.3368 -0.1643 -0.5196
10647SOL    HW136788   4.031   6.124   0.687  0.6626  0.0460 -1.1882
10647SOL    HW236789   3.889   6.171   0.662 -0.1000 -0.6398  1.4806
10648SOL     OW36790   3.018   1.423   8.633 -0.4651 -0.0809 -0.5361
10648SOL    HW136791   3.010   1.472   8.714 -0.5391 -2.0341  0.6957
10648SOL    HW236792   3.098   1.455   8.592  0.8693 -0.6621  1.4867
10649SOL     OW36793   3.520   7.513   0.319  0.4457  0.0413 -0.0271
10649SOL    HW136794   3.583   7.442   0.302  1.5028  0.8632  0.2949
10649SOL    HW236795   3.478   7.528   0.234  1.1214 -0.1251 -0.4038
10650SOL     OW36796   1.426   5.331   4.389 -0.2114 -0.0990 -0.7332
10650SOL    HW136797   1.436   5.375   4.473 -0.6955 -0.6391 -0.3889
10650SOL    HW236798   1.390   5.399   4.331  1.8833  0.8229 -1.0436
10651SOL     OW36799   0.161   5.204   7.148 -0.2798  0.4987 -0.5852
10651SOL    HW136800   0.122   5.156   7.220  1.4500  1.4745  1.0874
10651SOL    HW236801   0.088   5.247   7.104 -1.1330  3.9367  3.6147
10652SOL     OW36802   1.848   9.443   6.816  0.8073 -1.1079  0.4246
10652SOL    HW136803   1.872   9.352   6.799  0.8920 -0.9669 -0.2055
10652SOL    HW236804   1.928   9.482   6.853  1.0196 -1.0825 -0.0586
10653SOL     OW36805   8.140   4.312   1.178  0.5023  0.1433  0.7608
10653SOL    HW136806   8.147   4.218   1.194 -0.4556  0.3118  2.3452
10653SOL    HW236807   8.225   4.346   1.206  0.5289 -0.1468  1.0480
10654SOL     OW36808   1.381   5.633   0.089 -1.0620  0.3359  0.3589
10654SOL    HW136809   1.292   5.669   0.091 -0.6137  2.2299 -3.7640
10654SOL    HW236810   1.432   5.693   0.144 -1.9569  0.4018  1.1514
10655SOL     OW36811   0.128   4.124   3.743  0.1009  0.2785 -0.3101
10655SOL    HW136812   0.103   4.169   3.824  0.6645  1.4624 -0.7640
10655SOL    HW236813   0.204   4.071   3.766 -0.7129 -0.6459  0.2896
10656SOL     OW36814   9.199   0.251   4.909 -0.3614 -0.2604  0.1610
10656SOL    HW136815   9.287   0.261   4.946 -0.9506  1.6757  1.1725
10656SOL    HW236816   9.156   0.188   4.967 -0.0732 -0.1576  0.4937
10657SOL     OW36817   2.067   7.226   8.540 -0.3148  0.0735 -0.3104
10657SOL    HW136818   2.017   7.170   8.480  3.2663 -0.1570 -3.4933
10657SOL    HW236819   2.127   7.166   8.584 -1.0593  0.6265  1.5203
10658SOL     OW36820   6.897   4.912   2.227  0.0794  0.1844 -1.0580
10658SOL    HW136821   6.804   4.921   2.208 -0.1144 -1.1661 -0.8531
10658SOL    HW236822   6.910   4.818   2.242  1.5262  0.3013 -1.3686
10659SOL     OW36823   0.050   1.950   5.585 -0.2842  0.0442 -0.4713
10659SOL    HW136824   0.042   1.949   5.490  0.5288 -0.1735 -0.5446
10659SOL    HW236825   0.107   1.876   5.605  1.1542  1.2320  0.0170
10660SOL     OW36826   0.151   7.426   4.387  0.4773 -0.2524  0.2328
10660SOL    HW136827   0.205   7.505   4.386  0.9388 -0.5539 -0.7483
10660SOL    HW236828   0.112   7.422   4.300  0.7386 -1.2761  0.1391
10661SOL     OW36829   1.673   1.577   6.903  0.1833 -0.0767 -0.4404
10661SOL    HW136830   1.711   1.528   6.976  0.4940  2.7137  1.4049
10661SOL    HW236831   1.583   1.547   6.899  0.3578 -0.8120  0.6171
10662SOL     OW36832   5.129   1.313   0.959 -0.3222 -0.4309  0.7740
10662SOL    HW136833   5.152   1.241   1.018 -1.0006  0.0148  1.6042
10662SOL    HW236834   5.101   1.383   1.018 -0.2766  0.2908 -0.0562
10663SOL     OW36835   6.642   3.998   4.944  0.1036 -0.2780  0.2088
10663SOL    HW136836   6.552   3.974   4.966  0.1066  0.3288  0.9021
10663SOL    HW236837   6.692   3.979   5.023  0.3444  0.7280  0.3037
10664SOL     OW36838   4.586   9.258   6.910  0.3140 -0.7907  0.3367
10664SOL    HW136839   4.516   9.316   6.880  1.1098 -0.7529 -1.6554
10664SOL    HW236840   4.546   9.171   6.913 -0.4602 -0.3988  1.7305
10665SOL     OW36841   2.654   9.485   7.575  0.4615  0.2185 -0.4742
10665SOL    HW136842   2.586   9.428   7.611  1.7808 -0.8131  0.4933
10665SOL    HW236843   2.608   9.565   7.551 -1.1591 -0.6160 -0.2756
10666SOL     OW36844   5.816   5.537   6.464 -0.2402 -0.2628 -0.2150
10666SOL    HW136845   5.798   5.576   6.379 -0.5535 -2.1223 -1.0472
10666SOL    HW236846   5.816   5.611   6.525 -1.7808  0.8909 -1.5364
10667SOL     OW36847   1.581   5.256   0.115  0.4010  0.2002 -0.1280
10667SOL    HW136848   1.658   5.291   0.070 -0.1735  1.6465 -0.0317
10667SOL    HW236849   1.542   5.332   0.159 -0.3486 -0.7500  0.9018
10668SOL     OW36850   0.397   8.381   8.662  0.0644 -0.4215  0.7030
10668SOL    HW136851   0.414   8.462   8.614 -0.4414 -1.5660 -1.5118
10668SOL    HW236852   0.478   8.330   8.652 -0.0369 -0.6668  1.1137
10669SOL     OW36853   0.720   0.431   5.012 -0.2175 -0.1154  0.0072
10669SOL    HW136854   0.651   0.444   4.947  0.7348 -0.7593 -1.1707
10669SOL    HW236855   0.761   0.517   5.022 -0.9205  0.1833  0.4332
10670SOL     OW36856   9.639   5.846   5.498 -0.1589  0.5870 -0.1163
10670SOL    HW136857   9.686   5.865   5.579  0.2911 -1.1426  0.0619
10670SOL    HW236858   9.693   5.884   5.428  0.6752  0.0283  0.2139
10671SOL     OW36859   0.627   2.776   5.370 -0.6622 -0.8186 -0.2250
10671SOL    HW136860   0.710   2.822   5.384 -0.9845  0.4001 -1.9809
10671SOL    HW236861   0.582   2.781   5.455  0.6706 -0.7244  0.5061
10672SOL     OW36862   0.887   1.332   2.606 -0.1927 -0.0924  0.0195
10672SOL    HW136863   0.817   1.321   2.670 -0.9735  2.1118 -0.3761
10672SOL    HW236864   0.857   1.282   2.529  0.1511 -1.6767  0.8751
10673SOL     OW36865   0.987   9.515   4.350 -0.1254 -0.7876 -0.1420
10673SOL    HW136866   1.059   9.576   4.334  0.8167 -1.9331 -0.3690
10673SOL    HW236867   1.003   9.482   4.438 -0.1353 -1.3703 -0.3591
10674SOL     OW36868   4.220   9.264   6.744 -0.2045 -0.1897  0.2719
10674SOL    HW136869   4.268   9.324   6.802 -2.0120  1.6784 -0.0297
10674SOL    HW236870   4.238   9.177   6.780  1.1720  0.6419  1.7744
10675SOL     OW36871   7.962   8.885   5.927 -0.1013 -0.5191 -0.3101
10675SOL    HW136872   8.027   8.948   5.957 -1.0922  0.0259  0.7902
10675SOL    HW236873   8.013   8.809   5.899  1.0510  0.3356 -0.5686
10676SOL     OW36874   5.290   6.910   4.038  0.2684 -0.3088 -0.2673
10676SOL    HW136875   5.315   6.835   3.984  0.9591 -0.8746  0.8228
10676SOL    HW236876   5.264   6.977   3.974  0.2248 -1.2541 -1.2734
10677SOL     OW36877   6.352   3.199   4.004  0.1870  0.0208 -0.6781
10677SOL    HW136878   6.307   3.118   3.980 -1.7079  1.1861 -1.3315
10677SOL    HW236879   6.376   3.188   4.096 -0.8039 -0.9683 -0.5201
10678SOL     OW36880   4.097   9.040   4.347  0.4343 -0.2709  0.0473
10678SOL    HW136881   4.071   8.955   4.313 -0.9490  0.5318 -1.0420
10678SOL    HW236882   4.036   9.057   4.419  0.4150 -0.0203 -0.0280
10679SOL     OW36883   4.595   6.542   5.563  0.0798  0.7795 -0.0373
10679SOL    HW136884   4.634   6.465   5.603 -0.4037  1.2136  1.3140
10679SOL    HW236885   4.631   6.544   5.474 -1.3342 -2.0358 -0.7737
10680SOL     OW36886   6.733   5.479   2.711  0.5400  0.4710  0.0708
10680SOL    HW136887   6.679   5.471   2.632  0.6506 -1.2257  0.1433
10680SOL    HW236888   6.714   5.568   2.742 -0.8763  0.5490 -0.8636
10681SOL     OW36889   1.570   1.602   2.040 -0.3300 -0.5550  0.2059
10681SOL    HW136890   1.650   1.612   1.988 -1.0223 -0.8811 -0.9695
10681SOL    HW236891   1.598   1.619   2.130  0.8829  0.2079 -0.2748
10682SOL     OW36892   1.225   3.787   4.028 -0.2745 -0.1308 -0.1858
10682SOL    HW136893   1.223   3.789   4.123  0.9902 -2.1205 -0.0541
10682SOL    HW236894   1.225   3.879   4.002 -1.1548  0.4460  1.6891
10683SOL     OW36895   1.977   7.647   5.874 -0.0004  0.0140 -0.0765
10683SOL    HW136896   1.953   7.555   5.883  0.8084 -0.1569  0.5297
10683SOL    HW236897   2.050   7.647   5.811 -0.7125  0.3741 -0.9212
10684SOL     OW36898   6.639   2.634   4.177 -0.3890  0.2158 -0.0907
10684SOL    HW136899   6.664   2.703   4.237  0.8403  1.2689 -1.7251
10684SOL    HW236900   6.721   2.592   4.152 -0.9189 -0.5579 -0.5985
10685SOL     OW36901   0.182   1.133   6.213 -0.0765 -0.0909 -0.4296
10685SOL    HW136902   0.088   1.152   6.216  0.0703  0.8186 -1.1341
10685SOL    HW236903   0.207   1.122   6.305 -0.8335 -0.1887 -0.2251
10686SOL     OW36904   2.769   2.781   3.061  0.2270 -0.6056 -0.1059
10686SOL    HW136905   2.854   2.757   3.023  0.6785 -0.6005  0.8819
10686SOL    HW236906   2.779   2.767   3.155 -0.8758 -0.6145  0.0277
10687SOL     OW36907   7.725   4.077   4.356 -0.1475 -0.5989 -0.2560
10687SOL    HW136908   7.749   4.163   4.323  1.2215 -0.6941  0.4183
10687SOL    HW236909   7.660   4.094   4.424  1.5900  0.1287  1.3253
10688SOL     OW36910   4.372   0.755   3.713 -0.2476 -0.5602  0.2777
10688SOL    HW136911   4.366   0.846   3.743 -3.5218 -0.2994 -0.7628
10688SOL    HW236912   4.385   0.762   3.618  2.8207 -1.3016  0.5545
10689SOL     OW36913   3.900   6.437   5.789  0.1041  0.0511  0.1598
10689SOL    HW136914   3.945   6.473   5.864 -1.6074 -0.3412  1.4419
10689SOL    HW236915   3.963   6.377   5.748  1.8415  1.9670 -0.1063
10690SOL     OW36916   4.644   9.741   8.133  0.1597 -0.0736 -0.2366
10690SOL    HW136917   4.696   9.666   8.163  2.0807  1.8672  1.5777
10690SOL    HW236918   4.708   9.807   8.110 -1.4957  1.5988 -0.2614
10691SOL     OW36919   8.652   2.178   8.446  0.4099  0.4717 -0.1177
10691SOL    HW136920   8.600   2.107   8.409  0.5224  2.0555 -3.7769
10691SOL    HW236921   8.742   2.145   8.444  0.2717  0.0935 -0.1046
10692SOL     OW36922   9.412   0.607   2.559 -0.2318 -0.1928 -0.2126
10692SOL    HW136923   9.346   0.638   2.496 -0.5565  0.8058  0.6016
10692SOL    HW236924   9.467   0.683   2.577  0.9630 -0.9289 -0.6223
10693SOL     OW36925   7.567   6.862   0.848  0.2485  0.2049  0.0296
10693SOL    HW136926   7.527   6.946   0.830 -0.5108 -0.3080 -0.7501
10693SOL    HW236927   7.497   6.808   0.884  0.2502 -0.6473 -1.1753
10694SOL     OW36928   7.744   8.609   9.064 -0.2382  0.2483 -0.0116
10694SOL    HW136929   7.729   8.633   9.156  0.7119  0.3861  0.1134
10694SOL    HW236930   7.658   8.581   9.033 -0.0358 -3.0649  1.9059
10695SOL     OW36931   4.026   2.887   4.618  0.1888 -0.0969  0.5896
10695SOL    HW136932   4.033   2.981   4.637  1.6368 -0.4567  2.0579
10695SOL    HW236933   3.993   2.883   4.528  1.3858  1.8417  0.0057
10696SOL     OW36934   6.866   0.560   4.392 -0.5627  0.3248  0.1467
10696SOL    HW136935   6.890   0.627   4.456 -1.2852 -0.1438  0.9301
10696SOL    HW236936   6.794   0.599   4.342 -1.4445 -0.1124  1.0573
10697SOL     OW36937   9.065   4.204   9.124  0.6148  0.5999  0.2539
10697SOL    HW136938   9.130   4.265   9.089  0.5984  0.3824 -0.1651
10697SOL    HW236939   8.984   4.254   9.129  0.5018  0.4983 -0.4862
10698SOL     OW36940   1.734   6.019   6.110 -0.4153  0.8864  0.1741
10698SOL    HW136941   1.719   5.963   6.187  0.7995  1.1905  0.6422
10698SOL    HW236942   1.729   5.959   6.036 -1.6201  0.5890  0.4699
10699SOL     OW36943   1.697   9.154   7.277  0.0062 -0.4975  0.2253
10699SOL    HW136944   1.605   9.172   7.259 -0.0062  0.0592  0.8315
10699SOL    HW236945   1.695   9.087   7.345  0.0481 -0.0889  0.6294
10700SOL     OW36946   1.652   4.377   7.422  0.0947 -0.8558 -0.0993
10700SOL    HW136947   1.696   4.333   7.349  0.0142 -0.1874 -0.5628
10700SOL    HW236948   1.600   4.446   7.380  1.1140  0.4347  0.6768
10701SOL     OW36949   5.711   6.401   1.409  0.5880 -0.5036 -0.6551
10701SOL    HW136950   5.749   6.391   1.322 -0.8950 -3.5138 -1.0526
10701SOL    HW236951   5.747   6.328   1.460  0.3016  0.3649  0.8732
10702SOL     OW36952   3.685   4.564   2.431 -0.0055  0.0362  0.5216
10702SOL    HW136953   3.638   4.536   2.509  0.8208  0.7101  1.2793
10702SOL    HW236954   3.617   4.575   2.365 -1.0372  1.6263  1.7660
10703SOL     OW36955   1.178   0.872   5.111  0.0739  0.8043 -0.0275
10703SOL    HW136956   1.145   0.904   5.027 -0.6042 -0.4257 -0.2508
10703SOL    HW236957   1.263   0.834   5.090 -1.0270 -1.5106 -0.6352
10704SOL     OW36958   1.518   4.707   2.242  0.3608 -0.0403  0.3022
10704SOL    HW136959   1.545   4.799   2.249  2.0258 -0.3538 -1.4195
10704SOL    HW236960   1.575   4.661   2.303 -0.2055 -0.0036  0.8710
10705SOL     OW36961   6.135   7.453   4.764 -0.2201 -0.1573 -0.1909
10705SOL    HW136962   6.049   7.467   4.804  0.7176  0.4222  1.7723
10705SOL    HW236963   6.170   7.542   4.751 -0.4244 -0.3390 -2.2228
10706SOL     OW36964   7.853   5.326   3.513 -0.1244  0.0334 -0.1545
10706SOL    HW136965   7.775   5.380   3.503  0.4619  0.6149 -2.0100
10706SOL    HW236966   7.884   5.310   3.424  2.2045  0.3327  0.5167
10707SOL     OW36967   5.828   8.768   2.999 -0.3041 -0.0947  0.6683
10707SOL    HW136968   5.806   8.832   3.067 -0.8820 -0.1385  0.5254
10707SOL    HW236969   5.836   8.821   2.919 -1.3494 -0.2709  0.4394
10708SOL     OW36970   2.948   6.178   2.461  0.1324 -0.5068  0.1046
10708SOL    HW136971   3.023   6.184   2.402 -0.2810 -2.7690 -0.7584
10708SOL    HW236972   2.986   6.148   2.544  0.4094  0.3607  0.3050
10709SOL     OW36973   0.896   0.996   7.493 -0.1303 -0.5922  0.1037
10709SOL    HW136974   0.834   0.946   7.441  0.4822 -0.1741 -1.0671
10709SOL    HW236975   0.963   0.933   7.518 -0.8144 -0.9667  1.0775
10710SOL     OW36976   5.587   6.273   0.888 -0.9474 -0.2525  0.2502
10710SOL    HW136977   5.643   6.325   0.831 -3.1676  2.0902  0.0133
10710SOL    HW236978   5.647   6.213   0.933  1.4363  0.8379 -1.2834
10711SOL     OW36979   9.018   7.210   5.304  0.1720  0.4543 -0.0481
10711SOL    HW136980   8.932   7.180   5.335  0.0632 -0.8600 -1.5162
10711SOL    HW236981   9.036   7.156   5.227  2.2788  0.7903  0.1613
10712SOL     OW36982   6.969   4.301   2.312  0.5729 -0.3726  0.5231
10712SOL    HW136983   7.039   4.326   2.253 -0.7187  0.0467 -0.8772
10712SOL    HW236984   6.978   4.360   2.387 -0.0105  1.7001 -0.9469
10713SOL     OW36985   9.199   7.428   2.705 -0.1174 -0.5459  0.4639
10713SOL    HW136986   9.207   7.523   2.717 -1.0728  0.1099 -2.9406
10713SOL    HW236987   9.105   7.411   2.713 -0.0896 -0.9934 -0.0806
10714SOL     OW36988   0.978   4.677   9.182 -0.3270  0.7348  0.2968
10714SOL    HW136989   0.940   4.695   9.096  0.9898 -4.0912 -1.6943
10714SOL    HW236990   1.071   4.698   9.172  0.3469 -2.1104 -0.5802
10715SOL     OW36991   4.128   7.880   3.566  0.2525  0.1351 -0.6164
10715SOL    HW136992   4.152   7.973   3.561  0.4860  0.2537  1.6286
10715SOL    HW236993   4.032   7.881   3.566  0.2533  0.4094 -0.1927
10716SOL     OW36994   8.654   5.771   9.574 -0.0807  0.1169 -0.0243
10716SOL    HW136995   8.700   5.847   9.608 -0.0210  0.1289 -0.1301
10716SOL    HW236996   8.574   5.765   9.626  0.4440 -0.4088  0.7453
10717SOL     OW36997   8.317   3.647   0.757 -0.2803 -0.2374  0.0721
10717SOL    HW136998   8.277   3.630   0.842 -1.8922 -0.9537 -0.7945
10717SOL    HW236999   8.406   3.613   0.765 -0.9918 -2.0313  0.8846
10718SOL     OW37000   0.199   5.989   0.664 -0.4616  0.2244  0.4211
10718SOL    HW137001   0.240   6.065   0.704 -0.8036  0.3352  0.5593
10718SOL    HW237002   0.245   5.977   0.581  0.4699 -0.1959  0.9813
10719SOL     OW37003   3.237   0.144   8.005 -0.7629  0.3265 -0.5470
10719SOL    HW137004   3.197   0.194   7.934  0.0874  0.4166 -0.9884
10719SOL    HW237005   3.203   0.055   7.995 -0.2502  0.2071 -1.4211
10720SOL     OW37006   6.990   6.222   8.283 -0.2941 -0.4751 -0.5764
10720SOL    HW137007   6.964   6.173   8.205  1.5028 -1.0413 -0.8612
10720SOL    HW237008   7.060   6.280   8.252 -1.5115  1.4137  0.0258
10721SOL     OW37009   1.463   4.360   9.283  0.2346 -0.3019 -0.2746
10721SOL    HW137010   1.505   4.418   9.347 -0.0787  1.3174 -1.4734
10721SOL    HW237011   1.374   4.393   9.276  0.2287 -0.5253 -1.4492
10722SOL     OW37012   6.714   8.771   0.138 -0.4307  0.4250 -0.1087
10722SOL    HW137013   6.771   8.778   0.215 -0.3482 -1.1688  0.0100
10722SOL    HW237014   6.773   8.749   0.066 -0.7505 -0.2958 -0.1678
10723SOL     OW37015   5.243   7.750   6.420  0.7707  0.6630  0.2997
10723SOL    HW137016   5.152   7.756   6.390  1.2420  0.2113 -1.2837
10723SOL    HW237017   5.271   7.841   6.431  0.6316  0.8524 -0.8126
10724SOL     OW37018   7.552   7.163   4.053 -0.0242 -0.1899 -0.2383
10724SOL    HW137019   7.497   7.133   3.981 -0.4436 -0.2371  0.1042
10724SOL    HW237020   7.500   7.230   4.098  0.8335  0.9752 -0.9006
10725SOL     OW37021   4.083   5.462   4.151  0.2029 -0.0640 -0.4295
10725SOL    HW137022   4.018   5.480   4.218 -2.4684 -0.3581 -2.7488
10725SOL    HW237023   4.120   5.548   4.130 -0.7845  0.3920 -0.3475
10726SOL     OW37024   6.223   6.666   3.071 -0.0353 -0.5694  0.0918
10726SOL    HW137025   6.284   6.594   3.090  0.3815  0.2945  2.2222
10726SOL    HW237026   6.185   6.689   3.155 -0.1342  1.7416 -0.5094
10727SOL     OW37027   0.195   0.965   3.587  0.0166  0.2382 -0.5085
10727SOL    HW137028   0.114   1.008   3.615 -0.8473 -1.4769 -0.2359
10727SOL    HW237029   0.245   0.954   3.668 -0.7783 -1.2665 -0.1907
10728SOL     OW37030   6.297   8.377   3.699 -0.6126  0.7016  0.5171
10728SOL    HW137031   6.252   8.294   3.717  0.2364  0.2656  0.6953
10728SOL    HW237032   6.287   8.427   3.780  0.0933  0.1896  0.9335
10729SOL     OW37033   5.205   7.009   3.543  0.7008 -0.0218 -0.7647
10729SOL    HW137034   5.150   6.939   3.508 -1.6544  0.4735  1.6615
10729SOL    HW237035   5.173   7.088   3.499  1.1938 -0.0435 -1.1695
10730SOL     OW37036   7.346   7.137   7.157 -0.0766 -0.5163 -0.1869
10730SOL    HW137037   7.266   7.141   7.210  0.9952  1.9340  1.4632
10730SOL    HW237038   7.322   7.180   7.075 -0.5101  0.0722  0.2399
10731SOL     OW37039   8.287   1.335   0.861 -0.2497 -0.4652  0.1529
10731SOL    HW137040   8.248   1.340   0.774  1.5154  1.8296 -0.6255
10731SOL    HW237041   8.319   1.424   0.878  1.8270 -1.4447  1.9953
10732SOL     OW37042   7.761   1.043   9.154 -1.0402  0.1175  0.0267
10732SOL    HW137043   7.834   0.988   9.180 -1.1124 -0.4380 -0.8833
10732SOL    HW237044   7.704   0.985   9.104 -0.5990  1.2277 -1.8937
10733SOL     OW37045   4.361   2.871   4.122  0.0124  0.5825  0.0395
10733SOL    HW137046   4.338   2.860   4.215 -0.5217 -2.4926 -0.3643
10733SOL    HW237047   4.439   2.926   4.124  0.9448 -0.6724  2.4400
10734SOL     OW37048   4.783   0.088   4.917 -0.4080  0.0460 -0.0102
10734SOL    HW137049   4.812   0.160   4.973 -0.0783 -0.6385  0.7079
10734SOL    HW237050   4.688   0.085   4.930 -0.5452  0.8978 -0.7122
10735SOL     OW37051   8.087   3.126   2.656  0.0393  0.3420 -0.0900
10735SOL    HW137052   8.165   3.180   2.668  1.3192 -1.6117  0.9423
10735SOL    HW237053   8.014   3.184   2.677  1.3312  1.7410  0.6881
10736SOL     OW37054   4.681   6.170   1.345 -0.1859 -0.3293  0.4145
10736SOL    HW137055   4.648   6.238   1.286 -1.9694 -1.7118 -0.2860
10736SOL    HW237056   4.774   6.188   1.354 -0.1258  0.7038 -1.7751
10737SOL     OW37057   6.207   8.183   9.622  0.1926 -0.2233  0.4404
10737SOL    HW137058   6.218   8.278   9.620  1.5257 -0.3401  1.3037
10737SOL    HW237059   6.202   8.158   9.529  0.9938  0.5553  0.1763
10738SOL     OW37060   7.921   9.346   1.285  0.4806 -0.1628 -0.5692
10738SOL    HW137061   7.935   9.263   1.241  1.6241 -0.6929  0.7339
10738SOL    HW237062   7.874   9.323   1.365  1.5629  0.3143  0.2256
10739SOL     OW37063   2.914   8.336   5.509  0.4448  0.0648  0.0798
10739SOL    HW137064   2.985   8.308   5.567  1.5463  0.5681 -0.9891
10739SOL    HW237065   2.869   8.255   5.487  1.4583 -0.4388 -0.2141
10740SOL     OW37066   7.751   3.698   1.285 -0.0222  0.3994 -0.0876
10740SOL    HW137067   7.683   3.763   1.267 -0.0741 -0.0611 -1.7151
10740SOL    HW237068   7.769   3.707   1.378 -0.6547  2.1359 -0.1052
10741SOL     OW37069   9.646   0.811   3.227 -0.3466 -0.7232 -0.0480
10741SOL    HW137070   9.724   0.765   3.258  0.9594  1.3369 -0.0954
10741SOL    HW237071   9.678   0.866   3.156 -2.0009 -0.3581 -0.5327
10742SOL     OW37072   7.556   9.736   1.036  0.1744 -0.2632  0.3395
10742SOL    HW137073   7.561   9.641   1.047 -2.0009 -0.5171 -0.3566
10742SOL    HW237074   7.644   9.768   1.057  1.3533 -2.5549 -0.7368
10743SOL     OW37075   2.673   1.133   0.787 -0.3339 -0.3045 -0.4882
10743SOL    HW137076   2.642   1.043   0.801 -0.3383 -0.5355 -1.8775
10743SOL    HW237077   2.767   1.123   0.773 -0.0438  0.1067  1.0428
10744SOL     OW37078   3.832   0.337   5.600  0.1214 -0.5062 -0.1989
10744SOL    HW137079   3.843   0.298   5.513 -0.0507  1.2183 -1.0175
10744SOL    HW237080   3.874   0.422   5.594 -3.1309  1.2931  0.2165
10745SOL     OW37081   7.961   1.720   7.125  0.2307 -0.3771 -0.2352
10745SOL    HW137082   7.944   1.812   7.143  0.1822 -0.0866 -1.6846
10745SOL    HW237083   7.942   1.675   7.208 -1.3168  0.7058  0.0221
10746SOL     OW37084   9.531   6.401   1.679  0.4077 -0.0867  1.0426
10746SOL    HW137085   9.471   6.455   1.730  1.4748 -0.2347  2.5553
10746SOL    HW237086   9.614   6.406   1.728  1.3004 -0.7977 -0.3397
10747SOL     OW37087   7.006   0.833   8.175 -0.2305 -0.7113  0.1926
10747SOL    HW137088   7.052   0.772   8.233  1.0288 -0.0912 -0.1098
10747SOL    HW237089   7.065   0.843   8.099  0.6026  2.3725  1.1009
10748SOL     OW37090   6.107   0.305   6.106 -0.0908 -0.2097 -0.2407
10748SOL    HW137091   6.056   0.252   6.167 -0.7025  1.9899  1.2749
10748SOL    HW237092   6.162   0.360   6.162  0.3938  0.8743 -1.7258
10749SOL     OW37093   7.921   1.173   7.898 -0.1266 -0.0322 -0.2259
10749SOL    HW137094   7.835   1.214   7.909  0.0333 -0.1945  2.1013
10749SOL    HW237095   7.976   1.217   7.963  0.4316 -2.8075  1.3063
10750SOL     OW37096   3.002   0.188   2.996 -0.4229 -0.1161  0.0614
10750SOL    HW137097   3.017   0.271   2.951 -0.0593  0.2243  0.7822
10750SOL    HW237098   2.910   0.167   2.979 -0.7701  0.8951  0.5867
10751SOL     OW37099   6.105   2.276   1.066  0.1524 -0.7695  0.4680
10751SOL    HW137100   6.158   2.343   1.109  0.6245 -0.7834 -0.0842
10751SOL    HW237101   6.035   2.325   1.022 -0.3111 -0.7515  1.1977
10752SOL     OW37102   1.453   3.089   7.654  0.2097 -0.1033 -0.2477
10752SOL    HW137103   1.519   3.100   7.586 -1.4448 -0.2894 -1.9695
10752SOL    HW237104   1.466   3.000   7.688 -0.3074 -0.8425 -1.9045
10753SOL     OW37105   3.784   0.918   1.842  0.2499 -0.5589  0.1994
10753SOL    HW137106   3.794   0.941   1.934  3.0920  1.2469 -0.4468
10753SOL    HW237107   3.691   0.928   1.824 -0.5019 -1.6845  2.9974
10754SOL     OW37108   0.421   8.442   7.655 -0.0567 -0.0536  0.5860
10754SOL    HW137109   0.412   8.495   7.576  0.6307 -1.0619 -0.2058
10754SOL    HW237110   0.346   8.465   7.709 -0.2438  1.0485 -0.1260
10755SOL     OW37111   7.396   4.755   5.647 -0.2019 -0.3647  0.0945
10755SOL    HW137112   7.480   4.746   5.692 -0.5597  2.0604  1.3769
10755SOL    HW237113   7.331   4.756   5.717 -1.1318 -0.2369 -0.7500
10756SOL     OW37114   2.469   7.256   4.494 -0.4340 -0.1738  0.5530
10756SOL    HW137115   2.562   7.244   4.517 -0.4782  1.0495  1.4786
10756SOL    HW237116   2.468   7.334   4.439 -0.9537  0.0115  0.8230
10757SOL     OW37117   9.002   9.238   9.308  0.0970 -0.1934  0.2193
10757SOL    HW137118   9.014   9.152   9.348  0.8699  0.0377  0.4993
10757SOL    HW237119   9.042   9.299   9.369 -1.7338  0.5473  0.7423
10758SOL     OW37120   5.956   4.655   5.499  0.2974  0.2371 -0.3781
10758SOL    HW137121   5.980   4.689   5.585 -1.1061  0.5829 -0.1065
10758SOL    HW237122   5.961   4.560   5.508  2.5468  0.2818 -0.6454
10759SOL     OW37123   4.236   7.444   0.419 -0.3252 -0.0369  0.5984
10759SOL    HW137124   4.159   7.423   0.365 -0.8677  0.2818  1.2377
10759SOL    HW237125   4.306   7.456   0.355 -1.2008  1.4730 -0.1573
10760SOL     OW37126   8.807   4.925   8.483 -0.3363 -0.2531  0.1334
10760SOL    HW137127   8.852   4.882   8.556 -1.7718  0.2348  1.3521
10760SOL    HW237128   8.772   4.853   8.431  1.2210 -0.6211 -0.4704
10761SOL     OW37129   1.738   8.085   6.927  0.5165  0.0780 -0.3101
10761SOL    HW137130   1.748   8.175   6.893  2.1135 -1.3570 -4.3036
10761SOL    HW237131   1.828   8.056   6.942 -0.0497 -0.3876  2.6892
10762SOL     OW37132   0.715   2.375   6.240 -0.1621  0.2419 -0.1548
10762SOL    HW137133   0.782   2.443   6.251 -0.6512  0.9444 -1.2881
10762SOL    HW237134   0.698   2.343   6.328  3.1547 -1.4467  0.0228
10763SOL     OW37135   0.359   7.179   8.536  0.3356  0.1165  0.4834
10763SOL    HW137136   0.361   7.205   8.628  0.1052  0.4493  0.3943
10763SOL    HW237137   0.278   7.217   8.502 -0.5528 -1.5769  0.6065
10764SOL     OW37138   2.359   7.059   6.633 -0.0824  0.0541  0.2118
10764SOL    HW137139   2.293   7.008   6.587 -0.6644  1.0170 -0.0330
10764SOL    HW237140   2.442   7.017   6.610 -0.6319 -1.7142  1.2185
10765SOL     OW37141   0.286   4.553   0.300  0.1959  0.7809 -0.3429
10765SOL    HW137142   0.285   4.459   0.280 -0.4484  0.6658  0.1854
10765SOL    HW237143   0.278   4.596   0.214  1.3151  0.3777 -0.6641
10766SOL     OW37144   1.753   3.567   8.509  0.3435 -0.0838 -0.3624
10766SOL    HW137145   1.744   3.566   8.414  0.7921 -1.8296 -0.4295
10766SOL    HW237146   1.664   3.565   8.542  0.1482 -2.8083 -0.8299
10767SOL     OW37147   5.752   2.641   1.158  0.4472  0.1965 -0.3022
10767SOL    HW137148   5.745   2.731   1.192  0.5201  0.3051 -0.5702
10767SOL    HW237149   5.809   2.597   1.221 -0.7663 -0.0808  0.6543
10768SOL     OW37150   8.317   4.069   3.354 -0.1843  0.5015 -0.4120
10768SOL    HW137151   8.355   4.126   3.287 -1.5529  0.4047 -1.3127
10768SOL    HW237152   8.229   4.104   3.368 -0.4629 -0.4105  0.2164
10769SOL     OW37153   2.149   6.580   7.336 -0.1548 -0.1681 -0.0463
10769SOL    HW137154   2.078   6.644   7.335  0.1452  0.1835  0.4266
10769SOL    HW237155   2.183   6.585   7.426  0.2746 -0.5405 -0.1894
10770SOL     OW37156   3.192   0.149   6.574 -0.5514  0.4530  0.5309
10770SOL    HW137157   3.209   0.177   6.664 -0.9981 -0.0524  0.7809
10770SOL    HW237158   3.243   0.209   6.520  0.9254 -0.1697  1.1757
10771SOL     OW37159   1.211   9.527   5.648  0.3401  0.6887 -0.3425
10771SOL    HW137160   1.275   9.598   5.648  2.8048 -1.3655  0.0622
10771SOL    HW237161   1.237   9.471   5.575 -1.4763  0.1258 -0.6031
10772SOL     OW37162   5.156   6.965   2.652  0.0789  0.1560 -0.0361
10772SOL    HW137163   5.168   7.051   2.693  2.1710  0.0924 -0.4079
10772SOL    HW237164   5.156   6.904   2.726 -0.0912  0.3598  0.1370
10773SOL     OW37165   8.524   5.720   2.841 -0.0612  0.0955  0.3408
10773SOL    HW137166   8.487   5.808   2.854 -1.1295  0.1122 -2.2082
10773SOL    HW237167   8.489   5.668   2.913 -0.3209  1.4841  1.2628
10774SOL     OW37168   1.501   7.867   5.779 -0.2884 -0.0286  0.1878
10774SOL    HW137169   1.449   7.796   5.743  1.0089 -1.0929  0.3586
10774SOL    HW237170   1.514   7.928   5.706  1.3805 -1.6140 -0.9139
10775SOL     OW37171   0.266   2.886   4.153 -0.4320 -0.6095 -0.0798
10775SOL    HW137172   0.349   2.879   4.105 -0.8564 -2.9218 -0.6055
10775SOL    HW237173   0.288   2.858   4.242 -0.8936 -2.9265 -0.6225
10776SOL     OW37174   3.263   5.798   2.726  0.2766 -0.2100 -0.0433
10776SOL    HW137175   3.230   5.722   2.773  1.6094 -1.9720 -1.7579
10776SOL    HW237176   3.340   5.766   2.679  0.8603  2.1967 -0.9162
10777SOL     OW37177   5.388   4.991   9.021  0.4040  0.2754 -0.7100
10777SOL    HW137178   5.473   4.952   9.001  0.6910  1.4405 -1.8385
10777SOL    HW237179   5.398   5.084   9.003 -0.9194  0.5501 -0.2114
10778SOL     OW37180   7.061   6.742   4.222 -0.2139  0.5130 -0.1371
10778SOL    HW137181   6.970   6.731   4.195  0.2585  1.5390 -2.3232
10778SOL    HW237182   7.095   6.653   4.227 -1.2718  0.1267  0.5431
10779SOL     OW37183   2.682   7.979   5.610  0.4986 -0.8691 -0.8456
10779SOL    HW137184   2.667   8.053   5.551  1.3169 -1.1017 -1.3587
10779SOL    HW237185   2.595   7.958   5.645  0.4311  1.2151  0.4020
10780SOL     OW37186   3.304   1.296   6.371  0.8602  0.1147  0.1881
10780SOL    HW137187   3.267   1.377   6.335  1.6446  0.8971  1.0836
10780SOL    HW237188   3.318   1.315   6.463  3.2020 -0.2176 -0.0259
10781SOL     OW37189   8.012   1.940   3.653 -0.2614 -0.1964  0.5710
10781SOL    HW137190   8.074   1.869   3.636  0.9238  0.9553 -0.0290
10781SOL    HW237191   8.063   2.005   3.702 -1.0267  0.7138  0.1821
10782SOL     OW37192   6.776   4.906   7.218  0.4715 -0.1085  0.0878
10782SOL    HW137193   6.787   4.995   7.184  0.4696  1.1296  3.0649
10782SOL    HW237194   6.688   4.906   7.255  1.1829 -0.7027  1.8410
10783SOL     OW37195   7.921   2.759   8.851 -0.0643  0.0573 -0.0887
10783SOL    HW137196   7.974   2.685   8.881 -0.5010  0.2942  1.3740
10783SOL    HW237197   7.852   2.720   8.799  0.5444 -0.4151 -0.5577
10784SOL     OW37198   0.098   5.288   3.592 -0.0555 -0.3337  0.1725
10784SOL    HW137199   0.193   5.296   3.587 -0.1167 -0.2317 -1.3329
10784SOL    HW237200   0.081   5.197   3.568 -0.4046  0.0415 -1.0800
10785SOL     OW37201   0.660   6.376   9.010 -0.2504 -0.1390 -0.1357
10785SOL    HW137202   0.642   6.407   9.099  4.7211  0.6618  0.8635
10785SOL    HW237203   0.623   6.444   8.953 -1.1928  0.7305  1.4434
10786SOL     OW37204   2.672   6.200   7.747 -0.3297  0.3517 -0.4533
10786SOL    HW137205   2.582   6.230   7.742  0.0199  1.4262 -0.7370
10786SOL    HW237206   2.707   6.242   7.826 -0.1758 -0.3792 -0.1175
10787SOL     OW37207   0.896   3.749   2.017  0.8757  1.0761 -0.2492
10787SOL    HW137208   0.835   3.704   2.076  0.3611 -0.1897 -1.6850
10787SOL    HW237209   0.961   3.681   1.994  1.6953  1.8563 -0.2950
10788SOL     OW37210   0.509   8.608   2.198  0.4253  0.3338 -0.0944
10788SOL    HW137211   0.539   8.592   2.109  0.8786  1.2765 -0.1144
10788SOL    HW237212   0.548   8.537   2.249  0.8334  0.2560 -0.5071
10789SOL     OW37213   7.170   0.765   9.486  0.7427 -0.4909 -0.3115
10789SOL    HW137214   7.178   0.846   9.436 -0.3001 -0.8648 -1.1241
10789SOL    HW237215   7.254   0.756   9.531  0.9831  0.8690 -0.4579
10790SOL     OW37216   2.917   3.347   4.009 -0.2819  0.1160  0.4819
10790SOL    HW137217   2.917   3.345   4.105  3.2735  1.2628  0.6711
10790SOL    HW237218   2.897   3.438   3.987  0.6499  0.2868  0.2791
10791SOL     OW37219   8.791   8.162   0.877 -0.3115  0.9588 -0.2930
10791SOL    HW137220   8.756   8.077   0.903  0.5140 -0.0080 -2.1025
10791SOL    HW237221   8.720   8.224   0.893 -0.5953  0.1305  2.0037
10792SOL     OW37222   6.026   1.582   8.254  0.2122  0.4063 -0.1231
10792SOL    HW137223   5.986   1.578   8.341 -0.3705  0.3692 -0.3873
10792SOL    HW237224   6.068   1.497   8.243  0.8654  0.6544  0.3880
10793SOL     OW37225   3.689   5.326   1.677  0.0862  0.0785 -0.8739
10793SOL    HW137226   3.721   5.345   1.765  1.2477 -1.3244 -0.9604
10793SOL    HW237227   3.762   5.282   1.633 -0.5393  0.5481 -2.4768
10794SOL     OW37228   7.077   2.847   4.371  0.3075 -0.1377  0.3926
10794SOL    HW137229   7.013   2.918   4.366  0.7013  0.2531  0.8241
10794SOL    HW237230   7.125   2.863   4.452  1.8787  0.3609 -0.5964
10795SOL     OW37231   9.154   9.088   4.755  0.4628 -0.3180 -0.1433
10795SOL    HW137232   9.205   9.032   4.696  2.7764  1.1733  0.2796
10795SOL    HW237233   9.130   9.164   4.701 -1.1492 -0.8682 -0.2552
10796SOL     OW37234   4.405   8.316   3.666  1.2238 -0.3080  0.5523
10796SOL    HW137235   4.494   8.335   3.697  1.7444  0.9823 -1.4765
10796SOL    HW237236   4.356   8.396   3.686  0.7272 -0.7101  0.9434
10797SOL     OW37237   3.668   2.960   7.183  0.7967  0.0146  0.1865
10797SOL    HW137238   3.679   2.975   7.277 -0.0062 -1.0448  0.4682
10797SOL    HW237239   3.647   2.867   7.176  1.5413 -0.0794 -1.1142
10798SOL     OW37240   5.736   9.610   7.783  0.2476 -0.1510 -0.1279
10798SOL    HW137241   5.784   9.624   7.865  3.9943  0.5239 -2.1862
10798SOL    HW237242   5.782   9.536   7.742 -1.5272 -0.4745 -1.6560
10799SOL     OW37243   3.484   5.677   1.391  0.5382 -0.1607 -0.3581
10799SOL    HW137244   3.392   5.653   1.407  0.3989  0.4847 -0.1648
10799SOL    HW237245   3.479   5.765   1.353  1.1900  0.7650  1.5990
10800SOL     OW37246   6.294   7.287   9.114 -0.6222 -0.1797 -0.3075
10800SOL    HW137247   6.312   7.380   9.124  0.3302 -0.4641  0.8489
10800SOL    HW237248   6.221   7.283   9.052  0.0881  1.2669 -1.2838
10801SOL     OW37249   8.889   0.279   7.517 -0.5592 -0.0006  0.4608
10801SOL    HW137250   8.863   0.246   7.431 -3.0310 -0.9054  1.4857
10801SOL    HW237251   8.973   0.236   7.535  0.5177  0.9743 -1.8613
10802SOL     OW37252   8.014   5.177   0.591  0.0691 -0.1138 -0.2666
10802SOL    HW137253   8.098   5.130   0.589 -0.4841 -1.2550  1.2752
10802SOL    HW237254   8.037   5.267   0.569  1.6388 -0.4870 -0.3128
10803SOL     OW37255   8.663   9.580   2.372 -0.2770  0.5611 -0.2086
10803SOL    HW137256   8.614   9.539   2.443  0.4661 -0.3352 -0.1913
10803SOL    HW237257   8.603   9.579   2.297 -1.3664  2.2456  0.5678
10804SOL     OW37258   8.738   0.158   5.528 -0.1127  0.1406 -0.3166
10804SOL    HW137259   8.657   0.181   5.574 -0.5830 -0.9113 -0.5855
10804SOL    HW237260   8.790   0.111   5.593  1.0250  2.1906  0.3590
10805SOL     OW37261   2.785   8.654   2.205 -0.0014 -0.1209  0.3407
10805SOL    HW137262   2.770   8.568   2.245 -0.8152 -0.5977 -0.9187
10805SOL    HW237263   2.704   8.702   2.222  0.4184  0.3812  0.9622
10806SOL     OW37264   4.058   4.340   0.545  0.0071 -0.2381  0.0355
10806SOL    HW137265   4.134   4.385   0.583 -0.8004  0.4051  0.9144
10806SOL    HW237266   4.021   4.404   0.484 -0.3377 -0.2339  0.2530
10807SOL     OW37267   8.596   6.834   0.195 -0.5651  0.8545  0.7140
10807SOL    HW137268   8.552   6.917   0.175 -2.1702 -0.0841  0.1348
10807SOL    HW237269   8.529   6.782   0.240 -0.1042 -0.6960 -0.3143
10808SOL     OW37270   1.945   9.474   1.706  0.5735  0.6724 -0.1536
10808SOL    HW137271   1.959   9.564   1.738  2.2850  0.7182 -0.9373
10808SOL    HW237272   1.897   9.485   1.624 -2.1158  0.6465  1.2910
10809SOL     OW37273   9.104   3.589   4.789  0.0042 -0.2208 -0.5452
10809SOL    HW137274   9.144   3.611   4.705 -2.7210 -0.3639 -1.9892
10809SOL    HW237275   9.081   3.496   4.781 -0.5078 -0.1786  0.2529
10810SOL     OW37276   9.452   5.547   5.243 -0.6331 -0.2679 -0.0716
10810SOL    HW137277   9.428   5.529   5.333 -0.3874 -1.9799 -0.3080
10810SOL    HW237278   9.416   5.473   5.193  0.6843 -0.2412 -1.1261
10811SOL     OW37279   0.590   3.307   5.439  0.7736 -0.2188 -0.5336
10811SOL    HW137280   0.652   3.235   5.451  1.5315  0.5044 -0.0579
10811SOL    HW237281   0.642   3.379   5.404  0.2820  0.5096  0.1942
10812SOL     OW37282   6.810   0.425   1.859  0.1295 -0.0153 -0.3190
10812SOL    HW137283   6.740   0.413   1.795 -0.8741  0.1035  0.7206
10812SOL    HW237284   6.853   0.506   1.833 -1.2661  0.8757  0.0292
10813SOL     OW37285   7.205   8.695   1.619 -0.7052  0.2599 -0.2471
10813SOL    HW137286   7.241   8.606   1.617 -1.7736 -0.2233  0.6432
10813SOL    HW237287   7.164   8.702   1.705 -0.4781  1.6924 -0.2407
10814SOL     OW37288   5.335   3.474   8.429  0.0433 -0.0021 -0.2030
10814SOL    HW137289   5.414   3.496   8.479 -0.1900 -1.4822  0.8843
10814SOL    HW237290   5.368   3.446   8.344  0.7188 -0.6894  0.2689
10815SOL     OW37291   3.546   7.246   1.372 -0.4680  0.3939  0.2457
10815SOL    HW137292   3.462   7.287   1.393 -0.3930 -0.2759  2.1323
10815SOL    HW237293   3.523   7.168   1.323 -0.7645  1.4011 -1.2652
10816SOL     OW37294   8.533   6.984   2.586 -0.1353  0.6889  0.1574
10816SOL    HW137295   8.519   7.076   2.607  1.5598  1.2423 -0.9373
10816SOL    HW237296   8.541   6.941   2.671 -1.6728  1.3909  0.7018
10817SOL     OW37297   6.422   5.601   1.843  0.5431  0.4320 -0.3400
10817SOL    HW137298   6.407   5.690   1.875 -2.0442 -0.0549 -0.0037
10817SOL    HW237299   6.401   5.544   1.917  1.7876 -0.4924 -0.6622
10818SOL     OW37300   7.569   9.208   0.295  0.5884  0.6110  0.0034
10818SOL    HW137301   7.554   9.284   0.240  1.0951  0.5996 -0.1579
10818SOL    HW237302   7.599   9.140   0.235 -0.7965 -0.0226 -0.0039
10819SOL     OW37303   4.839   5.765   3.303 -0.5902 -0.0897  0.2984
10819SOL    HW137304   4.882   5.810   3.230  1.0020 -0.8150  0.7413
10819SOL    HW237305   4.869   5.811   3.381  2.4681 -2.7254  0.9239
10820SOL     OW37306   4.587   2.837   5.597 -0.2013 -0.3253  0.1011
10820SOL    HW137307   4.585   2.799   5.685 -0.8222 -1.1430 -0.2606
10820SOL    HW237308   4.577   2.932   5.613 -0.2727 -0.4562  0.9133
10821SOL     OW37309   2.948   8.099   1.898 -0.2223 -0.4144  0.3427
10821SOL    HW137310   2.966   8.047   1.820  0.8627 -0.9940  0.9592
10821SOL    HW237311   2.976   8.188   1.875 -1.6824 -0.1465 -0.5624
10822SOL     OW37312   6.929   1.660   4.632 -0.6842  0.1781  0.2392
10822SOL    HW137313   6.985   1.715   4.577 -0.6020 -0.0022  0.1404
10822SOL    HW237314   6.894   1.719   4.698  1.2001 -0.0549  1.5430
10823SOL     OW37315   0.540   0.002   1.195 -0.4061 -0.0728  0.0155
10823SOL    HW137316   0.468  -0.021   1.136 -0.4943  2.8403 -1.1709
10823SOL    HW237317   0.619  -0.023   1.147 -0.5236  0.8079 -0.6499
10824SOL     OW37318   3.567   3.960   8.533  0.4150  0.7292 -0.0459
10824SOL    HW137319   3.528   3.878   8.562 -1.2560  1.2451 -0.7513
10824SOL    HW237320   3.601   3.999   8.614  1.8620 -0.9276  0.2125
10825SOL     OW37321   2.942   5.521   6.985  0.0471  0.6618 -0.1206
10825SOL    HW137322   2.850   5.531   7.009  0.3352  1.3090  0.7694
10825SOL    HW237323   2.990   5.547   7.064  1.0333  2.3630 -1.2161
10826SOL     OW37324   6.010   6.542   6.701  0.2616  0.6114  0.2685
10826SOL    HW137325   6.069   6.513   6.632 -0.1365  0.7760 -0.1459
10826SOL    HW237326   5.922   6.524   6.667  0.0319  1.5420  0.3414
10827SOL     OW37327   1.668   8.235   5.009 -0.3087  0.2433  0.1126
10827SOL    HW137328   1.713   8.152   4.991  1.3458  1.1686 -0.1264
10827SOL    HW237329   1.576   8.217   4.986  0.0725 -1.4185 -0.2558
10828SOL     OW37330   7.965   2.210   4.529  0.4116 -0.2384 -0.2520
10828SOL    HW137331   7.870   2.208   4.534  0.4080  0.6459  0.0926
10828SOL    HW237332   7.986   2.155   4.453 -0.3697 -0.3903 -0.3660
10829SOL     OW37333   3.964   0.760   8.830 -0.1034  0.3924 -0.2501
10829SOL    HW137334   3.893   0.817   8.801 -0.1284  1.1408  1.2057
10829SOL    HW237335   4.043   0.803   8.800 -0.1593  0.8191  0.2096
10830SOL     OW37336   8.991   6.774   8.810 -0.5453 -0.0199 -0.3036
10830SOL    HW137337   8.919   6.829   8.841  0.4078  1.7684 -1.0502
10830SOL    HW237338   9.009   6.807   8.722 -1.5949 -3.3029 -1.8812
10831SOL     OW37339   7.101   6.848   6.087  0.5926  0.2874  0.1786
10831SOL    HW137340   7.028   6.811   6.036 -1.0185  0.3153  2.3532
10831SOL    HW237341   7.108   6.791   6.163  0.4111  2.3739  1.8305
10832SOL     OW37342   2.859   9.671   7.833 -0.0719  0.1432 -0.1517
10832SOL    HW137343   2.819   9.588   7.857 -0.2759  0.1737 -0.3855
10832SOL    HW237344   2.789   9.735   7.839 -0.3664  0.0137 -1.6726
10833SOL     OW37345   5.546   7.541   6.014  0.0233 -0.1215  0.5217
10833SOL    HW137346   5.634   7.579   6.007 -1.2997  3.1863 -0.4079
10833SOL    HW237347   5.501   7.597   6.077 -1.5516 -1.5175  0.7035
10834SOL     OW37348   1.147   7.797   4.851  0.1379 -0.5172  0.3107
10834SOL    HW137349   1.199   7.790   4.771 -1.5147  1.7578 -1.0658
10834SOL    HW237350   1.096   7.716   4.854 -1.5406  0.3537 -2.3104
10835SOL     OW37351   6.661   2.830   0.120 -0.3060 -0.2232  0.5497
10835SOL    HW137352   6.718   2.799   0.049 -0.9625 -0.4543  0.1061
10835SOL    HW237353   6.596   2.885   0.076 -0.8254 -0.5121  0.9402
10836SOL     OW37354   8.540   7.540   0.066 -0.0218  0.1557  0.0923
10836SOL    HW137355   8.500   7.453   0.058  0.4673 -0.0222 -0.5727
10836SOL    HW237356   8.470   7.596   0.099 -0.7759 -0.1843 -0.8647
10837SOL     OW37357   3.154   9.649   6.445  0.1285  0.2234 -0.0424
10837SOL    HW137358   3.183   9.715   6.508 -1.4336  0.0719  0.8911
10837SOL    HW237359   3.080   9.690   6.401 -0.9684 -0.9263  0.6681
10838SOL     OW37360   1.560   5.066   2.031  0.4208 -0.4918 -0.3162
10838SOL    HW137361   1.622   5.123   2.077  1.1383 -2.9445  2.0453
10838SOL    HW237362   1.475   5.106   2.046  0.8971  0.0067  1.2752
10839SOL     OW37363   1.721   9.270   3.703  0.1929  0.1806 -0.4353
10839SOL    HW137364   1.790   9.275   3.637 -0.0143 -2.0013 -0.8828
10839SOL    HW237365   1.749   9.201   3.763 -0.4662  0.9266  0.7693
10840SOL     OW37366   4.782   8.488   4.581  0.4289  0.0569 -0.3098
10840SOL    HW137367   4.714   8.509   4.646 -1.0991 -1.5426 -1.3135
10840SOL    HW237368   4.744   8.516   4.498  0.9019 -1.0974 -0.9218
10841SOL     OW37369   1.710   0.864   6.802 -0.1795 -0.8832  0.1182
10841SOL    HW137370   1.676   0.939   6.850  0.7458 -0.2361 -0.2252
10841SOL    HW237371   1.774   0.825   6.861  1.0164 -0.0430 -0.5902
10842SOL     OW37372   7.407   8.130   5.395  0.6978  0.1503 -0.3384
10842SOL    HW137373   7.385   8.222   5.406 -0.2593 -0.0753 -0.3235
10842SOL    HW237374   7.327   8.083   5.417  0.6727 -0.6111 -1.9122
10843SOL     OW37375   9.116   1.506   4.462 -0.6358  0.3617 -0.4523
10843SOL    HW137376   9.161   1.588   4.442  1.6211 -0.6008  0.3339
10843SOL    HW237377   9.072   1.481   4.380  1.2050  0.8278 -1.6314
10844SOL     OW37378   3.733   1.244   2.393  0.1808  0.3074  0.1104
10844SOL    HW137379   3.647   1.219   2.360 -0.1323 -1.7228  2.1842
10844SOL    HW237380   3.792   1.232   2.319 -1.2984  2.0240 -1.4512
10845SOL     OW37381   6.465   2.222   3.775 -0.3304 -0.8446 -0.3498
10845SOL    HW137382   6.398   2.222   3.706 -1.5408 -2.1944  0.7482
10845SOL    HW237383   6.457   2.308   3.817 -1.3884 -0.9775 -0.2562
10846SOL     OW37384   3.140   6.118   3.553  0.7978 -0.1179  0.1624
10846SOL    HW137385   3.187   6.146   3.474 -0.1599 -0.3227 -0.5039
10846SOL    HW237386   3.064   6.069   3.519  1.5068 -2.0703  1.2469
10847SOL     OW37387   2.270   0.906   0.036  0.3447  0.4693 -0.1980
10847SOL    HW137388   2.362   0.888   0.055 -0.5616 -2.3020  2.5382
10847SOL    HW237389   2.238   0.949   0.116 -1.3733 -1.7206  0.3903
10848SOL     OW37390   5.698   3.023   0.386  0.0486  0.2775 -0.4070
10848SOL    HW137391   5.736   2.943   0.350  0.9542  1.5295 -2.3744
10848SOL    HW237392   5.756   3.046   0.458 -0.2414 -0.8099  0.2104
10849SOL     OW37393   5.232   1.973   0.226 -0.5179 -0.1885 -0.0896
10849SOL    HW137394   5.241   1.949   0.318  0.7184 -0.5641 -0.2863
10849SOL    HW237395   5.190   2.059   0.227 -0.8207 -0.3424  0.8049
10850SOL     OW37396   6.856   0.878   5.375  0.3599  0.8041 -0.3184
10850SOL    HW137397   6.803   0.895   5.453 -0.1166  0.9638 -0.6777
10850SOL    HW237398   6.880   0.964   5.342  0.3607  0.7381 -0.4917
10851SOL     OW37399   7.223   1.754   9.124 -0.3889 -0.4523  0.4041
10851SOL    HW137400   7.169   1.831   9.103  1.4845  0.8004 -0.0177
10851SOL    HW237401   7.189   1.684   9.068 -1.6954  0.2296  0.3090
10852SOL     OW37402   1.170   2.720   7.035 -0.3837 -0.1105 -0.0006
10852SOL    HW137403   1.166   2.778   6.959  0.6349  2.3515  1.6871
10852SOL    HW237404   1.261   2.724   7.064 -0.8319 -0.6097  1.5918
10853SOL     OW37405   2.192   8.025   8.776 -0.4644  0.0193 -0.1106
10853SOL    HW137406   2.201   8.018   8.681  0.6163  0.9935 -0.1052
10853SOL    HW237407   2.268   7.978   8.811  0.3181  1.4463  0.1912
10854SOL     OW37408   1.263   5.771   6.984  0.2380 -0.4383 -0.8044
10854SOL    HW137409   1.325   5.822   6.932  1.1600 -1.7265 -1.0186
10854SOL    HW237410   1.176   5.799   6.954  0.7229  0.7272 -1.1517
10855SOL     OW37411   6.518   5.329   3.633  0.8874  0.7510  0.2810
10855SOL    HW137412   6.484   5.270   3.565  0.4540  0.5859  0.6394
10855SOL    HW237413   6.440   5.365   3.676  1.1293 -0.2094  1.6065
10856SOL     OW37414   7.597   7.856   5.331 -0.0850 -1.1631 -0.2727
10856SOL    HW137415   7.517   7.826   5.288 -0.9205 -0.4440  0.7385
10856SOL    HW237416   7.667   7.810   5.285 -1.0500 -1.6306 -1.3348
10857SOL     OW37417   1.463   1.842   2.495 -0.0247  0.0581 -0.2609
10857SOL    HW137418   1.505   1.889   2.567  0.1466 -0.7056  0.1469
10857SOL    HW237419   1.399   1.904   2.460  1.1183  1.0908 -0.6097
10858SOL     OW37420   3.611   8.621   3.089  0.0132 -0.1067  0.7053
10858SOL    HW137421   3.533   8.669   3.060 -0.2528 -1.1294 -0.3460
10858SOL    HW237422   3.684   8.673   3.057 -0.2759 -0.8574 -1.2689
10859SOL     OW37423   7.863   5.470   7.616  0.2820  0.1023  0.5558
10859SOL    HW137424   7.816   5.537   7.567 -0.0601 -0.1618  0.5186
10859SOL    HW237425   7.879   5.400   7.552  0.5461  0.1064  0.6181
10860SOL     OW37426   8.565   8.758   7.562  0.3398 -0.4473  0.2555
10860SOL    HW137427   8.502   8.829   7.562  0.1276 -0.6332 -0.0802
10860SOL    HW237428   8.582   8.740   7.469  1.1788 -0.1413  0.3454
10861SOL     OW37429   3.339   3.172   3.842  0.4290  0.6091 -0.2772
10861SOL    HW137430   3.434   3.166   3.845  0.3604 -1.3046 -0.4580
10861SOL    HW237431   3.320   3.214   3.758  1.1060  0.8319 -0.3233
10862SOL     OW37432   6.621   6.101   2.801 -0.5197  0.1807  0.0028
10862SOL    HW137433   6.570   6.050   2.864  0.9104  1.2363  2.1078
10862SOL    HW237434   6.709   6.065   2.806  0.1109  1.6942  0.2449
10863SOL     OW37435   5.084   7.335   0.039  0.4895  0.0934  0.4509
10863SOL    HW137436   5.099   7.300  -0.049  3.1225 -0.4894  1.0167
10863SOL    HW237437   5.059   7.426   0.024  0.2478 -0.1674 -0.9243
10864SOL     OW37438   7.073   8.452   0.354  0.2388 -0.2557  0.7957
10864SOL    HW137439   7.099   8.364   0.380 -0.2057 -0.8591 -0.6681
10864SOL    HW237440   6.982   8.443   0.324  1.2502 -0.1962 -2.8845
10865SOL     OW37441   1.432   1.938   8.053  0.5721  0.0045  0.1644
10865SOL    HW137442   1.349   1.985   8.059  0.5738  0.3963 -2.0082
10865SOL    HW237443   1.424   1.867   8.117 -2.0433 -0.8069 -0.9314
10866SOL     OW37444   4.296   6.226   6.630  0.9380  0.0854 -0.0465
10866SOL    HW137445   4.302   6.243   6.536  0.8849 -0.8322 -0.2176
10866SOL    HW237446   4.368   6.167   6.649 -0.5404 -1.7898 -0.0023
10867SOL     OW37447   5.072   1.318   7.606 -0.6531  0.2524  0.5028
10867SOL    HW137448   5.086   1.226   7.581  0.3791  0.4994  0.1297
10867SOL    HW237449   5.160   1.355   7.608 -0.8841  0.7707  2.4970
10868SOL     OW37450   7.349   1.167   7.514 -0.5965  0.5671  0.0843
10868SOL    HW137451   7.394   1.187   7.433 -0.8017  1.1137  0.1059
10868SOL    HW237452   7.405   1.102   7.557 -0.3056  0.5508 -0.3180
10869SOL     OW37453   3.353   8.030   4.064  0.0057 -0.1203 -0.1049
10869SOL    HW137454   3.334   7.953   4.117 -3.3330  0.9782  0.5637
10869SOL    HW237455   3.398   8.090   4.124  1.6283 -1.0846 -0.3179
10870SOL     OW37456   9.103   4.692   9.650  0.0010  0.0185  0.9050
10870SOL    HW137457   9.120   4.773   9.602 -1.8655  0.5043  0.9619
10870SOL    HW237458   9.039   4.645   9.596 -0.3826 -0.5102  1.7948
10871SOL     OW37459   3.523   0.290   1.325  0.1416  0.1620 -0.1686
10871SOL    HW137460   3.465   0.363   1.347  0.6993  0.7852 -0.7053
10871SOL    HW237461   3.465   0.214   1.318 -0.5417  0.6771 -0.2080
10872SOL     OW37462   8.045   8.162   1.555 -0.1842  0.6741 -1.3702
10872SOL    HW137463   8.134   8.136   1.576 -0.0368  1.7267 -0.6201
10872SOL    HW237464   7.990   8.108   1.611  0.1381  2.2270  0.5266
10873SOL     OW37465   2.744   5.809   9.446 -0.3143  0.7211 -0.6344
10873SOL    HW137466   2.831   5.778   9.417 -0.9518 -1.5456 -0.3488
10873SOL    HW237467   2.754   5.820   9.540 -0.4221  0.0387 -0.5347
10874SOL     OW37468   6.124   3.407   7.407  0.5894  0.7474 -0.0516
10874SOL    HW137469   6.177   3.334   7.375  0.3432  0.1329  0.9104
10874SOL    HW237470   6.053   3.366   7.457 -1.0131  1.5156 -1.5476
10875SOL     OW37471   9.543   6.772   4.362 -0.2310 -0.0732  0.4419
10875SOL    HW137472   9.527   6.860   4.330  1.7099  0.0870 -0.2591
10875SOL    HW237473   9.537   6.779   4.457  0.3234  0.9389  0.4155
10876SOL     OW37474   4.858   0.885   0.737 -0.3623  0.0309  0.0599
10876SOL    HW137475   4.770   0.873   0.701 -1.3163  3.6668  0.7664
10876SOL    HW237476   4.845   0.890   0.831  0.9273 -1.1126  0.3345
10877SOL     OW37477   1.925   1.330   2.691  0.2484  0.0665 -0.3307
10877SOL    HW137478   1.960   1.247   2.722  1.2760  0.2727 -0.9024
10877SOL    HW237479   1.977   1.397   2.736  0.5793  0.3812 -1.1668
10878SOL     OW37480   5.913   3.627   2.988 -0.1758 -0.1910  0.0227
10878SOL    HW137481   5.974   3.667   3.050 -0.5127 -1.1001  0.9683
10878SOL    HW237482   5.924   3.678   2.907  1.8523 -0.3492  0.1366
10879SOL     OW37483   2.210   6.288   4.676  0.0242 -0.0224 -0.2986
10879SOL    HW137484   2.301   6.315   4.679 -0.4034  1.5509 -0.5280
10879SOL    HW237485   2.211   6.196   4.704  1.7023 -0.1488 -0.6762
10880SOL     OW37486   6.412   7.811   9.208  0.9584 -0.1467 -0.5968
10880SOL    HW137487   6.422   7.784   9.116  0.5934 -1.0770 -0.3824
10880SOL    HW237488   6.442   7.901   9.210 -0.5282  0.4391 -1.9636
10881SOL     OW37489   1.916   4.991   3.590 -0.0385  0.3688  0.0900
10881SOL    HW137490   1.964   4.980   3.672  0.6585  0.5923 -0.2752
10881SOL    HW237491   1.832   5.029   3.616  0.1089  0.2760  0.7143
10882SOL     OW37492   5.611   3.826   3.722 -0.0222  0.2158  0.6085
10882SOL    HW137493   5.666   3.897   3.690 -0.3662  0.9041  1.4998
10882SOL    HW237494   5.538   3.823   3.661  0.0944  0.4970  0.4523
10883SOL     OW37495   3.836   9.523   2.584 -0.0640  0.2232  0.0040
10883SOL    HW137496   3.747   9.496   2.562  0.3597 -0.4450 -1.0005
10883SOL    HW237497   3.835   9.618   2.578 -0.8992  0.2790  0.7922
10884SOL     OW37498   5.417   8.846   2.865  0.2646 -0.6517  0.0091
10884SOL    HW137499   5.492   8.828   2.807  1.1068 -0.6946  1.0707
10884SOL    HW237500   5.443   8.924   2.913 -0.7664 -0.1553 -0.2312
10885SOL     OW37501   6.750   6.535   7.127 -0.3713 -0.5656 -0.2000
10885SOL    HW137502   6.730   6.542   7.220 -1.5951 -2.7208 -0.2438
10885SOL    HW237503   6.821   6.470   7.123  1.3305  1.2231 -0.6556
10886SOL     OW37504   0.654   1.271   3.799 -0.2305  0.4106  0.2701
10886SOL    HW137505   0.620   1.353   3.835 -0.8903  0.1567  0.2417
10886SOL    HW237506   0.713   1.298   3.729 -0.9286  0.8429 -0.1541
10887SOL     OW37507   2.428   9.554   4.989  0.1496 -0.5053 -0.4927
10887SOL    HW137508   2.442   9.479   5.047 -1.7228 -0.7373 -0.2681
10887SOL    HW237509   2.333   9.569   4.992  0.1747  0.3061 -2.4850
10888SOL     OW37510   3.945   5.689   1.741  0.4521 -0.1417 -0.0685
10888SOL    HW137511   3.868   5.685   1.684 -0.8787  0.4264  1.6014
10888SOL    HW237512   4.018   5.667   1.683 -0.8974 -0.3533 -1.8047
10889SOL     OW37513   1.413   5.388   2.543 -0.2014 -0.6025 -0.5813
10889SOL    HW137514   1.505   5.365   2.543 -0.4330 -1.5721 -1.1247
10889SOL    HW237515   1.411   5.480   2.518  0.6849 -0.2197  0.6800
10890SOL     OW37516   0.444   9.125   7.462 -0.2455  0.3422  0.1030
10890SOL    HW137517   0.524   9.178   7.471 -0.7091  0.8277  1.9487
10890SOL    HW237518   0.382   9.167   7.522 -1.3653 -0.9930 -0.0853
10891SOL     OW37519   8.990   8.531   4.331 -0.0758  0.3993  0.2051
10891SOL    HW137520   8.990   8.614   4.379 -0.2608  0.1871  0.5764
10891SOL    HW237521   8.899   8.502   4.333  0.2826 -0.7580  1.7592
10892SOL     OW37522   8.249   0.256   1.116  0.8065  0.2354  0.0260
10892SOL    HW137523   8.279   0.210   1.194  0.4975 -0.0447 -0.0154
10892SOL    HW237524   8.161   0.221   1.100 -0.1881  2.1164  1.0134
10893SOL     OW37525   9.435   1.987   5.109 -0.1177  0.7750 -0.7116
10893SOL    HW137526   9.423   1.943   5.194 -0.9934  0.4286 -1.0067
10893SOL    HW237527   9.409   2.077   5.125  0.0655  0.7957 -0.5245
10894SOL     OW37528   5.685   7.086   3.042  0.5413 -0.8476 -0.2453
10894SOL    HW137529   5.654   7.016   3.099 -0.8877  0.1764  0.3098
10894SOL    HW237530   5.666   7.166   3.091  1.5471 -0.0446 -1.1249
10895SOL     OW37531   9.420   0.130   5.480 -0.0015  0.5643  0.9922
10895SOL    HW137532   9.350   0.115   5.543 -1.1728  1.3199 -0.0622
10895SOL    HW237533   9.449   0.219   5.498 -0.1459  0.6797  0.6809
10896SOL     OW37534   7.153   3.534   0.036  0.3566  0.0529  0.1825
10896SOL    HW137535   7.079   3.593   0.038 -0.8385 -1.4013  1.7320
10896SOL    HW237536   7.186   3.533   0.126 -1.4351 -3.6440  0.9794
10897SOL     OW37537   1.141   4.857   8.006 -0.1765  0.8793  0.3008
10897SOL    HW137538   1.106   4.783   8.056  1.4883  0.0223  0.3034
10897SOL    HW237539   1.203   4.817   7.945 -0.0295  2.1908 -0.4504
10898SOL     OW37540   5.041   4.209   0.412  0.3521  0.0002  0.3493
10898SOL    HW137541   5.079   4.208   0.325 -1.3041  2.3300 -0.5216
10898SOL    HW237542   5.000   4.295   0.419 -1.9175 -1.1135  2.3817
10899SOL     OW37543   4.071   2.047   6.138 -0.1378 -0.0069 -0.2246
10899SOL    HW137544   4.023   1.983   6.087  1.5496 -0.5087 -1.2573
10899SOL    HW237545   4.073   2.125   6.083  1.4473 -0.4607 -0.8671
10900SOL     OW37546   8.806   6.139   0.545 -0.2749  0.0500  0.1985
10900SOL    HW137547   8.892   6.123   0.505 -0.6000  2.0892 -1.5020
10900SOL    HW237548   8.757   6.059   0.527  0.0994  0.2872 -2.3018
10901SOL     OW37549   2.236   3.282   2.477  0.4215  0.0609 -0.0073
10901SOL    HW137550   2.169   3.339   2.514  0.3967 -0.5335  0.8744
10901SOL    HW237551   2.253   3.217   2.545  1.5252 -0.0973 -0.4213
10902SOL     OW37552   2.851   8.452   6.332 -0.3275 -0.6895  0.2969
10902SOL    HW137553   2.778   8.430   6.274 -0.0078  0.1490 -0.4439
10902SOL    HW237554   2.851   8.382   6.397 -0.1677 -2.1502 -1.2141
10903SOL     OW37555   7.649   0.947   5.239 -0.3784 -0.2695 -0.1421
10903SOL    HW137556   7.669   1.011   5.172 -0.3893 -1.2906 -1.1576
10903SOL    HW237557   7.554   0.942   5.241 -0.3657 -0.7032 -0.5131
10904SOL     OW37558   8.372   8.288   2.701  0.3202  0.1717  0.0533
10904SOL    HW137559   8.281   8.267   2.681  0.4088 -1.2405  0.9382
10904SOL    HW237560   8.369   8.331   2.787  0.4084  1.1577 -0.4230
10905SOL     OW37561   0.527   7.353   6.772  0.2828  0.1006 -0.1211
10905SOL    HW137562   0.461   7.407   6.728 -1.1260 -1.6804 -0.2945
10905SOL    HW237563   0.544   7.399   6.855  0.0457  1.4331 -0.7843
10906SOL     OW37564   2.876   6.574   2.658 -0.3773 -0.0303  0.0458
10906SOL    HW137565   2.789   6.535   2.664  1.0839 -3.6901  0.1639
10906SOL    HW237566   2.905   6.556   2.568  0.2475  1.2249 -0.0313
10907SOL     OW37567   9.731   0.254   9.649 -0.0398 -0.2525 -0.0790
10907SOL    HW137568   9.810   0.199   9.650 -0.0562 -0.2845 -0.3475
10907SOL    HW237569   9.742   0.310   9.573  1.3764  2.2135  1.8133
10908SOL     OW37570   0.073   3.838   4.676 -0.0893  0.3178 -0.0360
10908SOL    HW137571   0.070   3.894   4.754  0.4300  0.4172 -0.0831
10908SOL    HW237572  -0.019   3.817   4.658 -0.3404  1.6383 -0.3698
10909SOL     OW37573   1.894   4.589   9.710 -0.1602 -0.4441  0.3632
10909SOL    HW137574   1.977   4.591   9.756 -0.9132  1.8885  1.7914
10909SOL    HW237575   1.917   4.604   9.618  1.0697 -1.2380  0.5183
10910SOL     OW37576   8.309   5.738   8.897 -0.4387 -0.1090 -0.0458
10910SOL    HW137577   8.400   5.714   8.914 -0.6717  0.0459  1.6437
10910SOL    HW237578   8.277   5.673   8.835  0.9492  0.1131 -1.0286
10911SOL     OW37579   7.662   6.245   5.874  0.5280  0.0314 -0.1132
10911SOL    HW137580   7.698   6.156   5.871  1.7777  0.4917  0.4179
10911SOL    HW237581   7.710   6.287   5.946 -0.7138  0.8578  0.2654
10912SOL     OW37582   7.684   2.050   3.541  0.0338  0.6497 -0.1884
10912SOL    HW137583   7.779   2.054   3.526 -0.2123  0.6255 -1.9807
10912SOL    HW237584   7.651   2.132   3.505 -0.4442  1.7331  2.4729
10913SOL     OW37585   7.088   5.993   9.063  0.3218  0.0970  0.5005
10913SOL    HW137586   7.130   5.950   8.989 -0.1494  0.1387  0.2049
10913SOL    HW237587   7.087   5.927   9.132 -0.6482 -0.4819 -0.0381
10914SOL     OW37588   5.872   3.735   2.053 -0.2080  0.1029  0.1140
10914SOL    HW137589   5.963   3.752   2.029 -0.3075 -0.9951 -1.1507
10914SOL    HW237590   5.821   3.771   1.981 -0.7791  0.5821  0.7438
10915SOL     OW37591   3.976   0.950   4.874 -0.6596 -0.4005 -0.1495
10915SOL    HW137592   3.890   0.992   4.879  0.6710  2.4267  1.0130
10915SOL    HW237593   4.026   0.988   4.946  1.5902 -1.9841 -0.7622
10916SOL     OW37594   1.326   6.781   2.569 -0.1988  0.0179  0.0702
10916SOL    HW137595   1.309   6.793   2.662  0.1311 -2.8737  0.6013
10916SOL    HW237596   1.295   6.692   2.550  2.6808 -0.7493 -1.7917
10917SOL     OW37597   3.120   4.422   1.370 -0.5289 -0.4001 -0.3452
10917SOL    HW137598   3.047   4.433   1.431 -0.6893  0.4715 -0.6759
10917SOL    HW237599   3.117   4.330   1.345 -2.0491 -0.2014 -1.0010
10918SOL     OW37600   5.096   0.314   7.243 -0.4389 -0.1358 -0.2377
10918SOL    HW137601   5.029   0.335   7.179  0.3606  1.7900 -0.4990
10918SOL    HW237602   5.105   0.394   7.296  1.2956 -0.5103  0.0888
10919SOL     OW37603   8.297   6.316   3.369  0.3422  0.1832  0.8197
10919SOL    HW137604   8.255   6.332   3.284 -0.5982 -0.4853  1.1343
10919SOL    HW237605   8.366   6.253   3.350  2.2184  2.3348  0.0580
10920SOL     OW37606   4.993   5.294   7.480 -0.0585 -0.1567 -0.1674
10920SOL    HW137607   5.062   5.234   7.509 -0.4032 -0.5562 -0.1654
10920SOL    HW237608   5.032   5.381   7.489  0.1899 -0.3344  0.5517
10921SOL     OW37609   8.412   1.087   4.403  0.2621 -0.1814  0.2262
10921SOL    HW137610   8.335   1.037   4.377  0.7184 -0.4323 -0.6646
10921SOL    HW237611   8.376   1.165   4.445 -0.4638 -0.7274  0.6630
10922SOL     OW37612   0.644   1.813   6.654 -0.1015 -0.4324 -0.2752
10922SOL    HW137613   0.728   1.772   6.672 -0.3117 -1.2865 -1.1512
10922SOL    HW237614   0.605   1.759   6.585 -0.8060  0.6927 -0.7940
10923SOL     OW37615   6.600   2.158   0.156  0.1280  0.3260  0.1949
10923SOL    HW137616   6.531   2.218   0.128  0.0628  1.0854  1.8684
10923SOL    HW237617   6.681   2.209   0.146  0.5738 -0.7271 -2.2427
10924SOL     OW37618   5.334   1.430   1.705 -0.1419  0.1911 -0.1117
10924SOL    HW137619   5.315   1.514   1.746  0.5110  0.8356 -1.0716
10924SOL    HW237620   5.271   1.423   1.633 -1.2047 -0.8767  0.8730
10925SOL     OW37621   3.121   2.885   8.767  0.1173  0.1923 -0.3878
10925SOL    HW137622   3.104   2.810   8.710  0.6603 -0.5906  0.4673
10925SOL    HW237623   3.164   2.948   8.710  0.9780 -0.7253 -0.7729
10926SOL     OW37624   8.315   6.196   4.237 -0.3679  0.0209 -0.5058
10926SOL    HW137625   8.289   6.275   4.190  0.2568 -0.0093 -0.9067
10926SOL    HW237626   8.244   6.134   4.221 -1.1764  0.6955  0.3359
10927SOL     OW37627   2.220   0.499   6.582 -0.0385  0.1483 -0.1616
10927SOL    HW137628   2.234   0.568   6.647  0.2948 -1.4100  1.4997
10927SOL    HW237629   2.308   0.480   6.549 -0.2536  1.2076 -1.3941
10928SOL     OW37630   2.484   5.554   8.339  0.2499  0.1882 -0.2494
10928SOL    HW137631   2.494   5.549   8.434  2.5212  0.0021 -0.4594
10928SOL    HW237632   2.552   5.497   8.304 -0.7204  0.0369 -2.0081
10929SOL     OW37633   5.507   0.409   1.744 -0.5491 -0.1507 -0.0194
10929SOL    HW137634   5.585   0.465   1.738 -0.9975  0.5910  0.8280
10929SOL    HW237635   5.476   0.402   1.654  1.6737 -2.1974 -0.7157
10930SOL     OW37636   0.226   6.462   0.241  0.5996 -0.4400  0.0866
10930SOL    HW137637   0.319   6.445   0.253  0.7954 -1.6245 -2.4974
10930SOL    HW237638   0.222   6.553   0.212  0.9006 -0.2719  0.5592
10931SOL     OW37639   6.440   0.048   8.827 -0.4196 -0.0700 -0.6668
10931SOL    HW137640   6.415  -0.020   8.890 -1.9837  0.9767 -0.1081
10931SOL    HW237641   6.508   0.099   8.871 -1.0615  0.2720 -0.0641
10932SOL     OW37642   1.626   8.033   4.554  0.0524 -0.1283 -0.4576
10932SOL    HW137643   1.667   7.948   4.537  1.6853  0.4205  0.5963
10932SOL    HW237644   1.547   8.032   4.500  1.1594 -1.4479 -2.1646
10933SOL     OW37645   0.199   5.378   0.371  0.5060  0.0089  0.1158
10933SOL    HW137646   0.151   5.297   0.355 -3.7834  2.5369 -1.8013
10933SOL    HW237647   0.193   5.391   0.466 -1.7698 -0.4615  0.1110
10934SOL     OW37648   1.071   8.522   2.601 -0.1637  0.3755 -0.9913
10934SOL    HW137649   0.996   8.552   2.653  0.2270  0.5969 -0.5543
10934SOL    HW237650   1.095   8.597   2.547 -0.1789  0.3373 -1.0520
10935SOL     OW37651   8.464   0.332   8.551  0.1722  0.4726  0.1226
10935SOL    HW137652   8.474   0.251   8.502 -3.4594  0.3595 -0.6983
10935SOL    HW237653   8.494   0.400   8.491  1.9540 -0.0951  0.3147
10936SOL     OW37654   2.679   3.936   4.252 -0.0284  0.0793 -0.1076
10936SOL    HW137655   2.764   3.893   4.266 -1.3393 -1.8062  2.9302
10936SOL    HW237656   2.629   3.874   4.200 -0.9885 -1.0118  1.9767
10937SOL     OW37657   4.823   3.224   7.536 -0.2448  0.3632  0.0993
10937SOL    HW137658   4.881   3.156   7.501  0.9731  0.6422  1.4702
10937SOL    HW237659   4.838   3.221   7.630  0.0014  2.6794  0.1756
10938SOL     OW37660   0.510   0.605   6.293 -0.2816 -0.1720  0.5891
10938SOL    HW137661   0.442   0.538   6.292 -2.7060  2.0821  1.4564
10938SOL    HW237662   0.529   0.623   6.201 -2.1760  0.3287  0.2662
10939SOL     OW37663   0.433   2.033   6.707 -0.0257  0.1106  0.1053
10939SOL    HW137664   0.429   1.940   6.730  1.3884  0.1768  0.7816
10939SOL    HW237665   0.349   2.068   6.734 -1.4861 -1.3544 -2.1774
10940SOL     OW37666   8.086   4.916   4.378  0.2709  0.0197 -0.2646
10940SOL    HW137667   8.036   4.859   4.437  1.9097 -0.1425  1.0418
10940SOL    HW237668   8.073   4.878   4.291 -2.2031  0.2448 -0.0901
10941SOL     OW37669   2.452   5.582   2.296  0.0354 -0.0424 -0.0733
10941SOL    HW137670   2.470   5.653   2.358 -2.0643  0.8542 -0.3815
10941SOL    HW237671   2.382   5.617   2.240 -1.9389 -2.7581  0.5013
10942SOL     OW37672   5.611   5.635   5.246 -0.3563  0.2108  0.3202
10942SOL    HW137673   5.703   5.635   5.272  0.1314  1.5769 -1.2499
10942SOL    HW237674   5.571   5.707   5.295  0.3786  2.2507 -1.8976
10943SOL     OW37675   0.718   4.422   1.290 -0.4177 -0.2039  0.3669
10943SOL    HW137676   0.734   4.387   1.202 -0.1024 -0.0691  0.3696
10943SOL    HW237677   0.736   4.515   1.283 -1.6796  0.0392  0.2589
10944SOL     OW37678   8.992   3.853   8.646 -0.2172  0.1788  0.7132
10944SOL    HW137679   8.966   3.785   8.708  2.2126  0.4599  2.1897
10944SOL    HW237680   9.082   3.875   8.671  0.3468  1.3794 -2.0217
10945SOL     OW37681   5.654   2.772   1.564 -0.4888  0.4190 -0.9677
10945SOL    HW137682   5.615   2.837   1.621 -0.4058  0.8227 -1.3660
10945SOL    HW237683   5.748   2.788   1.570 -0.3824 -0.4186 -0.1688
10946SOL     OW37684   6.218   5.355   5.656 -0.5050 -0.2271  0.0987
10946SOL    HW137685   6.298   5.303   5.649 -0.7136 -0.3536 -1.7864
10946SOL    HW237686   6.148   5.290   5.668 -0.4432 -0.1834  0.7038
10947SOL     OW37687   7.626   1.861   1.633  0.3835  0.4944  0.1867
10947SOL    HW137688   7.572   1.926   1.589 -1.0630 -0.2869  0.7191
10947SOL    HW237689   7.663   1.907   1.709 -3.8225 -0.0949  2.9414
10948SOL     OW37690   4.563   0.758   5.480  0.1216 -0.1171  0.1440
10948SOL    HW137691   4.543   0.791   5.567 -1.1784 -2.1771  0.7111
10948SOL    HW237692   4.486   0.780   5.428  0.2779 -0.1315 -0.0913
10949SOL     OW37693   8.265   9.470   9.466 -0.1259  0.8762  0.4411
10949SOL    HW137694   8.295   9.451   9.555  2.5380  0.0057 -0.5442
10949SOL    HW237695   8.269   9.386   9.420 -3.0547  0.9455 -0.1828
10950SOL     OW37696   8.353   3.686   7.523 -0.3690 -0.4318 -0.3717
10950SOL    HW137697   8.429   3.631   7.506 -0.1466 -0.2856  0.1266
10950SOL    HW237698   8.390   3.772   7.545 -0.7014 -0.1541 -0.8899
10951SOL     OW37699   0.763   4.860   5.214 -0.4372 -0.0873  0.6351
10951SOL    HW137700   0.691   4.800   5.196  0.7227 -1.7260  1.2387
10951SOL    HW237701   0.777   4.853   5.309  0.5820  0.0986  0.5109
10952SOL     OW37702   8.721   2.036   7.269  0.5214  0.2957 -0.0767
10952SOL    HW137703   8.661   2.036   7.344 -0.5343  0.4765 -0.8969
10952SOL    HW237704   8.758   2.124   7.268  0.8270  0.1753  0.4532
10953SOL     OW37705   5.088   1.745   0.998  0.2287  0.2851  0.3627
10953SOL    HW137706   5.172   1.790   1.003  0.4637 -0.1388  0.2522
10953SOL    HW237707   5.082   1.695   1.079  0.5817 -0.5454 -0.1137
10954SOL     OW37708   2.604   5.294   8.086 -0.2168 -0.2347 -0.6018
10954SOL    HW137709   2.689   5.251   8.082 -0.1798 -0.0842 -1.6192
10954SOL    HW237710   2.592   5.313   8.179  0.3492 -1.2576 -0.2973
10955SOL     OW37711   5.122   1.746   7.086  0.0971  0.1143 -0.1090
10955SOL    HW137712   5.102   1.653   7.075 -1.1999  0.3155  0.3526
10955SOL    HW237713   5.185   1.766   7.017  2.2452 -1.6285  1.2108
10956SOL     OW37714   1.457   9.000   7.050 -0.0231  0.1951  0.0338
10956SOL    HW137715   1.518   8.978   7.121  0.0548  1.6080  0.4276
10956SOL    HW237716   1.501   9.070   7.002 -0.5103 -0.0796 -0.8207
10957SOL     OW37717   1.152   6.681   5.751 -0.1963 -0.9465  0.0736
10957SOL    HW137718   1.208   6.690   5.828 -1.4098 -0.2710  0.9029
10957SOL    HW237719   1.071   6.725   5.775 -0.3911 -0.1760 -1.8244
10958SOL     OW37720   0.633   3.982   2.898 -0.8600  0.5348 -0.5007
10958SOL    HW137721   0.718   4.017   2.925 -0.6176  1.6803 -2.5461
10958SOL    HW237722   0.591   3.956   2.980  2.1936 -1.9457  0.5039
10959SOL     OW37723   5.096   1.805   5.435  0.4818  0.1921 -0.0816
10959SOL    HW137724   5.075   1.720   5.473 -1.5999 -0.8453 -3.2049
10959SOL    HW237725   5.185   1.795   5.400 -0.1488 -1.1587 -1.4030
10960SOL     OW37726   2.489   4.168   4.627  0.0837  0.0216 -0.3019
10960SOL    HW137727   2.570   4.122   4.605 -0.2960 -0.7382 -0.1529
10960SOL    HW237728   2.455   4.198   4.542 -0.1287 -0.7881 -0.5209
10961SOL     OW37729   9.528   7.235   2.583 -0.2641 -0.4004 -0.0199
10961SOL    HW137730   9.503   7.142   2.585  0.6023 -0.7121 -1.5372
10961SOL    HW237731   9.606   7.237   2.527  2.3248  0.6740  3.2810
10962SOL     OW37732   5.339   8.498   0.056 -0.4431  0.5037 -0.4208
10962SOL    HW137733   5.409   8.520  -0.005 -1.6035  3.2983 -0.9205
10962SOL    HW237734   5.269   8.560   0.035 -2.9421 -1.8880  0.3146
10963SOL     OW37735   8.176   2.885   0.208  0.0021 -0.2360 -0.0540
10963SOL    HW137736   8.256   2.833   0.211  0.6779  0.7860  0.2704
10963SOL    HW237737   8.157   2.896   0.115  0.6633  0.1296 -0.1512
10964SOL     OW37738   7.298   5.791   8.209 -0.5881  0.2331  0.6271
10964SOL    HW137739   7.296   5.882   8.177 -0.3738  0.5085  1.3771
10964SOL    HW237740   7.372   5.751   8.164 -1.0366  0.2613 -0.1489
10965SOL     OW37741   8.913   0.899   1.426 -0.0481 -0.0340 -0.0167
10965SOL    HW137742   8.978   0.829   1.426 -1.0861 -1.1017 -2.1494
10965SOL    HW237743   8.836   0.861   1.468  0.0633  0.5922  0.7883
10966SOL     OW37744   5.431   6.862   2.118  0.8867 -0.0741 -0.3236
10966SOL    HW137745   5.392   6.933   2.168  0.6138 -0.3720 -0.1054
10966SOL    HW237746   5.356   6.811   2.087  0.9512  0.9656 -2.3584
10967SOL     OW37747   8.675   7.837   2.189  0.0884  0.1601  0.2075
10967SOL    HW137748   8.586   7.813   2.162 -0.6574  0.1318  2.4882
10967SOL    HW237749   8.686   7.927   2.157 -0.4783 -0.0695 -0.6826
10968SOL     OW37750   3.889   8.403   2.031  0.4837 -0.5795  0.8487
10968SOL    HW137751   3.830   8.347   2.082  0.6942 -2.1204 -0.5001
10968SOL    HW237752   3.921   8.346   1.961 -1.2369  1.8924 -2.1556
10969SOL     OW37753   5.560   4.219   2.582  0.8467 -0.1833  0.2753
10969SOL    HW137754   5.649   4.239   2.612 -0.3414  3.6685  1.9145
10969SOL    HW237755   5.513   4.193   2.661  0.0002 -0.0080 -0.1552
10970SOL     OW37756   5.826   5.366   7.678  0.1318  0.4954 -0.1895
10970SOL    HW137757   5.810   5.321   7.595 -0.0961  0.2733 -0.0291
10970SOL    HW237758   5.921   5.366   7.688  0.1047 -1.3672  0.5598
10971SOL     OW37759   2.571   4.739   6.904  0.1410  0.1710 -0.3261
10971SOL    HW137760   2.665   4.723   6.900  0.1726  0.4686 -0.7621
10971SOL    HW237761   2.541   4.731   6.814  0.0495  1.8572 -0.4698
10972SOL     OW37762   0.853   6.700   8.526 -0.5476 -0.2256 -0.3964
10972SOL    HW137763   0.798   6.713   8.449  0.2820  0.0955 -0.9434
10972SOL    HW237764   0.905   6.622   8.506  1.5370  1.3043 -1.3080
10973SOL     OW37765   3.478   1.053   0.835  0.6006  0.6948 -0.8928
10973SOL    HW137766   3.542   1.099   0.888  0.4062 -0.3199  0.2697
10973SOL    HW237767   3.401   1.110   0.833 -0.1240 -0.0809  1.6410
10974SOL     OW37768   0.127   2.760   7.138 -0.1529 -0.3136  0.0886
10974SOL    HW137769   0.054   2.736   7.080  1.0550 -1.5064 -1.0147
10974SOL    HW237770   0.118   2.701   7.213 -1.6640  1.1671  1.1487
10975SOL     OW37771   2.186   2.755   0.326 -0.1331  0.1694  0.1169
10975SOL    HW137772   2.095   2.779   0.306 -0.0784  1.0185  0.8304
10975SOL    HW237773   2.190   2.661   0.307 -1.2129  0.0773  0.2541
10976SOL     OW37774   5.751   5.370   0.050 -0.7588 -0.8083 -0.3190
10976SOL    HW137775   5.706   5.422   0.117 -1.4634 -1.3010 -0.3950
10976SOL    HW237776   5.684   5.309   0.019 -0.4959 -0.4915 -1.5821
10977SOL     OW37777   0.052   5.389   5.188  0.4395 -0.1632  0.3843
10977SOL    HW137778   0.135   5.363   5.227  0.5753 -1.3918 -0.6656
10977SOL    HW237779  -0.013   5.373   5.257  1.0591  0.8895  1.2386
10978SOL     OW37780   8.129   9.630   6.484  0.5753 -0.1563 -0.8582
10978SOL    HW137781   8.160   9.611   6.573 -1.1435 -0.4507 -0.2801
10978SOL    HW237782   8.064   9.699   6.497  0.9641  0.4425 -2.0138
10979SOL     OW37783   6.597   8.396   1.518 -0.2977  0.2728 -0.4757
10979SOL    HW137784   6.589   8.458   1.590 -0.5464  0.1502 -0.3959
10979SOL    HW237785   6.571   8.446   1.440  2.5348  1.2328 -0.9411
10980SOL     OW37786   5.471   6.387   8.519  0.0345 -0.5508 -0.0902
10980SOL    HW137787   5.448   6.297   8.499  1.3804 -0.5691 -1.7704
10980SOL    HW237788   5.388   6.434   8.520 -0.7538 -1.8717  1.4605
10981SOL     OW37789   7.870   0.511   8.734  0.1472  0.1342  0.6923
10981SOL    HW137790   7.872   0.478   8.644  0.5122  1.2507  0.2742
10981SOL    HW237791   7.962   0.515   8.760  0.0376 -0.3074  1.1772
10982SOL     OW37792   4.812   0.349   3.708  0.0230  0.2801 -0.3876
10982SOL    HW137793   4.793   0.353   3.802  0.7855  0.0689 -0.2169
10982SOL    HW237794   4.772   0.267   3.679 -2.2366  1.4456 -0.7450
10983SOL     OW37795   8.778   9.520   9.722 -0.2116 -0.3187  0.8542
10983SOL    HW137796   8.790   9.431   9.753 -0.0164 -0.0706  1.5155
10983SOL    HW237797   8.846   9.532   9.657  0.8689 -0.1087  1.9809
10984SOL     OW37798   3.832   3.997   0.074 -0.5124 -0.4088  0.2698
10984SOL    HW137799   3.846   4.053   0.150  0.8625 -0.0855 -0.2061
10984SOL    HW237800   3.862   3.910   0.103 -0.5072 -0.4060  0.2731
10985SOL     OW37801   3.373   0.774   9.544 -0.0476 -0.3525  0.2594
10985SOL    HW137802   3.436   0.800   9.476  0.8714 -0.6407  0.9772
10985SOL    HW237803   3.297   0.742   9.496  0.5068 -0.3587 -0.6318
10986SOL     OW37804   5.784   2.606   2.049 -0.3842 -0.0078  0.1916
10986SOL    HW137805   5.722   2.551   2.096  1.7843  0.1075  3.5515
10986SOL    HW237806   5.857   2.548   2.028  0.4145  0.7977  0.6318
10987SOL     OW37807   8.112   8.397   0.159  1.1251 -0.3523  0.0394
10987SOL    HW137808   8.055   8.455   0.109  0.1472 -0.8962  0.4994
10987SOL    HW237809   8.053   8.335   0.201  1.9775 -0.3805  1.2646
10988SOL     OW37810   1.703   4.470   6.989  0.0606  0.0204  0.6553
10988SOL    HW137811   1.670   4.493   6.902  1.6339  0.9112  0.2415
10988SOL    HW237812   1.778   4.413   6.972  1.6284  1.7770  1.2808
10989SOL     OW37813   0.105   9.295   8.691  0.3331  0.0494  0.2877
10989SOL    HW137814   0.181   9.246   8.660  0.4334 -0.0004  0.6021
10989SOL    HW237815   0.067   9.334   8.613  0.4621 -0.2378  0.0803
10990SOL     OW37816   0.935   5.821   5.871 -0.0091  0.5481 -0.3702
10990SOL    HW137817   0.905   5.884   5.806 -1.0534  0.8129  0.3442
10990SOL    HW237818   0.958   5.743   5.819 -0.5258  0.8580 -1.0902
10991SOL     OW37819   4.538   9.249   5.635 -0.5129 -0.1858  0.7426
10991SOL    HW137820   4.482   9.324   5.616  0.0924 -0.1615 -1.2354
10991SOL    HW237821   4.494   9.203   5.706 -1.4015  1.4952  1.3364
10992SOL     OW37822   8.898   3.588   1.180  0.8588 -0.4244 -0.5224
10992SOL    HW137823   8.809   3.561   1.203  0.8486  0.3704  0.4403
10992SOL    HW237824   8.932   3.515   1.129 -0.1522 -0.9818 -0.4396
10993SOL     OW37825   3.261   2.335   1.202  0.1965 -0.0779  0.3760
10993SOL    HW137826   3.277   2.360   1.293 -0.1023 -1.0992  0.7179
10993SOL    HW237827   3.174   2.295   1.203  0.4698 -0.7145 -0.2270
10994SOL     OW37828   2.309   0.734   6.394  0.5081 -0.1836  0.4080
10994SOL    HW137829   2.303   0.830   6.391  0.4118 -0.1917 -2.5427
10994SOL    HW237830   2.218   0.705   6.393  0.5381 -0.3325  1.3207
10995SOL     OW37831   3.322   3.911   6.688 -0.3906 -0.2623  0.0512
10995SOL    HW137832   3.335   3.885   6.779 -1.3140  0.1211  0.3093
10995SOL    HW237833   3.397   3.967   6.668 -0.4791  0.1196  0.7667
10996SOL     OW37834   5.348   2.998   6.611 -0.8070 -0.0648  0.4734
10996SOL    HW137835   5.383   2.972   6.696  1.0771 -1.0097 -0.5211
10996SOL    HW237836   5.408   3.067   6.580 -0.8740 -0.4288 -0.5013
10997SOL     OW37837   1.806   2.541   7.704  0.7732  0.1989 -0.1054
10997SOL    HW137838   1.851   2.499   7.777 -0.1797  0.4690  0.6694
10997SOL    HW237839   1.817   2.481   7.631 -0.7934 -1.6024  1.0387
10998SOL     OW37840   9.739   7.969   3.657 -0.0874 -0.0701  0.1819
10998SOL    HW137841   9.732   7.996   3.748 -1.7460  0.4169 -0.0612
10998SOL    HW237842   9.789   8.040   3.615 -0.3217  0.2775  0.4894
10999SOL     OW37843   0.349   1.344   2.160 -0.3622  0.2341  0.2512
10999SOL    HW137844   0.409   1.404   2.205  1.1129 -1.1950  0.2995
10999SOL    HW237845   0.269   1.344   2.213  0.4880  0.3670  1.5772
11000SOL     OW37846   5.388   4.525   5.066 -0.6654  0.2696  0.2887
11000SOL    HW137847   5.343   4.527   5.150  0.6286 -2.4944  1.1582
11000SOL    HW237848   5.476   4.494   5.087 -0.0402  0.3450 -1.9962
11001SOL     OW37849   7.101   8.198   2.409  1.0358 -0.2956 -0.1124
11001SOL    HW137850   7.055   8.165   2.486 -1.2304 -0.0601 -1.2877
11001SOL    HW237851   7.139   8.119   2.369  1.6826 -0.4981  0.8554
11002SOL     OW37852   6.848   0.434   8.688 -0.4243  0.0320  0.3540
11002SOL    HW137853   6.857   0.508   8.627 -2.1192  0.3925  0.4913
11002SOL    HW237854   6.850   0.357   8.631  1.3978  0.1294  0.2130
11003SOL     OW37855   3.324   2.507   3.310  0.5401  0.1933  0.2199
11003SOL    HW137856   3.400   2.501   3.368 -0.0782 -0.1596  1.0170
11003SOL    HW237857   3.260   2.557   3.360  0.3404  0.7226 -0.5516
11004SOL     OW37858   5.388   5.567   6.855 -0.7302  0.5455 -0.4095
11004SOL    HW137859   5.441   5.635   6.813  2.6824 -1.5437  0.1572
11004SOL    HW237860   5.383   5.497   6.790 -0.8377 -0.1971  0.3892
11005SOL     OW37861   8.666   7.630   6.642  0.3238  0.1043 -0.0454
11005SOL    HW137862   8.711   7.603   6.722 -1.1096  1.8587  1.4349
11005SOL    HW237863   8.665   7.552   6.588 -1.2101 -2.0575  2.8480
11006SOL     OW37864   9.693   1.861   7.756 -0.2190 -0.1196 -0.5121
11006SOL    HW137865   9.771   1.913   7.737 -0.2269  0.1180  0.0596
11006SOL    HW237866   9.722   1.798   7.822 -0.2939 -0.6283 -0.9548
11007SOL     OW37867   5.479   3.010   0.096  0.5644  0.3302  0.3496
11007SOL    HW137868   5.569   3.041   0.085  0.4614  0.9189  1.0100
11007SOL    HW237869   5.481   2.918   0.072  1.2925  0.4076  0.1072
11008SOL     OW37870   3.677   9.453   8.818 -0.1818 -0.3205  0.5196
11008SOL    HW137871   3.676   9.545   8.792 -0.2962 -0.1993  0.9509
11008SOL    HW237872   3.631   9.408   8.747  1.8168 -0.3577 -0.8473
11009SOL     OW37873   1.402   8.035   5.550 -0.1130 -0.0528 -0.4298
11009SOL    HW137874   1.405   8.121   5.592  0.8948  0.3176 -1.2179
11009SOL    HW237875   1.315   8.031   5.510 -0.8743 -0.1733  1.1333
11010SOL     OW37876   2.813   1.565   1.759 -0.5282 -0.3510 -0.2918
11010SOL    HW137877   2.876   1.511   1.711 -0.8303 -2.9303  1.9902
11010SOL    HW237878   2.731   1.515   1.757 -1.7775  1.5873 -0.7592
11011SOL     OW37879   2.858   3.113   4.883 -0.0651  0.5737 -0.6743
11011SOL    HW137880   2.762   3.118   4.883 -0.3125 -1.3398  2.4188
11011SOL    HW237881   2.879   3.039   4.827 -0.4301  0.5742 -0.8141
11012SOL     OW37882   6.891   3.241   1.560 -0.3944  0.3559  0.1563
11012SOL    HW137883   6.933   3.158   1.537 -0.9508  0.3603 -0.9445
11012SOL    HW237884   6.948   3.279   1.627 -0.3993 -1.1358  1.0448
11013SOL     OW37885   0.627   2.340   3.415 -0.1110  0.2421 -0.4112
11013SOL    HW137886   0.623   2.320   3.509 -1.6545 -0.4018 -0.5894
11013SOL    HW237887   0.537   2.357   3.390  0.5803  3.1476 -1.2555
11014SOL     OW37888   9.723   7.206   3.403  0.5572  0.0471 -0.1526
11014SOL    HW137889   9.646   7.153   3.382 -0.0951  1.5842 -1.9109
11014SOL    HW237890   9.700   7.249   3.486 -1.2552  1.7170 -1.4224
11015SOL     OW37891   5.866   0.528   7.308 -0.0494 -0.1681 -0.5428
11015SOL    HW137892   5.888   0.618   7.284  0.5915 -0.8507 -2.7083
11015SOL    HW237893   5.940   0.498   7.361  0.3502  0.1723 -0.9068
11016SOL     OW37894   1.503   5.996   3.384  0.1160 -0.1351 -0.0164
11016SOL    HW137895   1.477   6.052   3.457  1.2041  1.0666 -0.4964
11016SOL    HW237896   1.592   5.967   3.406  0.0989 -0.5178 -0.4359
11017SOL     OW37897   0.384   3.446   1.165  0.3674 -0.1496  0.5662
11017SOL    HW137898   0.386   3.533   1.125  1.1967 -1.1589 -1.7422
11017SOL    HW237899   0.414   3.461   1.255  1.2894  1.8482 -0.0083
11018SOL     OW37900   7.299   5.885   0.409 -0.2192 -0.3798 -0.2070
11018SOL    HW137901   7.217   5.925   0.438 -0.3966 -1.1265  0.3591
11018SOL    HW237902   7.306   5.805   0.461  1.7223  0.5026  0.9861
11019SOL     OW37903   6.809   7.379   0.247  0.4861  0.7918  0.2365
11019SOL    HW137904   6.746   7.351   0.313  0.2824  0.6701 -0.0064
11019SOL    HW237905   6.776   7.464   0.217  0.8502  1.0849  0.6411
11020SOL     OW37906   3.185   1.762   5.846  0.2469  0.0540  0.3917
11020SOL    HW137907   3.239   1.692   5.881  1.9040  0.1908 -1.7281
11020SOL    HW237908   3.168   1.819   5.921  0.9598 -1.2856  1.6171
11021SOL     OW37909   9.596   4.508   6.093 -0.4592  0.1738 -0.0892
11021SOL    HW137910   9.655   4.433   6.103  0.2249  0.2329 -2.9077
11021SOL    HW237911   9.512   4.469   6.071 -0.4137  0.1962 -0.3066
11022SOL     OW37912   8.261   2.069   5.231  0.1483 -0.3503  0.4864
11022SOL    HW137913   8.208   2.045   5.155  0.9361 -1.2846  0.2057
11022SOL    HW237914   8.199   2.075   5.303 -0.1328 -3.9005  0.7449
11023SOL     OW37915   1.038   6.801   2.305  0.5755 -0.8554  0.3266
11023SOL    HW137916   1.026   6.722   2.358 -3.1242 -1.3106 -0.8631
11023SOL    HW237917   1.006   6.873   2.360  0.5258 -0.7376  0.1451
11024SOL     OW37918   4.631   4.811   2.411 -0.2746 -0.3872 -0.6550
11024SOL    HW137919   4.583   4.875   2.464  2.9256  2.1509 -0.5071
11024SOL    HW237920   4.707   4.788   2.464  2.2402  1.0526 -3.3420
11025SOL     OW37921   3.740   1.994   8.341  0.5035  0.0494 -0.4970
11025SOL    HW137922   3.668   1.938   8.370 -0.6116  1.2028 -0.9462
11025SOL    HW237923   3.711   2.083   8.360  1.4441  0.5908 -1.4592
11026SOL     OW37924   1.558   2.499   0.030  0.6980 -0.3776  0.2943
11026SOL    HW137925   1.471   2.489  -0.009  1.2662 -1.1613 -0.8347
11026SOL    HW237926   1.542   2.517   0.122 -0.6559 -0.9868  0.1918
11027SOL     OW37927   5.531   7.490   5.596  0.3570 -0.4811  0.4200
11027SOL    HW137928   5.471   7.485   5.671 -0.0510  1.6396  0.2910
11027SOL    HW237929   5.500   7.420   5.538 -1.7053  0.2029  0.5872
11028SOL     OW37930   8.643   2.428   7.333  0.4677  0.6870  0.1126
11028SOL    HW137931   8.643   2.521   7.354  2.0418  0.3966  1.6502
11028SOL    HW237932   8.733   2.409   7.308  0.5219 -0.6805  1.1888
11029SOL     OW37933   0.172   3.452   2.405 -0.6995  0.6652  0.3113
11029SOL    HW137934   0.094   3.410   2.441 -0.8713 -1.3659 -2.1239
11029SOL    HW237935   0.147   3.544   2.394 -1.9712  0.4978  1.5508
11030SOL     OW37936   8.302   0.339   5.759  0.1257  0.6687 -0.1445
11030SOL    HW137937   8.302   0.283   5.837  2.2350  1.8381  0.7952
11030SOL    HW237938   8.273   0.424   5.791 -1.1104  0.6433 -1.1332
11031SOL     OW37939   5.138   7.198   3.328  0.0362 -0.0510 -0.1984
11031SOL    HW137940   5.216   7.215   3.274  0.7112 -2.2080  0.0232
11031SOL    HW237941   5.078   7.153   3.269  0.5257 -1.8485  0.6255
11032SOL     OW37942   9.314   9.080   1.042  0.4208  0.2980  0.2090
11032SOL    HW137943   9.240   9.135   1.066 -0.9511 -2.2045  2.1385
11032SOL    HW237944   9.337   9.033   1.122  1.9616 -1.4096 -1.1420
11033SOL     OW37945   1.916   9.524   3.661 -0.0817  0.6537  0.0486
11033SOL    HW137946   1.855   9.479   3.718 -1.2587  0.1418 -1.5318
11033SOL    HW237947   1.933   9.462   3.590 -0.9963  2.2902 -1.6862
11034SOL     OW37948   5.206   9.652   7.588  0.3480  0.2849 -0.0329
11034SOL    HW137949   5.299   9.661   7.610  0.3280 -1.0813  0.6764
11034SOL    HW237950   5.165   9.728   7.630  1.1755  1.1129 -0.6735
11035SOL     OW37951   7.336   1.534   6.107 -0.0354  0.4490  0.4867
11035SOL    HW137952   7.412   1.547   6.165 -0.2653 -0.2632  0.9649
11035SOL    HW237953   7.297   1.620   6.099  2.0220  1.3080 -1.4992
11036SOL     OW37954   7.283   3.769   5.192 -0.1575 -0.5246  0.3958
11036SOL    HW137955   7.375   3.767   5.163  0.1277 -1.9367  1.3153
11036SOL    HW237956   7.286   3.816   5.276 -0.4841  0.5670 -0.1863
11037SOL     OW37957   7.899   7.353   9.298  0.0558  0.2707 -0.4798
11037SOL    HW137958   7.862   7.389   9.218  0.5137  0.0698 -0.7881
11037SOL    HW237959   7.916   7.430   9.353 -0.6212  0.3762 -0.4115
11038SOL     OW37960   0.952   9.166   6.122 -0.2361 -0.0176 -0.0718
11038SOL    HW137961   0.941   9.223   6.198 -0.7550 -0.5141  0.2272
11038SOL    HW237962   1.038   9.190   6.087  0.8930 -1.1373  1.8028
11039SOL     OW37963   5.620   3.531   6.825 -0.2794  0.2078  0.1778
11039SOL    HW137964   5.645   3.621   6.803 -1.0256 -0.0116 -1.7985
11039SOL    HW237965   5.701   3.491   6.858  0.6668  0.9600 -1.1527
11040SOL     OW37966   1.240   8.022   6.272  0.2717  0.2771 -0.0495
11040SOL    HW137967   1.207   8.024   6.183 -3.5719 -2.2313  1.0842
11040SOL    HW237968   1.288   7.939   6.278  1.4235  0.9206  0.0230
11041SOL     OW37969   7.556   9.532   7.578  0.4066  0.3889 -0.2145
11041SOL    HW137970   7.585   9.556   7.666  1.4669  0.1463 -0.4767
11041SOL    HW237971   7.565   9.613   7.528 -2.7415  1.2944  0.4317
11042SOL     OW37972   9.225   1.215   0.683  0.4494 -0.1391  0.8288
11042SOL    HW137973   9.152   1.272   0.704  0.0733 -1.3153  2.9439
11042SOL    HW237974   9.303   1.266   0.708  0.2900  0.5044  0.0525
11043SOL     OW37975   4.270   3.698   1.863  0.1095 -0.3428 -0.4046
11043SOL    HW137976   4.366   3.692   1.859  0.1068  0.4780 -2.7915
11043SOL    HW237977   4.253   3.751   1.941  1.4623 -1.8439  1.0287
11044SOL     OW37978   1.843   9.142   5.485 -0.7266  0.1131  0.4435
11044SOL    HW137979   1.935   9.124   5.507 -0.8297 -0.3159  0.5239
11044SOL    HW237980   1.821   9.076   5.420 -0.5967  1.0110 -0.5489
11045SOL     OW37981   8.817   6.738   7.958 -0.3036  1.3797 -0.5689
11045SOL    HW137982   8.873   6.807   7.924  0.7034 -0.3677 -2.6582
11045SOL    HW237983   8.770   6.704   7.882 -0.1600 -0.7479  0.2041
11046SOL     OW37984   7.824   6.485   7.072  0.3973  0.4345 -0.0543
11046SOL    HW137985   7.838   6.579   7.072  1.4246  0.3468  1.8777
11046SOL    HW237986   7.910   6.448   7.051 -0.1464 -0.0829 -1.4512
11047SOL     OW37987   1.882   0.165   6.865  0.0598  0.6981 -0.4380
11047SOL    HW137988   1.870   0.108   6.941 -1.0543  1.2923 -0.1501
11047SOL    HW237989   1.846   0.116   6.792 -0.3204  0.7680 -0.3005
11048SOL     OW37990   2.170   9.084   5.487  0.4093  0.0053 -0.4432
11048SOL    HW137991   2.147   8.993   5.467  1.0559 -0.5378  1.1647
11048SOL    HW237992   2.193   9.122   5.402 -4.3182  0.0754 -1.9565
11049SOL     OW37993   1.182   1.802   5.413  0.2200  0.3341  0.0669
11049SOL    HW137994   1.183   1.874   5.475 -1.1990 -0.2604  0.8222
11049SOL    HW237995   1.212   1.840   5.331 -0.3580  1.7510  0.4919
11050SOL     OW37996   0.873   7.763   0.892  0.3439 -0.4972  0.5031
11050SOL    HW137997   0.882   7.672   0.864  3.7261 -0.9894  2.6476
11050SOL    HW237998   0.949   7.779   0.948  0.3383  3.9452 -0.4031
11051SOL     OW37999   6.686   3.154   0.038 -0.0413  0.3516  0.3815
11051SOL    HW138000   6.693   3.119   0.127 -0.9707  0.2169  0.4154
11051SOL    HW238001   6.608   3.111   0.002  1.0604 -0.5996 -0.9583
11052SOL     OW38002   6.628   1.553   1.386 -0.4317  0.2601  0.2032
11052SOL    HW138003   6.610   1.647   1.393 -1.1807  0.1815 -0.4758
11052SOL    HW238004   6.723   1.546   1.391 -0.4442  0.9284  1.5648
11053SOL     OW38005   2.811   6.834   8.951  0.3751 -0.2815 -0.5181
11053SOL    HW138006   2.770   6.799   8.872  1.2738 -0.9233 -0.7123
11053SOL    HW238007   2.822   6.927   8.933 -1.4034  0.0087 -0.2772
11054SOL     OW38008   5.063   0.999   6.135 -0.4274 -0.1842 -0.0518
11054SOL    HW138009   5.128   1.050   6.183 -1.3185  2.2537 -1.2635
11054SOL    HW238010   5.099   0.991   6.047 -0.8100 -0.7016 -0.1671
11055SOL     OW38011   4.513   8.826   7.577 -0.0814 -0.1991  0.0753
11055SOL    HW138012   4.468   8.910   7.571  0.7269  0.1940 -0.5126
11055SOL    HW238013   4.559   8.829   7.661  0.2531  0.1018 -0.1182
11056SOL     OW38014   9.678   4.812   9.642 -0.1369 -0.0179 -0.1890
11056SOL    HW138015   9.631   4.746   9.693 -2.0749  2.2428  1.1724
11056SOL    HW238016   9.730   4.761   9.579 -0.5837 -2.8260  1.5128
11057SOL     OW38017   2.610   0.046   3.950  0.3204  0.2434  0.1439
11057SOL    HW138018   2.631   0.120   4.006  1.1991  2.0536 -2.3954
11057SOL    HW238019   2.695   0.005   3.931 -0.0900 -1.1015  1.0196
11058SOL     OW38020   9.365   3.134   6.939  0.0080 -0.5270 -0.8130
11058SOL    HW138021   9.425   3.102   7.006 -1.3825 -1.8972 -0.1519
11058SOL    HW238022   9.383   3.080   6.863  1.0817  0.5389 -1.3495
11059SOL     OW38023   1.852   3.461   8.859 -0.1452 -0.0713  0.1559
11059SOL    HW138024   1.774   3.507   8.829  1.0306  1.2714 -0.9520
11059SOL    HW238025   1.908   3.454   8.781  0.5334 -1.6865  0.7431
11060SOL     OW38026   3.845   4.623   2.078 -0.3861 -0.4001 -0.5614
11060SOL    HW138027   3.764   4.671   2.099 -0.2018 -0.4505  0.3210
11060SOL    HW238028   3.836   4.540   2.125 -0.2586 -0.8263 -1.2766
11061SOL     OW38029   6.207   5.010   3.750  0.3369  0.4113 -0.1921
11061SOL    HW138030   6.267   5.084   3.752 -1.7415  2.1813  0.7952
11061SOL    HW238031   6.165   5.016   3.664 -1.9734  2.3231  0.9535
11062SOL     OW38032   4.055   3.379   4.836  0.7195 -0.1203 -0.0208
11062SOL    HW138033   3.987   3.444   4.819 -1.1967 -2.2743 -1.1602
11062SOL    HW238034   4.128   3.406   4.781 -0.9791 -0.2260 -2.5439
11063SOL     OW38035   3.157   9.425   8.411  0.2692 -0.5868 -0.0710
11063SOL    HW138036   3.194   9.342   8.382 -0.7543 -0.4517 -1.9264
11063SOL    HW238037   3.094   9.400   8.479  1.3782 -1.1179  0.7801
11064SOL     OW38038   0.157   2.277   0.271 -0.6376  0.1098  0.2755
11064SOL    HW138039   0.118   2.207   0.324 -0.9850 -0.3446 -0.5585
11064SOL    HW238040   0.108   2.275   0.189  1.1067 -0.4491 -0.8033
11065SOL     OW38041   2.179   9.014   2.766  0.0479 -0.0718  0.1794
11065SOL    HW138042   2.118   9.026   2.694  1.4888  1.0193 -0.9215
11065SOL    HW238043   2.147   9.072   2.835 -1.8201 -1.7428  0.8172
11066SOL     OW38044   8.460   6.278   1.316  0.3248  0.3275 -0.2671
11066SOL    HW138045   8.383   6.324   1.282  0.4495 -0.0745 -1.1390
11066SOL    HW238046   8.519   6.272   1.241  0.9527  0.1078  0.2379
11067SOL     OW38047   4.800   1.418   5.656  0.2293 -0.3479  0.5881
11067SOL    HW138048   4.727   1.443   5.713  0.0125  0.1740  0.0851
11067SOL    HW238049   4.843   1.501   5.635 -0.5353 -0.3636 -1.1443
11068SOL     OW38050   3.561   4.545   8.306  0.1364  0.3516 -0.6109
11068SOL    HW138051   3.581   4.451   8.298 -1.9497 -0.4927  2.3066
11068SOL    HW238052   3.466   4.549   8.295  0.2859  2.2955 -1.5093
11069SOL     OW38053   8.421   7.507   7.010  0.1892  0.4603  0.2826
11069SOL    HW138054   8.402   7.564   7.084 -2.6675  2.4434 -1.8036
11069SOL    HW238055   8.496   7.547   6.967  0.0670  0.9166  0.4975
11070SOL     OW38056   0.156   0.069   9.637  0.2868 -0.0809 -0.4201
11070SOL    HW138057   0.163   0.032   9.725 -0.6606 -1.8607 -1.0333
11070SOL    HW238058   0.244   0.098   9.616  1.2116 -2.3561  0.0181
11071SOL     OW38059   8.308   5.668   8.327  0.5404 -0.6727  0.0512
11071SOL    HW138060   8.246   5.724   8.279 -0.0523 -1.0212  0.4013
11071SOL    HW238061   8.331   5.599   8.264 -1.8980 -2.3776  0.8815
11072SOL     OW38062   6.900   0.282   9.286  0.4555  0.1402 -0.3501
11072SOL    HW138063   6.955   0.207   9.265  0.7336  0.1236  0.3853
11072SOL    HW238064   6.960   0.357   9.285  0.7907 -0.0458  1.6730
11073SOL     OW38065   5.920   1.637   8.502  0.6822 -0.0951 -0.2779
11073SOL    HW138066   5.916   1.686   8.585  1.3610  1.4184 -1.0916
11073SOL    HW238067   5.837   1.590   8.498 -0.2509  1.4269  0.3062
11074SOL     OW38068   6.305   5.927   5.571  0.7018  0.4076 -0.6116
11074SOL    HW138069   6.291   5.999   5.509  0.2037 -0.5758 -1.6732
11074SOL    HW238070   6.399   5.910   5.566  0.6182  0.1133 -1.3760
11075SOL     OW38071   2.419   4.407   1.707  0.4698  0.3182  0.4362
11075SOL    HW138072   2.409   4.456   1.625  1.4119 -1.2486 -0.6741
11075SOL    HW238073   2.339   4.426   1.756  1.1238  3.5173  0.4393
11076SOL     OW38074   0.977   9.237   8.189  0.0052 -0.0480  0.4742
11076SOL    HW138075   0.906   9.201   8.243  1.0045 -2.0638  0.5434
11076SOL    HW238076   0.939   9.243   8.102  0.3366 -3.4449 -0.0466
11077SOL     OW38077   2.492   3.287   8.392 -0.5409 -0.2828 -0.3867
11077SOL    HW138078   2.561   3.330   8.342  0.3605 -0.0394  1.0086
11077SOL    HW238079   2.531   3.204   8.421 -0.4972  0.2333  1.1301
11078SOL     OW38080   9.119   1.034   8.939  0.2942  0.2642  0.1441
11078SOL    HW138081   9.171   1.001   9.012 -2.7746 -0.8368  2.0643
11078SOL    HW238082   9.044   1.078   8.980 -1.0104  0.5939 -2.3485
11079SOL     OW38083   4.192   2.003   2.148 -0.7860  0.0237 -0.1433
11079SOL    HW138084   4.226   2.081   2.192  0.2860 -0.1544 -0.6318
11079SOL    HW238085   4.185   1.937   2.217 -0.7348  0.2488  0.0764
11080SOL     OW38086   0.411   2.234   0.278 -0.4654  0.2497  0.6769
11080SOL    HW138087   0.323   2.257   0.249 -0.5085 -2.1032 -1.4365
11080SOL    HW238088   0.466   2.250   0.202  0.6350  0.1165  1.4300
11081SOL     OW38089   3.405   7.650   5.122 -0.4673  0.0601 -0.4059
11081SOL    HW138090   3.399   7.714   5.193 -1.6551  0.3188 -0.7251
11081SOL    HW238091   3.396   7.565   5.166 -2.0722  0.2447 -0.3040
11082SOL     OW38092   8.914   2.447   1.135  0.3978  0.5353 -0.6750
11082SOL    HW138093   8.940   2.385   1.067  0.8839  0.5261 -0.4838
11082SOL    HW238094   8.863   2.514   1.089  1.5176  1.0415 -1.2127
11083SOL     OW38095   4.048   5.135   7.576  0.2213  0.4128  0.2923
11083SOL    HW138096   4.019   5.136   7.485  1.1938 -0.4465 -0.0600
11083SOL    HW238097   4.012   5.215   7.614  0.2759  1.0820 -0.9994
11084SOL     OW38098   6.635   0.551   2.084 -0.0167 -0.2912 -0.3657
11084SOL    HW138099   6.558   0.494   2.087  0.4346 -0.8872 -0.0139
11084SOL    HW238100   6.687   0.517   2.011  0.6160 -0.8020  0.3176
11085SOL     OW38101   5.436   0.794   6.792  0.2964 -0.5253 -0.5492
11085SOL    HW138102   5.504   0.829   6.735  1.3067 -1.4651  0.0425
11085SOL    HW238103   5.472   0.804   6.881  0.0750 -1.8983 -0.2905
11086SOL     OW38104   1.506   2.805   1.550 -0.0635 -0.6407 -0.5501
11086SOL    HW138105   1.542   2.892   1.564 -0.4273 -0.1679 -2.2882
11086SOL    HW238106   1.435   2.818   1.487 -1.1271 -1.9951  0.3126
11087SOL     OW38107   6.933   6.589   7.930  0.3371 -0.6856 -0.0042
11087SOL    HW138108   6.883   6.597   7.849  0.8692 -0.1768 -0.2860
11087SOL    HW238109   6.969   6.500   7.928  0.6385 -0.5551 -0.4942
11088SOL     OW38110   7.602   1.912   2.251 -0.0505  0.2842 -0.1808
11088SOL    HW138111   7.620   1.818   2.256 -1.4119 -0.0923 -1.5272
11088SOL    HW238112   7.564   1.934   2.336 -2.6183 -1.1042 -0.8678
11089SOL     OW38113   3.991   6.681   0.900  0.6073  0.1813 -0.6913
11089SOL    HW138114   4.003   6.591   0.870  0.3946  0.4321 -1.5502
11089SOL    HW238115   3.953   6.726   0.825 -0.9757  0.5776  0.3024
11090SOL     OW38116   1.664   9.325   5.112 -0.1663 -0.5325 -0.0305
11090SOL    HW138117   1.671   9.399   5.051 -1.9219  1.2520  1.7624
11090SOL    HW238118   1.600   9.267   5.072 -0.1408 -0.1767 -0.6014
11091SOL     OW38119   3.881   5.582   6.184  0.3709 -0.1145  0.0161
11091SOL    HW138120   3.787   5.565   6.196  0.0014  1.2818 -0.6935
11091SOL    HW238121   3.911   5.609   6.271  0.4730 -1.9568  0.6042
11092SOL     OW38122   7.391   2.778   9.055 -0.1077 -0.0511  0.4600
11092SOL    HW138123   7.457   2.763   8.987  3.0621 -1.3049  3.4995
11092SOL    HW238124   7.318   2.722   9.030  1.1800 -0.9312 -1.5951
11093SOL     OW38125   6.384   9.567   1.426  0.4003  0.1626 -0.1047
11093SOL    HW138126   6.454   9.502   1.421  0.1356 -0.1238 -0.1057
11093SOL    HW238127   6.314   9.532   1.371  0.5260  0.7925 -0.6746
11094SOL     OW38128   8.887   6.587   4.838  0.3370  0.0978  0.1367
11094SOL    HW138129   8.792   6.586   4.851  0.2581 -0.2168 -0.4345
11094SOL    HW238130   8.915   6.672   4.873 -0.1218  0.0960  0.5153
11095SOL     OW38131   6.370   5.857   7.018 -0.3168  0.7003 -0.0734
11095SOL    HW138132   6.373   5.769   6.981 -1.7488  0.9180 -0.7904
11095SOL    HW238133   6.382   5.915   6.943  1.6136  1.1458  0.5303
11096SOL     OW38134   6.355   3.557   7.520  0.0408  0.0140 -0.1625
11096SOL    HW138135   6.413   3.633   7.526  1.5625 -0.9394 -1.7861
11096SOL    HW238136   6.267   3.593   7.526  0.7428  1.5076  2.4749
11097SOL     OW38137   8.879   9.042   2.990  0.9944 -0.1763  0.5612
11097SOL    HW138138   8.824   9.119   3.000  0.9869  0.1190 -1.4354
11097SOL    HW238139   8.968   9.077   2.988  0.9803 -0.1695 -0.5514
11098SOL     OW38140   4.305   7.390   9.567  0.4067 -0.2720  0.4142
11098SOL    HW138141   4.301   7.317   9.629  1.7020 -1.0017 -0.2985
11098SOL    HW238142   4.313   7.468   9.622 -1.6148 -0.5724  1.2067
11099SOL     OW38143   2.206   8.743   5.314 -0.2917  0.1353 -0.6203
11099SOL    HW138144   2.285   8.693   5.294 -0.4812 -1.4675  2.0927
11099SOL    HW238145   2.177   8.778   5.230  2.1662 -0.9105 -1.9977
11100SOL     OW38146   3.717   1.196   4.263 -0.0425  0.3603  0.0322
11100SOL    HW138147   3.759   1.110   4.255  1.8818  1.2600  0.0167
11100SOL    HW238148   3.711   1.229   4.174 -0.0178  0.5944  0.1161
11101SOL     OW38149   2.696   5.802   6.325  0.1392 -0.6655  0.4240
11101SOL    HW138150   2.704   5.762   6.238  0.6017  0.7693 -0.2139
11101SOL    HW238151   2.603   5.823   6.333 -0.0783 -1.6431  0.6923
11102SOL     OW38152   0.788   0.704   5.023  0.6736  0.0295 -0.6072
11102SOL    HW138153   0.735   0.740   5.093  0.2727 -1.5577 -0.0434
11102SOL    HW238154   0.781   0.768   4.952 -0.7365  0.6001  0.0007
11103SOL     OW38155   8.560   0.706   7.066 -0.6384  0.2788  0.0828
11103SOL    HW138156   8.613   0.773   7.023  0.0326  0.2214  0.7997
11103SOL    HW238157   8.489   0.688   7.004 -0.2252  0.8775 -0.5774
11104SOL     OW38158   1.631   6.618   3.293  0.1639  0.1159  0.0594
11104SOL    HW138159   1.656   6.648   3.205  0.5864  0.6410  0.3573
11104SOL    HW238160   1.548   6.663   3.311  1.5289  2.3670  1.1218
11105SOL     OW38161   2.932   3.889   2.142 -0.4938 -0.2421  0.0674
11105SOL    HW138162   2.963   3.827   2.208 -0.5431  0.1520  0.4635
11105SOL    HW238163   2.991   3.876   2.068 -1.0682 -1.4206 -0.2232
11106SOL     OW38164   7.307   0.392   3.926  0.2959  0.1272  0.1662
11106SOL    HW138165   7.223   0.352   3.949  0.8538 -1.7718 -0.8992
11106SOL    HW238166   7.287   0.451   3.853  0.0242 -1.1604 -0.8297
11107SOL     OW38167   5.160   7.529   8.229 -0.3975 -0.6044 -0.2831
11107SOL    HW138168   5.159   7.448   8.177 -3.4593 -1.0928  0.3327
11107SOL    HW238169   5.156   7.500   8.320 -2.3032  0.1402 -0.0702
11108SOL     OW38170   1.831   7.417   5.914 -0.0299 -0.6378  0.0652
11108SOL    HW138171   1.847   7.325   5.935 -0.0087 -0.6079  0.1782
11108SOL    HW238172   1.782   7.451   5.989  1.2386 -0.1815  0.7187
11109SOL     OW38173   5.703   6.353   6.755 -0.1624 -0.3254  0.8898
11109SOL    HW138174   5.717   6.396   6.671  1.7196  1.4552  1.9946
11109SOL    HW238175   5.636   6.405   6.799  0.5498  0.1978  1.3808
11110SOL     OW38176   8.795   9.616   1.003  0.0833 -0.3535  0.4131
11110SOL    HW138177   8.859   9.683   0.980  0.1196 -0.8394 -1.0044
11110SOL    HW238178   8.735   9.613   0.928 -0.0749 -1.6952  0.5703
11111SOL     OW38179   0.670   2.540   0.830  0.5853 -0.1611 -0.4074
11111SOL    HW138180   0.716   2.458   0.847  2.4383  1.1947  1.7899
11111SOL    HW238181   0.621   2.558   0.910 -1.3895 -0.0456 -1.5888
11112SOL     OW38182   6.021   5.523   1.689 -0.1415  0.2096  0.1085
11112SOL    HW138183   6.012   5.579   1.766 -3.9392 -1.6599  1.2583
11112SOL    HW238184   5.964   5.563   1.623  0.9831  0.3250 -0.8301
11113SOL     OW38185   3.151   2.340   1.839 -0.0887  0.6019  0.5481
11113SOL    HW138186   3.195   2.272   1.891  0.8139 -0.3140 -1.2893
11113SOL    HW238187   3.070   2.298   1.808 -0.7174  1.2052  1.3592
11114SOL     OW38188   5.108   2.113   2.744 -0.5769  0.0585 -0.0495
11114SOL    HW138189   5.034   2.161   2.707 -1.5196 -1.6301 -0.4804
11114SOL    HW238190   5.071   2.028   2.769  1.2458 -0.8816 -0.3749
11115SOL     OW38191   4.749   3.308   3.249  0.0658 -0.0504  0.0109
11115SOL    HW138192   4.670   3.266   3.215  0.3902  0.8728 -2.0584
11115SOL    HW238193   4.720   3.396   3.274  0.4728  0.4217 -1.1122
11116SOL     OW38194   8.340   4.479   3.497 -1.2268 -0.0635  0.1130
11116SOL    HW138195   8.299   4.424   3.563 -1.7049  1.1035  0.8130
11116SOL    HW238196   8.268   4.507   3.440 -1.1473  0.6091  0.3356
11117SOL     OW38197   8.476   6.643   2.642 -0.0778 -0.0523  0.4436
11117SOL    HW138198   8.542   6.665   2.707  0.9005 -2.8841  0.5087
11117SOL    HW238199   8.403   6.607   2.692  0.6741 -2.2314  0.0387
11118SOL     OW38200   0.474   2.282   8.022 -0.3299  0.5319  0.0561
11118SOL    HW138201   0.470   2.358   7.964 -0.9473  2.0899  2.0565
11118SOL    HW238202   0.431   2.212   7.972  0.2964  1.4227 -1.8456
11119SOL     OW38203   7.690   4.697   7.386 -0.3804 -0.0232 -0.1977
11119SOL    HW138204   7.692   4.767   7.451 -1.2175  0.3804 -0.5906
11119SOL    HW238205   7.763   4.715   7.328  0.8951 -0.8507  1.0766
11120SOL     OW38206   9.331   6.354   7.670  0.1318 -0.4457 -0.7178
11120SOL    HW138207   9.421   6.369   7.641  0.2380 -0.1092 -0.2228
11120SOL    HW238208   9.309   6.268   7.635  0.7788 -0.6989 -0.5224
11121SOL     OW38209   1.182   1.217   5.905  0.0539 -0.3506  0.1870
11121SOL    HW138210   1.268   1.177   5.916  1.0832  2.2885  3.2083
11121SOL    HW238211   1.200   1.308   5.881 -1.7974  0.4532  1.5740
11122SOL     OW38212   4.835   5.589   5.596 -0.1830 -0.0125  0.2417
11122SOL    HW138213   4.819   5.616   5.686  0.1718 -0.8309  0.5659
11122SOL    HW238214   4.811   5.665   5.543 -2.9201 -0.3699  0.8211
11123SOL     OW38215   8.556   3.304   4.604  0.0729 -0.0106  0.2979
11123SOL    HW138216   8.619   3.286   4.534  1.6196 -0.3801  1.7362
11123SOL    HW238217   8.516   3.219   4.622  1.0013 -0.3053  1.0716
11124SOL     OW38218   3.598   1.758   3.654 -0.8277  0.0757  0.2978
11124SOL    HW138219   3.669   1.768   3.590 -1.1663 -0.5660 -0.1911
11124SOL    HW238220   3.604   1.836   3.709 -0.5517  0.6651 -0.5508
11125SOL     OW38221   0.979   0.350   2.098  0.0169  0.8276 -0.3570
11125SOL    HW138222   1.030   0.291   2.042  1.4734  1.6244  0.0881
11125SOL    HW238223   1.001   0.323   2.187 -1.2306  0.4617 -0.1411
11126SOL     OW38224   2.761   3.049   2.532 -0.4839  0.1893  0.5627
11126SOL    HW138225   2.666   3.048   2.533 -0.6077  1.6211 -1.5614
11126SOL    HW238226   2.784   3.047   2.439  1.5277  0.9606  0.9785
11127SOL     OW38227   8.977   3.554   0.274  0.2339 -0.3122 -0.0948
11127SOL    HW138228   8.886   3.565   0.250 -0.3608  1.2758  2.4646
11127SOL    HW238229   9.027   3.594   0.203 -1.1374  0.3231 -0.7194
11128SOL     OW38230   6.478   4.987   3.196 -0.4241  0.2484 -0.2016
11128SOL    HW138231   6.430   4.926   3.140  0.3582 -0.8374  0.2857
11128SOL    HW238232   6.409   5.038   3.238 -1.0344  1.0516 -2.0590
11129SOL     OW38233   2.602   5.191   5.915  0.3117  0.2167  0.0846
11129SOL    HW138234   2.657   5.133   5.862 -0.6695  0.1487 -0.8992
11129SOL    HW238235   2.541   5.230   5.852 -2.6868 -1.8984  1.4456
11130SOL     OW38236   8.084   1.825   2.806 -0.1003  0.8738  0.0718
11130SOL    HW138237   8.089   1.917   2.833 -0.2673  0.9612 -0.1865
11130SOL    HW238238   8.038   1.781   2.878 -0.0194  0.9933  0.1958
11131SOL     OW38239   8.412   8.732   6.227  0.0478  0.1208 -0.3922
11131SOL    HW138240   8.457   8.816   6.228  0.6285 -0.1795 -0.7932
11131SOL    HW238241   8.429   8.695   6.313 -1.4165  1.0265  0.3270
11132SOL     OW38242   2.634   0.071   6.970  0.5900  0.4766  0.1317
11132SOL    HW138243   2.638   0.162   6.940 -0.2108  1.2013  2.0410
11132SOL    HW238244   2.583   0.026   6.902 -0.6404  1.8937  0.0513
11133SOL     OW38245   7.577   4.594   7.130  0.2034  0.4917  0.3246
11133SOL    HW138246   7.599   4.686   7.144  0.3810  0.6904 -1.1116
11133SOL    HW238247   7.647   4.546   7.174 -0.5755  0.9889  2.2134
11134SOL     OW38248   1.879   6.603   3.838 -0.0497  0.2093  0.4628
11134SOL    HW138249   1.880   6.553   3.756 -2.5274  2.3594 -1.0640
11134SOL    HW238250   1.965   6.644   3.843 -0.0531  0.5283 -1.4503
11135SOL     OW38251   7.622   6.487   9.624 -0.1354  0.4536 -0.0771
11135SOL    HW138252   7.537   6.531   9.634 -0.3069  0.5334 -1.6123
11135SOL    HW238253   7.672   6.546   9.567  0.2986 -0.4545 -0.6554
11136SOL     OW38254   0.530   5.188   0.304  0.3988  0.3140  0.7525
11136SOL    HW138255   0.462   5.129   0.270 -0.3500  0.5636  1.7590
11136SOL    HW238256   0.509   5.273   0.265  0.8896  0.1301  0.0771
11137SOL     OW38257   5.519   6.599   0.492  0.3415  0.4989 -0.5538
11137SOL    HW138258   5.462   6.521   0.493  0.4621  0.3877 -1.6969
11137SOL    HW238259   5.506   6.637   0.406  1.2626  1.0299 -0.4652
11138SOL     OW38260   1.822   3.519   2.711  0.6578  0.0269  0.4840
11138SOL    HW138261   1.835   3.473   2.794  2.5869  0.8694  0.7004
11138SOL    HW238262   1.779   3.602   2.736 -1.7255 -1.0381  0.2216
11139SOL     OW38263   8.623   5.934   0.474  0.1405  0.7211  0.3233
11139SOL    HW138264   8.647   5.842   0.483  1.8798  1.0731 -0.3574
11139SOL    HW238265   8.528   5.934   0.467  0.0905 -0.9852  0.6893
11140SOL     OW38266   9.419   5.124   6.608 -0.1769 -0.6639 -0.0564
11140SOL    HW138267   9.324   5.133   6.605 -0.1846  0.2125  1.6923
11140SOL    HW238268   9.450   5.170   6.531 -1.0505  1.7765  0.9461
11141SOL     OW38269   6.703   8.015   1.654  0.2588  0.0083 -0.0211
11141SOL    HW138270   6.700   8.057   1.569  0.2237  1.2761  0.5879
11141SOL    HW238271   6.664   8.078   1.714  0.8898 -0.5870  1.0516
11142SOL     OW38272   6.872   3.864   2.469 -0.0230 -0.6100 -0.6817
11142SOL    HW138273   6.824   3.875   2.551  2.1466  0.3799  0.5479
11142SOL    HW238274   6.936   3.796   2.488  0.9678  0.1250 -1.3068
11143SOL     OW38275   7.337   4.689   6.342 -0.2785  0.2583 -0.0677
11143SOL    HW138276   7.308   4.653   6.426  1.5308  0.3264  0.6372
11143SOL    HW238277   7.324   4.618   6.280 -0.9310 -0.0528  0.4073
11144SOL     OW38278   1.988   6.278   5.214  0.0731 -0.3076  0.1582
11144SOL    HW138279   1.931   6.354   5.226  0.2283 -0.0891 -0.4847
11144SOL    HW238280   2.076   6.314   5.212  0.1884 -0.5702  0.4462
11145SOL     OW38281   9.540   9.214   8.010  0.2127  0.2192 -0.2393
11145SOL    HW138282   9.606   9.243   7.947  0.1077  0.5130 -0.2121
11145SOL    HW238283   9.589   9.162   8.074  0.6137  1.4592  0.4748
11146SOL     OW38284   4.420   7.275   4.415  0.1765  0.1913 -0.2255
11146SOL    HW138285   4.356   7.336   4.452 -1.1956 -0.5689 -1.2565
11146SOL    HW238286   4.399   7.191   4.455  0.8837  0.0256 -0.1819
11147SOL     OW38287   2.327   8.949   8.118 -0.0233  0.4852 -0.3028
11147SOL    HW138288   2.380   8.893   8.173  0.3754  1.9113  0.8029
11147SOL    HW238289   2.383   9.023   8.096  0.1964 -0.4467 -3.4932
11148SOL     OW38290   1.695   4.412   8.366 -0.1189 -0.3150  0.9612
11148SOL    HW138291   1.627   4.345   8.366 -1.0637  0.5878 -0.9349
11148SOL    HW238292   1.651   4.491   8.397  0.5701 -0.1415  1.5446
11149SOL     OW38293   6.412   9.446   5.147  0.1447 -0.2555  0.0285
11149SOL    HW138294   6.372   9.533   5.152  1.6307  0.4574 -0.1488
11149SOL    HW238295   6.424   9.419   5.238 -0.0533 -0.1619  0.0829
11150SOL     OW38296   6.719   1.328   2.056 -1.1015 -0.6181  0.8250
11150SOL    HW138297   6.698   1.239   2.030 -1.0690 -0.5577  0.5892
11150SOL    HW238298   6.683   1.383   1.987 -0.1262 -0.5189  0.3671
11151SOL     OW38299   4.639   2.916   8.368  0.1507 -0.5425  0.1782
11151SOL    HW138300   4.686   2.900   8.449 -1.2151  0.8512  1.3021
11151SOL    HW238301   4.625   2.829   8.330 -0.5385 -1.3746  2.2233
11152SOL     OW38302   5.890   1.185   3.630  0.0802 -0.1538 -0.3184
11152SOL    HW138303   5.858   1.099   3.657  0.2072 -0.1658 -0.2042
11152SOL    HW238304   5.982   1.185   3.655  0.2157 -0.1854 -0.8003
11153SOL     OW38305   7.285   8.917   1.910 -0.1539  0.1985 -0.1001
11153SOL    HW138306   7.329   8.968   1.978  0.5149 -1.8657  1.1180
11153SOL    HW238307   7.198   8.955   1.904  0.7970  2.4836 -0.4430
11154SOL     OW38308   4.586   4.970   1.958  0.1066  0.3819  0.0774
11154SOL    HW138309   4.528   5.030   1.912 -2.2290 -1.7393  0.0437
11154SOL    HW238310   4.533   4.934   2.029  1.7307 -0.8694  0.7343
11155SOL     OW38311   1.021   5.967   2.496  0.1108 -0.0093 -0.5591
11155SOL    HW138312   1.106   6.009   2.506 -0.1367  0.1630  1.1730
11155SOL    HW238313   1.039   5.874   2.502  0.2737 -0.0116 -1.0667
11156SOL     OW38314   4.434   5.177   0.332 -0.5312 -0.4108 -0.3536
11156SOL    HW138315   4.472   5.224   0.258 -0.2139 -0.6413 -0.3436
11156SOL    HW238316   4.498   5.108   0.351 -0.5026 -0.2125  0.2814
11157SOL     OW38317   5.737   4.042   7.330  0.3937 -0.3929 -0.0493
11157SOL    HW138318   5.681   4.112   7.297  0.5571  0.2105  0.9294
11157SOL    HW238319   5.826   4.069   7.308  0.3265 -1.9228 -2.7032
11158SOL     OW38320   2.039   2.111   5.371  0.1017  0.6978  0.6947
11158SOL    HW138321   1.981   2.104   5.296  1.2705 -0.6496 -0.1447
11158SOL    HW238322   1.988   2.078   5.445 -1.1079  2.1747  0.5586
11159SOL     OW38323   1.120   4.403   4.464 -1.0046  0.1995  0.2281
11159SOL    HW138324   1.026   4.414   4.446 -1.0766 -2.4772 -1.5310
11159SOL    HW238325   1.162   4.468   4.408 -1.7474  0.5896  0.1026
11160SOL     OW38326   4.004   8.825   7.118  0.0124 -0.1463 -0.7023
11160SOL    HW138327   4.021   8.738   7.083  0.2017 -0.8414  1.0227
11160SOL    HW238328   3.934   8.859   7.064 -0.6534 -1.7206 -0.8837
11161SOL     OW38329   5.853   8.432   0.479  0.1532 -0.4829  0.0253
11161SOL    HW138330   5.937   8.467   0.509  0.4142 -1.1985  0.1554
11161SOL    HW238331   5.872   8.394   0.393 -0.1304 -0.2744 -0.1305
11162SOL     OW38332   0.460   6.700   5.613 -0.3582 -0.3601 -0.0677
11162SOL    HW138333   0.446   6.630   5.549 -0.3244 -1.3317  0.9696
11162SOL    HW238334   0.395   6.767   5.589  1.1833  0.3941 -2.5800
11163SOL     OW38335   7.201   1.189   0.074  0.3140  0.0310 -0.1759
11163SOL    HW138336   7.183   1.147  -0.010  0.1181 -1.8416  0.7534
11163SOL    HW238337   7.190   1.120   0.139  2.5976  0.8579  1.2261
11164SOL     OW38338   2.020   6.463   8.661  0.0260  0.2058  0.0512
11164SOL    HW138339   2.026   6.402   8.735 -1.1074  0.6388  0.5304
11164SOL    HW238340   2.004   6.548   8.702 -0.5874  0.4519 -0.6908
11165SOL     OW38341   1.441   6.871   8.859 -0.2890 -0.3533 -0.2821
11165SOL    HW138342   1.436   6.832   8.772  0.3668  1.9973 -1.4488
11165SOL    HW238343   1.523   6.839   8.895  0.7278  0.6570 -1.6151
11166SOL     OW38344   4.576   4.770   4.108  0.1416 -0.3304 -0.0803
11166SOL    HW138345   4.514   4.830   4.067  0.0267  1.3609  2.3348
11166SOL    HW238346   4.523   4.695   4.135 -0.8407  0.8618  1.4864
11167SOL     OW38347   0.606   3.079   8.658 -0.4883  0.4457  0.7506
11167SOL    HW138348   0.645   3.148   8.712 -0.3719  0.5869  0.4865
11167SOL    HW238349   0.638   2.998   8.697 -0.8888  0.5295  1.2642
11168SOL     OW38350   2.432   7.710   3.884 -0.3685  0.0424 -0.2694
11168SOL    HW138351   2.404   7.623   3.856  1.8433 -0.5166 -0.8907
11168SOL    HW238352   2.446   7.702   3.978  1.4883 -0.8215 -0.5727
11169SOL     OW38353   7.045   4.783   0.485 -0.1044  0.4362  0.1862
11169SOL    HW138354   7.115   4.818   0.430  0.6607 -0.6020  0.4705
11169SOL    HW238355   7.071   4.807   0.574  0.4241 -0.8012  0.3842
11170SOL     OW38356   7.055   7.913   8.501  1.0486  0.0569 -0.1314
11170SOL    HW138357   7.036   7.972   8.574  1.1965  1.2160 -0.9861
11170SOL    HW238358   7.117   7.963   8.447  0.4680 -0.5091 -1.3557
11171SOL     OW38359   7.252   6.571   9.027 -0.6449  0.3033  0.1651
11171SOL    HW138360   7.204   6.594   8.948 -0.7914  0.5690  0.3284
11171SOL    HW238361   7.335   6.535   8.996 -1.1764 -0.7079 -0.1370
11172SOL     OW38362   4.054   9.530   3.370  0.1177 -0.0837  0.0700
11172SOL    HW138363   4.040   9.517   3.276  0.7783  0.2406 -0.0787
11172SOL    HW238364   4.033   9.623   3.385 -1.9266 -0.5826  0.6235
11173SOL     OW38365   8.933   3.152   4.941 -0.6828 -0.4465 -0.2447
11173SOL    HW138366   8.998   3.082   4.939 -1.2789 -0.9968 -0.6220
11173SOL    HW238367   8.869   3.127   4.874 -1.3185  0.0582  0.1669
11174SOL     OW38368   0.663   7.879   6.536  0.7067 -0.5182  1.0447
11174SOL    HW138369   0.752   7.914   6.525  1.3413 -2.1409  0.7882
11174SOL    HW238370   0.607   7.957   6.530  2.1714  0.7694  2.7363
11175SOL     OW38371   3.888   2.657   4.972 -0.0107  0.1360 -0.0234
11175SOL    HW138372   3.861   2.641   4.882 -2.1798 -0.6397  0.7060
11175SOL    HW238373   3.909   2.571   5.008  0.8613  0.4390  0.2388
11176SOL     OW38374   6.753   5.903   8.669 -0.5585  0.0872 -0.2814
11176SOL    HW138375   6.823   5.853   8.712 -0.7111  0.2751  0.1869
11176SOL    HW238376   6.795   5.986   8.645 -0.2107 -0.3809 -1.3642
11177SOL     OW38377   3.790   8.209   4.643  0.3759  0.2260 -0.0393
11177SOL    HW138378   3.806   8.223   4.737  2.5051 -3.0051  0.2363
11177SOL    HW238379   3.702   8.170   4.641  0.5686 -0.2760  0.6922
11178SOL     OW38380   9.583   7.293   6.564 -0.0387 -0.4735  0.0855
11178SOL    HW138381   9.528   7.215   6.571 -0.5388 -0.0032  1.8997
11178SOL    HW238382   9.587   7.328   6.653 -1.2636  2.5756 -0.9291
11179SOL     OW38383   3.666   7.285   8.228  0.4975  0.1399 -0.2488
11179SOL    HW138384   3.603   7.317   8.164 -0.1374 -0.3536  0.1208
11179SOL    HW238385   3.678   7.193   8.205  1.0068  0.2022 -0.2500
11180SOL     OW38386   9.473   0.414   5.551  0.4920 -0.3307 -0.0890
11180SOL    HW138387   9.559   0.423   5.510  0.3333  0.8043 -0.1996
11180SOL    HW238388   9.419   0.481   5.510 -0.4920 -1.0918 -0.0927
11181SOL     OW38389   3.801   1.117   5.491 -1.1654  0.0554  0.5697
11181SOL    HW138390   3.744   1.059   5.542 -0.3958 -0.1147  1.2671
11181SOL    HW238391   3.857   1.159   5.557  0.6344 -1.0177 -0.1888
11182SOL     OW38392   7.809   8.067   6.510 -0.0371  0.0863 -0.0948
11182SOL    HW138393   7.828   7.974   6.518  2.0289  0.3974 -0.8604
11182SOL    HW238394   7.747   8.085   6.581  2.3574 -1.1395  2.5247
11183SOL     OW38395   9.159   3.472   7.317 -0.6818 -0.5732 -0.3730
11183SOL    HW138396   9.199   3.385   7.322 -0.6139 -0.6310 -1.6948
11183SOL    HW238397   9.113   3.473   7.233 -1.0161  0.5286 -0.1954
11184SOL     OW38398   3.466   0.127   8.865  0.2857  0.3445  0.0635
11184SOL    HW138399   3.540   0.162   8.816  1.1270 -1.1627  0.2164
11184SOL    HW238400   3.444   0.045   8.821  0.8553 -0.8777  1.9174
11185SOL     OW38401   4.747   7.457   9.108 -0.7300  0.1979 -0.3677
11185SOL    HW138402   4.777   7.368   9.090  0.7797  0.7760 -0.9090
11185SOL    HW238403   4.673   7.446   9.168 -1.8044 -1.4972 -1.9085
11186SOL     OW38404   7.103   1.273   7.507 -0.0509 -0.1068  0.1045
11186SOL    HW138405   7.152   1.327   7.446 -0.9905  1.7941  0.9360
11186SOL    HW238406   7.164   1.204   7.534  0.7340 -0.3201 -2.0664
11187SOL     OW38407   9.689   6.269   4.395 -0.1116 -0.4407  0.3417
11187SOL    HW138408   9.695   6.364   4.393 -1.1462 -0.3189  1.4333
11187SOL    HW238409   9.774   6.239   4.426  0.3493  0.0912 -0.3901
11188SOL     OW38410   6.081   4.251   1.705  0.0867 -0.4190  0.1362
11188SOL    HW138411   6.011   4.186   1.690  1.7600 -2.4465  0.6413
11188SOL    HW238412   6.037   4.335   1.695 -2.2322 -1.5985 -0.4923
11189SOL     OW38413   5.187   4.941   7.242 -0.6229 -0.2295  0.3268
11189SOL    HW138414   5.223   4.871   7.296  2.6387  1.1744  0.2237
11189SOL    HW238415   5.159   5.008   7.304 -2.8015 -1.1362  0.3893
11190SOL     OW38416   5.534   4.046   0.614  0.1855  0.0611 -0.3242
11190SOL    HW138417   5.484   4.022   0.536 -0.1451 -1.3605  0.2879
11190SOL    HW238418   5.482   4.010   0.687  1.0559  0.3709  0.4599
11191SOL     OW38419   4.639   8.424   0.667 -0.4102 -0.4648 -0.1925
11191SOL    HW138420   4.546   8.422   0.688 -0.5483 -2.5605 -0.7362
11191SOL    HW238421   4.643   8.461   0.579 -0.7359 -0.4518 -0.2041
11192SOL     OW38422   5.004   2.833   7.654  0.1490  0.2877  0.1583
11192SOL    HW138423   4.997   2.878   7.570  1.6350  1.0619  0.3932
11192SOL    HW238424   4.976   2.743   7.637  1.2912  0.1892 -1.3906
11193SOL     OW38425   8.933   5.863   0.651  0.1180 -0.3262 -0.0276
11193SOL    HW138426   9.009   5.919   0.668 -1.0994  1.4525 -0.1016
11193SOL    HW238427   8.948   5.826   0.564 -0.0524  1.7282 -0.9883
11194SOL     OW38428   9.098   4.852   6.826  0.3068  0.4044  0.5420
11194SOL    HW138429   9.110   4.803   6.745 -0.6769  0.9406  0.0470
11194SOL    HW238430   9.129   4.793   6.895 -0.7182 -0.8756 -0.0374
11195SOL     OW38431   4.041   8.610   0.477 -0.4754  0.2772  0.5118
11195SOL    HW138432   4.093   8.578   0.551  1.0996 -0.1787 -0.7185
11195SOL    HW238433   4.000   8.690   0.508  1.2440  0.8354  1.4705
11196SOL     OW38434   5.306   1.881   3.138  0.1550  0.2886  1.0019
11196SOL    HW138435   5.362   1.954   3.112 -1.1553  1.2899  0.8721
11196SOL    HW238436   5.322   1.814   3.072 -0.1468  1.2629 -0.0999
11197SOL     OW38437   0.388   3.750   1.256  0.0768 -0.3685  0.1702
11197SOL    HW138438   0.356   3.769   1.168 -0.1541 -0.3272  0.2609
11197SOL    HW238439   0.440   3.826   1.280  2.6007 -1.5932 -1.0559
11198SOL     OW38440   1.447   1.430   6.439  0.0856  0.1983 -0.0641
11198SOL    HW138441   1.456   1.481   6.358 -1.1974  0.4991 -0.0415
11198SOL    HW238442   1.529   1.444   6.485  0.3504  1.0353 -0.7530
11199SOL     OW38443   8.173   1.743   5.972 -0.2996 -0.4154 -0.1710
11199SOL    HW138444   8.172   1.736   5.877  1.4804  0.4705 -0.2832
11199SOL    HW238445   8.229   1.819   5.991 -0.4323 -0.7011  1.5889
11200SOL     OW38446   2.580   0.180   8.841 -0.7339  0.2714 -0.7702
11200SOL    HW138447   2.490   0.172   8.872 -0.1168 -1.3221  0.7642
11200SOL    HW238448   2.575   0.163   8.747 -2.1427  1.1844 -0.8868
11201SOL     OW38449   8.503   7.724   1.604  0.0135  0.0623 -0.1805
11201SOL    HW138450   8.558   7.767   1.670 -0.4802  0.5169 -0.0568
11201SOL    HW238451   8.413   7.741   1.634 -0.2024 -1.7817  0.3493
11202SOL     OW38452   4.501   6.392   1.050  0.1017 -0.0068  0.1342
11202SOL    HW138453   4.506   6.349   1.135  0.8475 -1.6705 -0.6997
11202SOL    HW238454   4.570   6.458   1.053  0.4534 -0.3850  0.6537
11203SOL     OW38455   4.024   6.989   8.783 -0.5886  0.7096  0.0025
11203SOL    HW138456   3.947   6.968   8.837  0.1765 -0.5130  0.6889
11203SOL    HW238457   4.097   6.951   8.832  0.1907 -0.0406 -1.6873
11204SOL     OW38458   0.982   0.747   4.618 -0.2518  0.3538  0.1469
11204SOL    HW138459   1.060   0.752   4.562  0.0048  1.9407  0.5901
11204SOL    HW238460   0.980   0.656   4.648 -0.4103 -0.5576 -2.4083
11205SOL     OW38461   2.304   4.986   5.745  0.2454 -0.3517  0.2781
11205SOL    HW138462   2.249   4.973   5.821 -0.5879 -0.4251 -0.3241
11205SOL    HW238463   2.260   5.054   5.694  0.0532 -1.2522 -0.8088
11206SOL     OW38464   5.589   8.727   2.005 -0.4143 -0.0338 -0.0834
11206SOL    HW138465   5.610   8.820   2.010 -2.3921  0.4087  0.7602
11206SOL    HW238466   5.508   8.723   1.954 -0.0965 -1.3475 -0.5199
11207SOL     OW38467   1.217   1.120   4.888 -0.5904  0.3975  0.0600
11207SOL    HW138468   1.220   1.128   4.983  1.6572 -2.5638  0.4057
11207SOL    HW238469   1.139   1.067   4.870  0.0100 -0.6722  0.5037
11208SOL     OW38470   1.750   4.374   8.709  0.3443 -0.1638 -0.5210
11208SOL    HW138471   1.662   4.410   8.699  0.2414 -0.2085  0.1944
11208SOL    HW238472   1.782   4.411   8.791  1.4275  0.7339 -1.3130
11209SOL     OW38473   7.744   9.274   1.958  0.1792 -0.4362 -0.1740
11209SOL    HW138474   7.772   9.184   1.975  0.2521 -0.4722 -0.4758
11209SOL    HW238475   7.785   9.326   2.028  1.6730 -0.3754 -1.0414
11210SOL     OW38476   6.458   5.395   0.438  0.1543 -0.0418  0.3322
11210SOL    HW138477   6.436   5.420   0.348  1.4134  1.2454  0.3490
11210SOL    HW238478   6.511   5.316   0.428  1.1067  0.6430 -0.1366
11211SOL     OW38479   0.348   5.969   6.007  0.0231  0.1866 -0.4159
11211SOL    HW138480   0.352   6.041   5.944 -0.1258  0.7276  0.1822
11211SOL    HW238481   0.347   5.890   5.953  2.1404  0.5381 -1.0555
11212SOL     OW38482   0.598   6.726   2.537 -0.7007  0.0456 -0.1238
11212SOL    HW138483   0.660   6.687   2.475 -0.5564 -0.3684  0.2703
11212SOL    HW238484   0.547   6.651   2.569 -0.7413  0.2493  0.2907
11213SOL     OW38485   7.434   4.962   6.696 -0.1882  0.6220 -0.2948
11213SOL    HW138486   7.339   4.961   6.685 -0.3027  0.3685  0.6808
11213SOL    HW238487   7.468   4.938   6.609 -1.0650 -1.4452 -0.1390
11214SOL     OW38488   1.252   6.245   6.910 -0.0751  0.0988 -0.2654
11214SOL    HW138489   1.203   6.198   6.843 -1.3478 -0.6135  1.0920
11214SOL    HW238490   1.257   6.335   6.879 -0.0563 -0.3508 -1.6007
11215SOL     OW38491   5.959   3.642   0.817  0.2110  0.4366 -0.4066
11215SOL    HW138492   5.945   3.569   0.757 -1.2536  0.4475 -0.1149
11215SOL    HW238493   5.876   3.690   0.817 -0.9397 -1.0793  3.5886
11216SOL     OW38494   3.367   6.166   6.922 -0.4378  0.4228 -0.3331
11216SOL    HW138495   3.395   6.084   6.962 -0.7299  0.6418  0.3391
11216SOL    HW238496   3.392   6.158   6.830 -1.4439 -0.8551 -0.5154
11217SOL     OW38497   0.757   8.543   1.489  0.0100  0.3898 -0.4238
11217SOL    HW138498   0.742   8.472   1.551 -0.6620  0.8442 -0.0439
11217SOL    HW238499   0.844   8.527   1.453  0.1105 -0.2768  0.1120
11218SOL     OW38500   2.800   8.953   0.122  0.3503  0.2641  0.7160
11218SOL    HW138501   2.735   9.023   0.113  0.5521  0.2340 -1.8907
11218SOL    HW238502   2.883   8.995   0.098  0.5486 -0.7212 -0.3804
11219SOL     OW38503   3.647   7.840   5.739  0.4714 -0.5067  0.4858
11219SOL    HW138504   3.612   7.899   5.672  1.1816  0.6622  1.1042
11219SOL    HW238505   3.739   7.828   5.714  0.9893  0.6585  1.6837
11220SOL     OW38506   7.479   6.728   3.915  0.5814  0.1550 -0.8565
11220SOL    HW138507   7.414   6.668   3.952  1.0499  0.0497 -0.1883
11220SOL    HW238508   7.489   6.796   3.981  0.3794  0.7443 -1.4185
11221SOL     OW38509   3.180   4.329   9.120 -0.2845 -0.3068  0.1638
11221SOL    HW138510   3.212   4.397   9.179 -0.4993  0.8028 -0.9575
11221SOL    HW238511   3.094   4.305   9.155 -0.1331 -0.1309  0.6657
11222SOL     OW38512   0.751   0.454   1.352 -0.7153 -0.1426 -0.1087
11222SOL    HW138513   0.792   0.467   1.267  0.9482 -1.5731  0.4132
11222SOL    HW238514   0.679   0.392   1.335  0.5569 -1.6358 -0.2867
11223SOL     OW38515   5.253   4.669   5.835 -0.4953  0.2213 -0.6325
11223SOL    HW138516   5.257   4.691   5.928 -1.1929  1.0773 -0.7894
11223SOL    HW238517   5.340   4.636   5.814 -0.8789 -1.8862  0.7602
11224SOL     OW38518   7.803   0.005   5.639 -0.1389  0.2270  0.1868
11224SOL    HW138519   7.817   0.092   5.603 -1.8506  1.7119  2.8238
11224SOL    HW238520   7.832   0.011   5.730 -2.9070 -1.0016  1.2867
11225SOL     OW38521   2.070   6.105   6.743  0.2280  0.5680  0.0056
11225SOL    HW138522   2.094   6.113   6.651 -2.0178 -0.1269 -0.6881
11225SOL    HW238523   2.049   6.013   6.755 -1.3139  0.9844  0.7176
11226SOL     OW38524   8.194   6.116   0.290 -0.2777 -0.0286  0.0467
11226SOL    HW138525   8.130   6.059   0.333 -0.3934  1.3521  1.7957
11226SOL    HW238526   8.149   6.200   0.282  0.8704  0.6005  0.1252
11227SOL     OW38527   9.709   9.147   1.429 -0.5765 -0.1180 -0.1142
11227SOL    HW138528   9.656   9.134   1.350  0.4804 -0.1200 -0.8535
11227SOL    HW238529   9.788   9.192   1.398 -1.9913  3.9488  1.6074
11228SOL     OW38530   9.061   9.381   3.473 -0.7056  0.1773  0.7547
11228SOL    HW138531   9.107   9.465   3.479  0.4233 -0.4636  1.3589
11228SOL    HW238532   9.087   9.345   3.389 -0.9758  0.2933  0.6175
11229SOL     OW38533   9.374   2.799   6.880 -0.1496  0.3510  0.4468
11229SOL    HW138534   9.421   2.718   6.857 -1.5859 -0.2573 -0.5386
11229SOL    HW238535   9.387   2.856   6.804 -3.0027 -0.7931 -1.0704
11230SOL     OW38536   7.011   3.899   4.590  0.5788 -0.1124 -0.5956
11230SOL    HW138537   7.076   3.957   4.629 -0.0182  0.3270 -0.2389
11230SOL    HW238538   6.989   3.940   4.506  0.8441 -0.3234 -0.7701
11231SOL     OW38539   7.691   8.567   6.945  0.0567  0.2309 -0.6925
11231SOL    HW138540   7.727   8.649   6.979  0.1212 -0.1160  0.0952
11231SOL    HW238541   7.663   8.588   6.856 -0.3732  1.2350 -0.3298
11232SOL     OW38542   8.045   9.496   5.411 -0.9466  0.1467 -0.1262
11232SOL    HW138543   8.033   9.413   5.364 -1.1324  0.8028 -1.2767
11232SOL    HW238544   7.988   9.557   5.365 -0.0887  1.1401  0.1119
11233SOL     OW38545   6.075   1.633   3.190  0.1012 -0.2040 -0.2618
11233SOL    HW138546   6.165   1.615   3.218  0.1929  1.9806  1.0947
11233SOL    HW238547   6.050   1.712   3.240 -2.5927 -0.7978 -0.5382
11234SOL     OW38548   2.767   3.746   5.208 -0.2783  0.4958 -0.1153
11234SOL    HW138549   2.750   3.840   5.217  1.2071  0.8511 -0.7681
11234SOL    HW238550   2.859   3.736   5.231 -0.6070 -0.9402  0.7244
11235SOL     OW38551   7.004   6.408   5.968  0.0881  0.0677  0.1714
11235SOL    HW138552   7.090   6.431   6.004  1.3986 -0.8254 -2.1380
11235SOL    HW238553   6.997   6.313   5.982  0.3339 -0.1805 -1.1625
11236SOL     OW38554   5.595   7.848   5.075 -0.3213 -1.0770 -0.0284
11236SOL    HW138555   5.616   7.941   5.067  0.2437 -1.1516  0.5889
11236SOL    HW238556   5.504   7.842   5.046  0.0134 -0.5261 -1.2545
11237SOL     OW38557   1.011   1.818   1.777 -0.7467 -0.0197 -0.0772
11237SOL    HW138558   1.039   1.734   1.742 -0.6542  0.8163 -2.1705
11237SOL    HW238559   1.040   1.882   1.712  1.5353  1.9915  2.6361
11238SOL     OW38560   8.374   6.673   4.044  0.2303 -0.0236  0.1531
11238SOL    HW138561   8.427   6.668   3.965 -0.1112 -3.0304 -0.0062
11238SOL    HW238562   8.437   6.695   4.113  0.8628  0.7067 -0.6265
11239SOL     OW38563   1.708   6.338   3.750  0.2129  0.1003  0.1627
11239SOL    HW138564   1.753   6.324   3.834  0.0307 -1.0512  0.0893
11239SOL    HW238565   1.735   6.263   3.696 -2.8501 -1.4607  0.5792
11240SOL     OW38566   0.331   1.643   4.665  0.4354 -0.7250 -0.3687
11240SOL    HW138567   0.399   1.680   4.609  1.5300 -1.2066  0.5988
11240SOL    HW238568   0.321   1.553   4.634 -0.3629 -0.4328 -1.0220
11241SOL     OW38569   9.460   4.201   7.722 -0.1469 -0.2296  0.0766
11241SOL    HW138570   9.518   4.180   7.795 -0.4926  1.5365  0.9347
11241SOL    HW238571   9.385   4.243   7.763 -0.4487  0.6142 -1.2652
11242SOL     OW38572   6.522   4.257   5.905 -0.0186 -0.3097 -0.4606
11242SOL    HW138573   6.511   4.318   5.832 -1.4412 -0.1695 -0.1645
11242SOL    HW238574   6.503   4.171   5.866 -0.4191 -0.2739 -0.3550
11243SOL     OW38575   9.068   6.540   5.517 -0.6036  0.5310 -0.3485
11243SOL    HW138576   9.067   6.547   5.613 -0.7690  0.6727 -0.3609
11243SOL    HW238577   9.160   6.522   5.495 -0.4597  1.0783 -0.2060
11244SOL     OW38578   6.074   8.349   1.071  0.5907 -0.0300 -0.2245
11244SOL    HW138579   6.109   8.404   1.141  2.1610 -0.8017 -0.3708
11244SOL    HW238580   6.058   8.264   1.112 -0.1544  0.0133 -0.4110
11245SOL     OW38581   5.901   9.649   9.144  0.0121  0.4415 -0.4243
11245SOL    HW138582   5.973   9.709   9.163 -0.0070  0.5977 -0.8533
11245SOL    HW238583   5.900   9.640   9.049  0.7559 -1.1343 -0.3289
11246SOL     OW38584   4.655   1.057   9.093 -0.2476  0.2156  0.0370
11246SOL    HW138585   4.741   1.028   9.125 -0.1332 -0.2671 -0.6808
11246SOL    HW238586   4.615   1.101   9.168  0.5533  0.2862  0.4357
11247SOL     OW38587   8.197   6.541   0.760 -0.4475 -0.4228 -0.5933
11247SOL    HW138588   8.222   6.632   0.741 -1.2083 -0.2403 -0.7481
11247SOL    HW238589   8.280   6.494   0.763 -0.0667  0.2154 -0.8459
11248SOL     OW38590   4.923   9.629   3.153 -0.0441  0.4832 -0.2457
11248SOL    HW138591   4.938   9.610   3.245 -0.3488  1.5068  0.0327
11248SOL    HW238592   5.009   9.650   3.118  0.1971 -0.6814 -0.4063
11249SOL     OW38593   0.135   8.897   5.574  0.3744 -0.7275  0.4687
11249SOL    HW138594   0.182   8.976   5.599  0.8795 -0.7802 -0.2782
11249SOL    HW238595   0.123   8.904   5.479  0.0903 -1.3663  0.4476
11250SOL     OW38596   6.783   6.987   9.576 -0.0064 -0.4865  0.1819
11250SOL    HW138597   6.831   7.025   9.502 -0.4844  0.3100  0.2669
11250SOL    HW238598   6.802   6.893   9.572 -0.2215 -0.4835 -1.0903
11251SOL     OW38599   1.122   7.729   1.366  0.0266 -0.4732 -0.5160
11251SOL    HW138600   1.129   7.821   1.389  0.3804  0.0244 -2.4595
11251SOL    HW238601   1.027   7.713   1.362 -0.0395  0.0318 -1.0107
11252SOL     OW38602   4.486   9.733   9.000 -0.2679 -0.8151  0.5854
11252SOL    HW138603   4.473   9.735   8.905  0.6663  0.6117  0.4618
11252SOL    HW238604   4.400   9.756   9.036  0.0832  1.8843 -0.0488
11253SOL     OW38605   7.116   9.610   1.022 -0.3504 -0.1532  0.6786
11253SOL    HW138606   7.100   9.627   1.114  1.1969  0.4135  0.8728
11253SOL    HW238607   7.033   9.630   0.979 -0.3928  2.0675  1.6509
11254SOL     OW38608   8.884   7.932   9.317 -0.2423  0.2816 -0.8472
11254SOL    HW138609   8.872   7.997   9.387  0.0418 -1.5502  1.0017
11254SOL    HW238610   8.844   7.972   9.240 -0.7671  2.3036  0.3997
11255SOL     OW38611   4.680   3.383   1.640 -0.4200 -0.2515 -0.4932
11255SOL    HW138612   4.714   3.347   1.559 -0.2317 -1.7765  0.2252
11255SOL    HW238613   4.711   3.323   1.708  0.1567  1.4430  0.8218
11256SOL     OW38614   2.410   4.798   2.421  0.1755 -0.3707 -0.0873
11256SOL    HW138615   2.341   4.749   2.374 -0.8670 -0.5722  1.5832
11256SOL    HW238616   2.390   4.785   2.513  0.5621  2.2384  0.4462
11257SOL     OW38617   6.159   4.966   9.038 -0.1384 -0.1694  0.0012
11257SOL    HW138618   6.198   4.981   8.952 -1.0845 -0.4045 -0.4856
11257SOL    HW238619   6.068   4.942   9.019 -0.3268 -0.3431  1.0625
11258SOL     OW38620   3.708   2.906   0.297  0.0132  0.5045 -0.1118
11258SOL    HW138621   3.710   2.851   0.219  0.1438  0.0778  0.1872
11258SOL    HW238622   3.616   2.904   0.325  0.2562 -0.6350  0.6437
11259SOL     OW38623   8.984   0.639   7.738 -0.4674  0.0069  0.3861
11259SOL    HW138624   9.019   0.600   7.659  2.4125 -0.8353  1.9436
11259SOL    HW238625   9.017   0.729   7.738  1.6656 -0.7045  1.7189
11260SOL     OW38626   9.008   1.890   5.944 -0.2097 -0.1672  0.4133
11260SOL    HW138627   9.064   1.923   6.014  0.4035 -1.5090  0.5946
11260SOL    HW238628   8.981   1.968   5.896  1.2499  0.5739  0.7414
11261SOL     OW38629   7.066   2.950   7.248  0.2100 -0.0639 -0.1396
11261SOL    HW138630   6.975   2.980   7.248 -0.1804 -1.1088 -1.7267
11261SOL    HW238631   7.093   2.957   7.340 -1.5237  0.1030  0.4075
11262SOL     OW38632   8.334   3.503   2.074  0.4859 -0.2645  0.4209
11262SOL    HW138633   8.277   3.560   2.126  0.3677 -0.1282  0.1484
11262SOL    HW238634   8.364   3.436   2.135  0.4236 -0.0548  0.6855
11263SOL     OW38635   6.774   6.332   8.416 -0.5561 -0.3343 -0.3554
11263SOL    HW138636   6.711   6.261   8.403  0.1868 -0.6756 -2.6448
11263SOL    HW238637   6.856   6.298   8.381  0.5975  0.6019  1.2924
11264SOL     OW38638   6.942   9.620   6.152  0.7616 -0.0740  0.2777
11264SOL    HW138639   7.036   9.605   6.157  0.8340  0.1837 -0.2009
11264SOL    HW238640   6.921   9.670   6.231  1.3216  1.3145 -0.4031
11265SOL     OW38641   2.218   8.583   7.719 -0.4247 -0.7419 -0.0738
11265SOL    HW138642   2.179   8.516   7.775 -1.5595  0.3437  0.4735
11265SOL    HW238643   2.296   8.611   7.766  0.4443 -2.1271 -0.6333
11266SOL     OW38644   2.037   8.053   0.686 -0.2718 -0.1031  0.7254
11266SOL    HW138645   2.093   8.125   0.714 -1.4130  0.7043  0.9977
11266SOL    HW238646   1.953   8.094   0.665 -1.0699 -1.3888  1.2458
11267SOL     OW38647   8.465   3.847   8.717 -0.7134  0.0115  0.0473
11267SOL    HW138648   8.416   3.904   8.658  1.0506 -1.6401 -3.3474
11267SOL    HW238649   8.549   3.892   8.729 -0.2471 -0.6383 -0.6185
11268SOL     OW38650   6.400   2.833   6.224  0.1456 -0.0529 -0.0623
11268SOL    HW138651   6.407   2.806   6.316  0.6351  0.9802  0.2297
11268SOL    HW238652   6.310   2.813   6.199  0.6907 -2.7345 -0.1741
11269SOL     OW38653   0.422   3.076   0.094  0.1264 -0.4636  0.5093
11269SOL    HW138654   0.465   3.117   0.018 -0.6317 -0.6186 -0.0104
11269SOL    HW238655   0.386   3.150   0.143 -0.3133 -0.4299  0.1416
11270SOL     OW38656   9.549   0.623   3.008  0.2413 -1.2803 -0.3273
11270SOL    HW138657   9.634   0.642   2.968 -0.0683  2.4550  0.4631
11270SOL    HW238658   9.569   0.599   3.098  0.4923  0.8975  0.2446
11271SOL     OW38659   6.498   3.822   1.779 -0.9283 -0.4108  0.8812
11271SOL    HW138660   6.459   3.897   1.824 -1.3070 -0.7431  1.1118
11271SOL    HW238661   6.560   3.861   1.717 -0.6747  0.0615  1.4280
11272SOL     OW38662   2.775   4.761   1.085  0.1897  0.5227 -0.3306
11272SOL    HW138663   2.834   4.714   1.144  0.0693 -0.0830 -0.6844
11272SOL    HW238664   2.756   4.843   1.131 -0.1274 -0.0592  0.6120
11273SOL     OW38665   0.494   2.721   7.157 -0.1415 -0.0711 -0.8247
11273SOL    HW138666   0.475   2.791   7.094 -0.1689  0.1320 -0.5952
11273SOL    HW238667   0.530   2.650   7.104 -1.4644 -0.4433 -1.2745
11274SOL     OW38668   4.820   4.785   6.864 -0.3350  0.5425 -0.2553
11274SOL    HW138669   4.801   4.878   6.852 -0.4444  0.6177  0.4573
11274SOL    HW238670   4.734   4.744   6.878 -0.3197  0.2784 -0.8979
11275SOL     OW38671   2.658   8.872   2.502 -0.3257 -0.5149 -0.3463
11275SOL    HW138672   2.569   8.871   2.467 -0.7118 -1.4296  0.6211
11275SOL    HW238673   2.703   8.939   2.451 -2.2158  1.7496  0.7832
11276SOL     OW38674   6.724   6.422   4.315 -0.5723  0.1373  0.8473
11276SOL    HW138675   6.725   6.356   4.384 -0.8301 -0.0440  0.6751
11276SOL    HW238676   6.746   6.504   4.360 -0.4932 -0.0228  1.0998
11277SOL     OW38677   1.613   4.922   7.183 -0.2924  0.1607  0.2390
11277SOL    HW138678   1.612   4.883   7.271  1.4845 -0.3742  0.0627
11277SOL    HW238679   1.680   4.873   7.136 -0.3667  1.2383 -1.0488
11278SOL     OW38680   2.798   8.063   9.174 -0.3052 -0.0560 -0.6606
11278SOL    HW138681   2.839   8.129   9.118  0.3353 -0.4277 -0.6447
11278SOL    HW238682   2.706   8.088   9.178  0.1233  1.5227  0.2925
11279SOL     OW38683   8.037   8.483   3.054 -0.3618  0.5732 -0.8776
11279SOL    HW138684   8.101   8.555   3.056 -1.1615  1.3411 -1.5538
11279SOL    HW238685   7.962   8.520   3.006 -0.3106 -1.1155 -2.3585
11280SOL     OW38686   1.722   5.011   8.094 -0.4698 -0.2856  0.0589
11280SOL    HW138687   1.667   5.003   8.016 -1.3358  0.3611  0.5916
11280SOL    HW238688   1.797   5.063   8.064 -2.1031  2.3421  0.2623
11281SOL     OW38689   3.347   5.759   3.059  0.0825 -0.3600  0.2484
11281SOL    HW138690   3.435   5.722   3.059 -0.0812 -1.1707 -3.4400
11281SOL    HW238691   3.361   5.853   3.070  1.3479 -0.5338  0.3377
11282SOL     OW38692   1.944   1.258   9.012 -0.4188  0.1225 -0.0564
11282SOL    HW138693   2.010   1.195   8.983  1.1356  0.8381  1.7391
11282SOL    HW238694   1.928   1.234   9.104 -1.4113  1.0316  0.0235
11283SOL     OW38695   7.225   2.644   8.233 -0.3141  0.2976  0.6764
11283SOL    HW138696   7.142   2.607   8.263 -0.1507 -0.3124  0.3977
11283SOL    HW238697   7.200   2.717   8.177 -0.6427  0.6621  1.2824
11284SOL     OW38698   4.755   0.864   7.248  0.0558 -0.5300  0.1456
11284SOL    HW138699   4.807   0.898   7.175 -1.9076  0.5744 -0.8225
11284SOL    HW238700   4.776   0.922   7.321  0.3299 -0.2224 -0.1716
11285SOL     OW38701   1.170   0.134   9.252  0.5851  0.0113  0.0581
11285SOL    HW138702   1.145   0.220   9.218 -0.1969  0.1329  0.9350
11285SOL    HW238703   1.151   0.073   9.180 -1.2879  0.2360  0.3218
11286SOL     OW38704   1.969   5.866   1.067  0.1565 -0.0459  0.4241
11286SOL    HW138705   1.896   5.883   1.126 -0.2856 -0.6963  0.0810
11286SOL    HW238706   1.928   5.851   0.982  0.4317 -2.8213  0.6731
11287SOL     OW38707   2.933   7.527   1.709 -0.2259  0.0483  0.2456
11287SOL    HW138708   3.011   7.485   1.673 -0.8652 -1.0424  0.0909
11287SOL    HW238709   2.859   7.483   1.666 -0.9384  0.9271  0.5267
11288SOL     OW38710   6.024   8.074   3.154 -0.0285  0.1617  0.0619
11288SOL    HW138711   6.087   8.061   3.083  0.0887 -1.3210  0.4007
11288SOL    HW238712   5.994   8.165   3.144  0.5107  0.1950 -1.4382
11289SOL     OW38713   2.969   8.234   0.822  0.3286 -0.3525  0.2536
11289SOL    HW138714   3.057   8.270   0.817  0.5210 -0.5637  1.6855
11289SOL    HW238715   2.981   8.139   0.819  0.0207 -0.3675 -1.0098
11290SOL     OW38716   0.755   4.010   3.924 -0.0959  0.2841  0.2775
11290SOL    HW138717   0.685   4.013   3.859  0.6351  2.1901 -0.5072
11290SOL    HW238718   0.770   3.916   3.939 -1.3845 -0.1822 -1.0736
11291SOL     OW38719   7.863   1.645   9.186 -0.3166 -0.0837  0.4415
11291SOL    HW138720   7.951   1.614   9.206 -0.3669 -0.5720 -0.0818
11291SOL    HW238721   7.874   1.739   9.171 -0.3799  0.4933  3.4007
11292SOL     OW38722   2.301   8.077   1.116  0.1288 -0.1645  0.2868
11292SOL    HW138723   2.209   8.101   1.129 -0.1040 -1.0454  0.3579
11292SOL    HW238724   2.349   8.132   1.178 -0.1789  1.4032 -0.8140
11293SOL     OW38725   4.439   4.409   5.783 -0.0441  0.1211  0.0838
11293SOL    HW138726   4.369   4.472   5.802 -0.0302  0.1892 -0.0926
11293SOL    HW238727   4.520   4.455   5.804  0.0337  0.5510 -1.0862
11294SOL     OW38728   2.380   7.501   4.951 -0.0647 -0.0034 -0.1665
11294SOL    HW138729   2.380   7.412   4.917  1.9953 -0.5783  1.1260
11294SOL    HW238730   2.449   7.546   4.902  0.8280  0.0309  1.0699
11295SOL     OW38731   4.730   1.241   0.694  0.6283  0.3220 -0.0297
11295SOL    HW138732   4.671   1.171   0.724 -1.6666  0.9953 -2.5478
11295SOL    HW238733   4.736   1.301   0.769  0.2572 -1.0882  1.1787
11296SOL     OW38734   4.368   3.030   8.211  0.2617  0.2209  0.5511
11296SOL    HW138735   4.408   2.980   8.282  0.6598  0.5221  0.5448
11296SOL    HW238736   4.297   2.975   8.179  0.7262 -0.3590  0.5031
11297SOL     OW38737   8.115   4.414   6.761  0.1247 -0.2590  0.0226
11297SOL    HW138738   8.195   4.465   6.750 -0.0822  0.1347  0.3161
11297SOL    HW238739   8.093   4.384   6.672  0.3148  0.0590 -0.1329
11298SOL     OW38740   1.710   0.483   1.075 -0.1046  0.5402 -0.3448
11298SOL    HW138741   1.796   0.484   1.116 -0.2737  0.8305  0.0150
11298SOL    HW238742   1.654   0.533   1.135 -0.8401 -0.7952  0.1287
11299SOL     OW38743   2.267   1.996   7.991 -0.4710  0.0959  0.9316
11299SOL    HW138744   2.277   2.015   8.084  0.8318 -2.4913  1.4101
11299SOL    HW238745   2.224   1.911   7.988 -0.1973 -0.0155 -0.8319
11300SOL     OW38746   9.436   2.056   0.445  0.1363 -0.3983 -0.0666
11300SOL    HW138747   9.486   2.137   0.440  0.8838 -0.7720  0.9384
11300SOL    HW238748   9.408   2.040   0.355  0.0511  0.9167 -0.3019
11301SOL     OW38749   9.360   0.557   0.243  0.0822 -0.0952 -0.5060
11301SOL    HW138750   9.433   0.511   0.284 -1.1987 -0.4968  1.4814
11301SOL    HW238751   9.373   0.544   0.149  2.7288  0.1707 -0.2447
11302SOL     OW38752   8.481   1.262   4.170  0.7056  0.1231 -0.5179
11302SOL    HW138753   8.490   1.274   4.265 -0.7116 -0.4266 -0.2781
11302SOL    HW238754   8.479   1.166   4.159 -1.2861  0.1453 -0.8133
11303SOL     OW38755   9.720   7.051   8.982  0.1623  0.4170  0.3430
11303SOL    HW138756   9.713   6.957   8.967 -0.5062  0.4353  0.5368
11303SOL    HW238757   9.761   7.058   9.068  0.6126  0.3078  0.1415
11304SOL     OW38758   4.244   6.784   8.171 -0.0251  0.1753  0.3388
11304SOL    HW138759   4.292   6.845   8.116  0.9138  0.6914  1.6755
11304SOL    HW238760   4.291   6.701   8.162 -0.4624  0.0002 -0.3849
11305SOL     OW38761   1.688   3.124   1.309 -0.3293 -0.0308  0.3019
11305SOL    HW138762   1.764   3.118   1.251  1.0583 -1.3811  2.1247
11305SOL    HW238763   1.630   3.053   1.279  0.2672 -0.5691  0.3964
11306SOL     OW38764   5.357   4.928   1.450 -0.1277 -0.2490  0.4008
11306SOL    HW138765   5.418   4.932   1.523  0.0943  0.7749  0.1747
11306SOL    HW238766   5.273   4.905   1.490 -0.4302  2.0952  1.2850
11307SOL     OW38767   9.127   7.977   2.325  0.5898  0.0014  0.2114
11307SOL    HW138768   9.149   7.898   2.274 -0.3339 -0.2250  0.1509
11307SOL    HW238769   9.127   8.047   2.260 -1.0924 -0.3690 -0.2338
11308SOL     OW38770   3.758   4.614   1.517 -0.0937  0.8078 -0.0960
11308SOL    HW138771   3.831   4.675   1.526  0.2249  0.3887  0.2262
11308SOL    HW238772   3.761   4.586   1.426  1.1888 -0.4728  0.3031
11309SOL     OW38773   6.959   0.208   2.585  0.3497 -0.4881 -0.6648
11309SOL    HW138774   6.888   0.265   2.615 -1.0319 -3.0245  1.3728
11309SOL    HW238775   7.039   0.250   2.618 -0.7581 -0.5160  2.4484
11310SOL     OW38776   3.980   9.125   7.130 -0.1793  0.0146  0.1101
11310SOL    HW138777   4.010   9.040   7.163 -1.7284  0.6253  3.4493
11310SOL    HW238778   3.890   9.109   7.101 -0.0605  0.3043 -0.4462
11311SOL     OW38779   4.261   3.446   7.029 -0.0651  0.3123  0.3134
11311SOL    HW138780   4.314   3.370   7.049  0.7989  0.7419 -0.2742
11311SOL    HW238781   4.187   3.412   6.978  1.8720  0.1618 -2.6447
11312SOL     OW38782   0.765   7.826   5.244 -0.2253 -0.1857 -0.4302
11312SOL    HW138783   0.740   7.908   5.286 -1.0469 -0.5037 -0.2658
11312SOL    HW238784   0.702   7.816   5.173 -2.1814 -2.1674  1.4212
11313SOL     OW38785   7.279   4.467   0.475  0.2847  0.1263  0.0878
11313SOL    HW138786   7.342   4.425   0.416  0.8958  2.4305 -1.0437
11313SOL    HW238787   7.332   4.503   0.545 -0.0163  0.3701  0.1924
11314SOL     OW38788   1.675   8.779   5.600  0.0233  0.2390  1.0055
11314SOL    HW138789   1.718   8.863   5.585  0.7833 -0.0711  1.3918
11314SOL    HW238790   1.746   8.719   5.621 -0.3901 -0.7617 -0.3171
11315SOL     OW38791   7.194   0.738   5.897  1.0685  0.3247 -0.6515
11315SOL    HW138792   7.272   0.746   5.842  1.9038  1.1941  0.5800
11315SOL    HW238793   7.127   0.790   5.853  1.3534  0.0254 -1.4447
11316SOL     OW38794   6.208   5.716   3.212 -0.6182 -0.1081  0.3433
11316SOL    HW138795   6.113   5.726   3.210 -0.6775 -0.6452  0.1095
11316SOL    HW238796   6.231   5.694   3.121 -0.2941 -0.1702  0.4392
11317SOL     OW38797   2.099   5.173   9.647 -0.2076 -0.6534 -0.3442
11317SOL    HW138798   2.090   5.198   9.555 -1.2366  0.9054  0.1483
11317SOL    HW238799   2.098   5.077   9.646 -0.6002 -0.6579 -1.9175
11318SOL     OW38800   0.710   5.963   5.757 -0.5510 -0.2394 -0.2655
11318SOL    HW138801   0.632   6.002   5.719  0.2030 -0.5752 -2.2541
11318SOL    HW238802   0.709   5.872   5.728  0.6054 -0.2306 -0.3939
11319SOL     OW38803   4.009   4.205   6.210  0.1738 -0.3071 -0.3978
11319SOL    HW138804   3.969   4.138   6.266 -0.8801  0.0047 -0.7490
11319SOL    HW238805   4.096   4.170   6.189  0.8986 -0.1350  1.9728
11320SOL     OW38806   1.379   8.470   4.208 -0.7058 -0.0893 -0.2216
11320SOL    HW138807   1.435   8.529   4.258 -1.0397  0.2503 -0.2410
11320SOL    HW238808   1.295   8.471   4.255 -1.0998  0.4183 -0.9080
11321SOL     OW38809   5.158   1.841   3.368  0.3161  0.0345  0.3996
11321SOL    HW138810   5.232   1.867   3.314 -0.4607  1.0732 -0.2090
11321SOL    HW238811   5.081   1.869   3.318 -0.5425 -1.8888  0.5461
11322SOL     OW38812   9.315   8.086   1.817  0.6757 -0.3808  0.0751
11322SOL    HW138813   9.300   8.167   1.767 -1.2176  0.9681  2.5839
11322SOL    HW238814   9.405   8.094   1.848  1.3714 -0.5214 -1.7681
11323SOL     OW38815   3.705   3.529   2.393 -0.2017  0.1486  0.0366
11323SOL    HW138816   3.738   3.603   2.444  1.3789 -0.3454 -0.2014
11323SOL    HW238817   3.669   3.469   2.459  0.5502  0.1498  0.4619
11324SOL     OW38818   2.774   5.569   7.990  0.3925 -0.2616 -0.3311
11324SOL    HW138819   2.779   5.509   8.064 -0.1274  0.8218  0.6096
11324SOL    HW238820   2.722   5.522   7.925  0.9445 -1.2688 -0.0643
11325SOL     OW38821   5.225   8.200   8.226  0.1488  0.4061 -0.5661
11325SOL    HW138822   5.241   8.293   8.240  0.8043  0.5832 -2.3139
11325SOL    HW238823   5.258   8.158   8.305  0.9777  1.5501 -0.2768
11326SOL     OW38824   6.749   0.465   7.223 -0.2056 -0.6241  0.1326
11326SOL    HW138825   6.661   0.500   7.218 -0.0539  0.0132  1.4249
11326SOL    HW238826   6.749   0.411   7.302  0.2891 -1.4370 -0.4094
11327SOL     OW38827   2.002   2.431   0.867 -0.1322 -0.3100  0.4895
11327SOL    HW138828   2.061   2.476   0.928  0.0707  1.1563 -0.7225
11327SOL    HW238829   1.914   2.450   0.901 -0.0376  0.8312  0.1395
11328SOL     OW38830   9.240   7.613   1.043  0.0352 -0.1159  0.0820
11328SOL    HW138831   9.263   7.602   0.951 -0.8969 -0.3104 -0.1341
11328SOL    HW238832   9.193   7.697   1.047 -0.9486 -0.6623  0.1782
11329SOL     OW38833   6.946   1.341   1.615 -0.1675  0.3487  0.1908
11329SOL    HW138834   6.929   1.262   1.667  0.6294  0.8609  1.2843
11329SOL    HW238835   6.998   1.397   1.673 -0.3617  1.5074 -0.7091
11330SOL     OW38836   0.833   5.194   0.992  0.0374 -0.4448  0.4922
11330SOL    HW138837   0.911   5.250   0.984 -1.0717  1.1300  0.1940
11330SOL    HW238838   0.810   5.200   1.085 -0.2312 -0.1885  0.4103
11331SOL     OW38839   5.722   4.475   8.492 -0.3435  0.2061 -0.2093
11331SOL    HW138840   5.797   4.534   8.497  0.2201 -0.4717 -0.5478
11331SOL    HW238841   5.744   4.402   8.550  0.7208 -1.5791 -2.7009
11332SOL     OW38842   6.262   9.269   4.944  0.0873 -0.0249  0.4522
11332SOL    HW138843   6.301   9.203   4.887 -0.8208 -0.6090  0.4893
11332SOL    HW238844   6.324   9.342   4.943  0.7195 -0.5642 -0.2185
11333SOL     OW38845   5.105   2.635   3.170  0.1982  0.6581 -0.3533
11333SOL    HW138846   5.042   2.651   3.240 -0.2955  1.1685 -0.8977
11333SOL    HW238847   5.147   2.720   3.157  0.7452  0.4079 -0.2438
11334SOL     OW38848   6.957   1.815   7.126  0.3814 -0.5585  0.0698
11334SOL    HW138849   6.898   1.803   7.051 -1.9042  0.5524  1.5625
11334SOL    HW238850   6.969   1.910   7.132  0.8247 -0.6530  0.8909
11335SOL     OW38851   7.014   4.928   9.048 -0.5040  0.0464  0.1952
11335SOL    HW138852   6.964   4.949   9.127 -0.2955  0.1943  0.2882
11335SOL    HW238853   7.066   5.006   9.031 -0.4043 -0.0580  0.0209
11336SOL     OW38854   1.831   2.113   5.839  0.5820  0.0355  0.9805
11336SOL    HW138855   1.835   2.208   5.843  0.2017  0.1073 -0.0018
11336SOL    HW238856   1.779   2.088   5.916 -3.4683  0.9879 -1.1702
11337SOL     OW38857   0.986   0.470   1.796  0.2745  0.0474 -0.1694
11337SOL    HW138858   0.965   0.501   1.884 -0.4174  0.3544 -0.4354
11337SOL    HW238859   1.081   0.478   1.790  0.3317  0.0033  0.5540
11338SOL     OW38860   2.957   3.924   0.046 -0.1112  0.2244 -0.5002
11338SOL    HW138861   2.893   3.904   0.115 -0.3017  0.0191 -0.7358
11338SOL    HW238862   2.938   3.860  -0.023  1.1961 -0.6932 -0.0410
11339SOL     OW38863   3.456   8.443   2.310  0.1093 -0.0810 -0.1326
11339SOL    HW138864   3.443   8.491   2.392 -0.4501  0.3321 -0.4569
11339SOL    HW238865   3.521   8.376   2.332 -2.9814 -2.7114  1.7230
11340SOL     OW38866   8.859   3.690   7.798  0.2464  0.0220 -0.5970
11340SOL    HW138867   8.881   3.693   7.891 -1.1543  0.9846 -0.2698
11340SOL    HW238868   8.782   3.632   7.794 -0.1547  0.5830 -1.0460
11341SOL     OW38869   3.738   6.540   8.467  0.1731  0.1787 -0.3009
11341SOL    HW138870   3.731   6.633   8.490 -1.5643 -0.0920  0.3685
11341SOL    HW238871   3.759   6.496   8.549  0.5964 -0.0724 -0.5405
11342SOL     OW38872   5.932   6.889   7.092 -0.0611 -1.2915  0.5865
11342SOL    HW138873   5.964   6.839   7.168  3.1165  0.3853  0.5139
11342SOL    HW238874   5.989   6.862   7.020 -0.1741  0.2909 -0.1386
11343SOL     OW38875   0.789   8.243   2.554 -0.4439 -0.4411 -0.0956
11343SOL    HW138876   0.884   8.252   2.548 -0.4960 -0.5504 -1.5029
11343SOL    HW238877   0.761   8.225   2.464 -1.7299 -1.0827  0.4020
11344SOL     OW38878   2.319   9.449   2.990 -0.2173 -0.0077 -0.7498
11344SOL    HW138879   2.410   9.476   3.001 -0.3173 -0.3080  1.1955
11344SOL    HW238880   2.269   9.515   3.039 -1.0734  0.1901 -1.8529
11345SOL     OW38881   0.953   8.802   1.173  0.0534  0.0621  0.5320
11345SOL    HW138882   1.032   8.748   1.163 -1.8573 -2.8777 -0.1311
11345SOL    HW238883   0.979   8.872   1.232  3.4571 -0.0562 -0.6105
11346SOL     OW38884   4.517   8.530   2.119 -0.1210 -0.5402  0.0688
11346SOL    HW138885   4.529   8.559   2.029 -0.7559  0.9182  0.4219
11346SOL    HW238886   4.533   8.609   2.172 -0.0576 -1.2961  1.2161
11347SOL     OW38887   7.347   7.053   1.064 -0.2439 -0.4449  0.0057
11347SOL    HW138888   7.405   6.985   1.098  0.0372 -0.2743 -0.1287
11347SOL    HW238889   7.261   7.011   1.058 -0.0948 -0.7539  0.0309
11348SOL     OW38890   3.341   7.199   2.092  0.1751 -0.9670  0.2535
11348SOL    HW138891   3.261   7.210   2.143  0.0146  0.3740 -0.2539
11348SOL    HW238892   3.320   7.128   2.031 -0.7747 -0.3661 -0.1404
11349SOL     OW38893   6.698   7.650   9.305 -0.0441 -0.2727 -0.9301
11349SOL    HW138894   6.772   7.590   9.312  1.6226  1.8795  1.9777
11349SOL    HW238895   6.623   7.601   9.339  1.3515 -0.6847  1.7743
11350SOL     OW38896   4.959   2.413   1.641 -1.0712  0.5270  0.0163
11350SOL    HW138897   5.006   2.495   1.628 -1.0708  0.6040  0.4959
11350SOL    HW238898   4.987   2.382   1.727  0.4584 -1.0014 -0.9690
11351SOL     OW38899   7.677   7.863   8.545 -0.2680 -0.3382 -0.1845
11351SOL    HW138900   7.623   7.934   8.512 -0.8269 -0.2873  0.8050
11351SOL    HW238901   7.725   7.901   8.618 -1.7058 -1.3084  1.3584
11352SOL     OW38902   5.314   0.781   9.597  0.0791 -0.3919  0.3186
11352SOL    HW138903   5.356   0.785   9.683 -2.0281  2.7145  1.3608
11352SOL    HW238904   5.371   0.832   9.539 -0.7131  1.4413  1.0667
11353SOL     OW38905   4.399   0.223   0.821 -0.6417  0.1056 -0.1144
11353SOL    HW138906   4.348   0.267   0.888 -1.2678  0.4397 -0.8057
11353SOL    HW238907   4.456   0.291   0.785  0.9752 -0.4497  1.2625
11354SOL     OW38908   2.226   2.982   7.518 -0.4448 -0.4989 -0.1633
11354SOL    HW138909   2.210   2.953   7.608 -2.9161 -2.7128 -1.1694
11354SOL    HW238910   2.139   2.997   7.482  0.4355 -0.3434 -2.3705
11355SOL     OW38911   4.609   9.098   5.024  0.0249 -0.3037  0.2251
11355SOL    HW138912   4.577   9.010   5.008 -1.4969  0.4654 -1.2278
11355SOL    HW238913   4.545   9.156   4.981  1.6214  1.4594  0.0725
11356SOL     OW38914   8.756   9.633   4.531  0.3889 -0.5422  0.5221
11356SOL    HW138915   8.814   9.639   4.607  1.3108  1.1645 -0.2520
11356SOL    HW238916   8.736   9.725   4.510  1.5418 -0.8576 -2.3258
11357SOL     OW38917   8.351   2.676   4.787  0.0095 -0.1715  0.3605
11357SOL    HW138918   8.297   2.602   4.760 -0.5212 -0.3574  1.8419
11357SOL    HW238919   8.291   2.751   4.791  0.7086  0.6129 -2.0041
11358SOL     OW38920   9.311   5.110   5.419 -0.1694 -0.1520  0.1976
11358SOL    HW138921   9.216   5.107   5.420 -0.3116  1.5332 -1.6731
11358SOL    HW238922   9.338   5.021   5.397 -1.3593 -0.4513 -0.1229
11359SOL     OW38923   2.854   8.217   5.940 -0.2978  0.5347 -0.2353
11359SOL    HW138924   2.929   8.274   5.957  0.5778 -0.2214 -1.3889
11359SOL    HW238925   2.794   8.270   5.887 -0.7717  1.2620  0.9974
11360SOL     OW38926   1.932   5.849   4.762 -0.0387  0.1025 -0.1109
11360SOL    HW138927   1.877   5.874   4.836 -0.7730  0.7105 -0.8357
11360SOL    HW238928   2.018   5.888   4.782 -0.1820  0.1221  0.4926
11361SOL     OW38929   4.423   9.505   5.583 -0.3084 -0.1428  0.3780
11361SOL    HW138930   4.347   9.456   5.553 -0.9003  0.7273  0.4274
11361SOL    HW238931   4.406   9.595   5.556 -0.0022  0.3347  1.6767
11362SOL     OW38932   9.415   0.958   8.511 -0.6322  0.0816  0.3196
11362SOL    HW138933   9.385   0.872   8.482  2.6388 -1.1784  0.2004
11362SOL    HW238934   9.408   1.014   8.434 -0.8009 -0.6591 -0.2146
11363SOL     OW38935   0.721   0.551   8.014  0.0576 -0.1687  0.5401
11363SOL    HW138936   0.678   0.600   7.944 -0.0569 -0.8574  0.1161
11363SOL    HW238937   0.808   0.590   8.021  0.1317 -0.2094 -0.1100
11364SOL     OW38938   9.036   8.209   0.636 -0.4353 -0.3389  0.1357
11364SOL    HW138939   8.959   8.171   0.592 -1.3855  1.5628  0.0504
11364SOL    HW238940   9.061   8.144   0.701 -1.1836 -1.6649 -0.8605
11365SOL     OW38941   5.127   5.838   8.310  0.0823 -0.2629 -0.1545
11365SOL    HW138942   5.210   5.886   8.315 -0.6897  1.0192  1.1608
11365SOL    HW238943   5.092   5.841   8.399 -1.6994 -0.1938 -0.8174
11366SOL     OW38944   4.721   0.728   3.470  0.0205  0.4810  0.7443
11366SOL    HW138945   4.643   0.728   3.414 -1.3873  0.0572  2.6214
11366SOL    HW238946   4.752   0.818   3.468  0.0719  0.4542 -0.7748
11367SOL     OW38947   0.835   3.792   5.422  1.0362  0.0621 -0.1487
11367SOL    HW138948   0.860   3.882   5.443  3.0896 -0.4773 -0.0997
11367SOL    HW238949   0.807   3.795   5.331  2.3983  0.5377 -0.5724
11368SOL     OW38950   6.124   8.364   2.873 -0.7637 -0.8594 -0.2875
11368SOL    HW138951   6.155   8.372   2.783  1.6071 -1.7416  0.3855
11368SOL    HW238952   6.107   8.454   2.900  0.1778 -0.4291 -1.0674
11369SOL     OW38953   1.737   3.760   8.710  0.1303  0.0343  0.2810
11369SOL    HW138954   1.801   3.726   8.648 -0.1240  0.6886 -0.3749
11369SOL    HW238955   1.707   3.842   8.669 -2.2085 -0.9808 -0.1929
11370SOL     OW38956   7.466   5.569   6.627 -0.6494 -0.0656  0.0424
11370SOL    HW138957   7.446   5.625   6.702 -0.3566  0.0596  0.0287
11370SOL    HW238958   7.382   5.533   6.600 -0.6773 -0.5782  0.8024
11371SOL     OW38959   7.855   2.507   1.493  0.5715  0.0439 -0.2666
11371SOL    HW138960   7.800   2.440   1.452 -2.2003  1.8308  0.2760
11371SOL    HW238961   7.933   2.459   1.522 -1.8161 -3.2798  1.3428
11372SOL     OW38962   4.043   0.851   5.765 -0.3602  0.1959 -0.0076
11372SOL    HW138963   4.089   0.875   5.845 -0.7888  0.9638  0.0111
11372SOL    HW238964   4.052   0.927   5.708 -2.4015  0.7675  0.3567
11373SOL     OW38965   1.232   3.177   5.870 -0.4745 -0.4634 -0.1390
11373SOL    HW138966   1.222   3.129   5.788 -0.1408  1.1839 -1.1902
11373SOL    HW238967   1.142   3.190   5.901 -0.7344  0.5630 -1.2701
11374SOL     OW38968   0.866   3.350   0.352  0.7372 -0.3317  0.5791
11374SOL    HW138969   0.867   3.315   0.441  0.1823  0.0954  0.7583
11374SOL    HW238970   0.805   3.424   0.356  1.5838  0.4055  0.1115
11375SOL     OW38971   1.765   1.118   7.668 -0.6456  0.1591  0.6008
11375SOL    HW138972   1.685   1.142   7.715 -1.9042  0.4330 -1.5482
11375SOL    HW238973   1.736   1.059   7.598  1.1327 -0.2999  0.1898
11376SOL     OW38974   9.317   6.416   7.225  0.0915 -0.1142  0.0607
11376SOL    HW138975   9.350   6.497   7.188 -1.1243 -0.1992 -1.3364
11376SOL    HW238976   9.384   6.387   7.286  0.5809  1.8881  0.5255
11377SOL     OW38977   8.658   6.107   5.460 -0.1948 -0.2876 -0.3029
11377SOL    HW138978   8.681   6.194   5.428  1.1736 -1.0629 -1.5659
11377SOL    HW238979   8.673   6.049   5.385 -0.3203 -1.7157  0.7280
11378SOL     OW38980   1.364   5.072   5.003  0.0109 -0.4305 -0.2154
11378SOL    HW138981   1.353   5.091   4.910 -0.9017 -0.2204 -0.0751
11378SOL    HW238982   1.384   4.978   5.006  1.5051 -0.1541 -0.7063
11379SOL     OW38983   6.638   6.818   8.073 -0.3230 -0.4391 -0.1942
11379SOL    HW138984   6.682   6.769   8.143 -1.4475 -0.3622  0.5967
11379SOL    HW238985   6.614   6.752   8.008  1.5805 -0.3877 -1.0116
11380SOL     OW38986   1.430   3.779   4.483  0.1147 -0.1681 -0.0780
11380SOL    HW138987   1.493   3.841   4.446  0.6087 -0.0695  0.9013
11380SOL    HW238988   1.355   3.834   4.507  0.0313 -0.1451 -0.3857
11381SOL     OW38989   7.595   6.762   4.975  0.3065  0.1849  0.5258
11381SOL    HW138990   7.653   6.836   4.989 -1.2257  1.3248  1.1844
11381SOL    HW238991   7.507   6.797   4.988 -0.5725 -1.4099 -0.6576
11382SOL     OW38992   6.378   8.452   8.574  0.2861  0.6517  0.2508
11382SOL    HW138993   6.368   8.540   8.609 -1.9718  0.7319 -0.4522
11382SOL    HW238994   6.363   8.394   8.649  1.1473  0.8307  0.5764
11383SOL     OW38995   8.222   6.413   2.040 -0.1632 -0.0994  0.3442
11383SOL    HW138996   8.263   6.447   1.960 -1.7711  2.3728  0.4487
11383SOL    HW238997   8.139   6.376   2.011 -0.7929  0.8819  0.8169
11384SOL     OW38998   3.924   5.163   7.313  0.0626 -0.4485  0.4036
11384SOL    HW138999   3.872   5.232   7.272  1.9683  1.6762  1.3392
11384SOL    HW239000   3.859   5.106   7.354 -1.5952  1.2247  0.2712
11385SOL     OW39001   1.653   3.789   2.733 -0.8330 -0.1159 -0.3009
11385SOL    HW139002   1.618   3.875   2.713 -2.1245 -0.7985 -1.1213
11385SOL    HW239003   1.723   3.776   2.670  0.3382  0.8721  0.7341
11386SOL     OW39004   5.418   6.410   7.534  0.4624 -0.1627  0.3607
11386SOL    HW139005   5.493   6.446   7.581 -0.5091 -0.7580  2.4880
11386SOL    HW239006   5.426   6.445   7.445  3.5489 -0.6561  0.3261
11387SOL     OW39007   8.979   1.061   1.224  0.1630 -0.8860  0.2631
11387SOL    HW139008   8.974   1.008   1.304  1.4441 -1.7109 -0.1607
11387SOL    HW239009   8.969   0.997   1.153 -0.6274 -0.2116 -0.2401
11388SOL     OW39010   8.293   6.217   8.382  0.1638  0.4224  0.8046
11388SOL    HW139011   8.203   6.199   8.354  0.6386 -0.4874 -0.2401
11388SOL    HW239012   8.298   6.312   8.385 -0.7637  0.4927  0.6422
11389SOL     OW39013   8.103   5.850   6.816  0.1729 -0.5890  0.5192
11389SOL    HW139014   8.187   5.882   6.785 -0.8372  0.6447 -1.0919
11389SOL    HW239015   8.039   5.890   6.757 -1.5248 -1.6990  1.5374
11390SOL     OW39016   5.744   7.705   2.507 -0.3754 -0.0917  0.3463
11390SOL    HW139017   5.838   7.723   2.501 -0.7288  1.6983 -0.4785
11390SOL    HW239018   5.731   7.679   2.598  0.8790 -0.1202  0.5369
11391SOL     OW39019   8.991   0.380   4.602  0.0223  0.7806  0.8492
11391SOL    HW139020   8.974   0.382   4.508 -1.9023  1.7964  1.1703
11391SOL    HW239021   9.046   0.303   4.615 -0.4688  0.0790 -0.9830
11392SOL     OW39022   8.360   8.290   1.320  0.0814  0.5034  0.4012
11392SOL    HW139023   8.454   8.272   1.308 -0.0579  0.7177 -1.3024
11392SOL    HW239024   8.338   8.348   1.247 -0.9464  2.1585  1.9652
11393SOL     OW39025   0.490   1.584   8.320  0.5086 -0.2587 -0.0168
11393SOL    HW139026   0.584   1.587   8.341  0.0920  0.3967  1.9126
11393SOL    HW239027   0.446   1.593   8.404 -1.3222  1.5400 -1.0722
11394SOL     OW39028   6.282   4.037   1.107  0.0660  0.0198 -0.2153
11394SOL    HW139029   6.226   3.973   1.063 -0.0630  1.5037 -2.4195
11394SOL    HW239030   6.235   4.060   1.187 -0.3697 -1.8135  0.0960
11395SOL     OW39031   5.862   8.559   1.659  0.2906 -0.0517  0.0539
11395SOL    HW139032   5.792   8.610   1.618  0.4993 -1.7114 -2.6527
11395SOL    HW239033   5.885   8.607   1.738 -1.6102  2.3161 -0.7395
11396SOL     OW39034   7.041   5.815   7.149  0.0960 -0.5167  0.0433
11396SOL    HW139035   6.979   5.744   7.136 -0.3716 -0.3446  1.2367
11396SOL    HW239036   7.013   5.883   7.087 -2.8663  0.8030  2.5562
11397SOL     OW39037   6.438   5.206   8.845  0.3019  0.6984 -0.7127
11397SOL    HW139038   6.427   5.155   8.765 -0.4935  0.4747 -0.4694
11397SOL    HW239039   6.474   5.290   8.815  2.4181 -0.2621 -1.0367
11398SOL     OW39040   2.901   0.614   3.368  0.1520  0.0251  0.4558
11398SOL    HW139041   2.992   0.614   3.398  0.4897  0.4926 -0.5509
11398SOL    HW239042   2.897   0.683   3.302 -0.9690  0.1015  0.5857
11399SOL     OW39043   0.809   4.247   6.922  0.1734 -0.7328 -0.2695
11399SOL    HW139044   0.880   4.186   6.900  2.6882  1.7507  0.4903
11399SOL    HW239045   0.770   4.269   6.837 -0.5094 -2.9086 -0.6085
11400SOL     OW39046   1.764   2.069   0.523  0.3785  0.3390 -0.8355
11400SOL    HW139047   1.797   2.152   0.558 -0.1103  0.3729 -0.4379
11400SOL    HW239048   1.842   2.013   0.516  1.1626  1.5754 -3.4024
11401SOL     OW39049   3.448   0.352   2.155 -0.2583 -0.0014 -0.0411
11401SOL    HW139050   3.529   0.376   2.200  1.6442 -1.5501 -2.4007
11401SOL    HW239051   3.427   0.265   2.190  0.6288 -0.7353 -1.2221
11402SOL     OW39052   7.435   6.740   2.284 -0.3984 -0.4600  0.4518
11402SOL    HW139053   7.360   6.749   2.225 -0.7273  0.3982  0.9688
11402SOL    HW239054   7.406   6.676   2.349 -0.1562 -1.1640 -0.1234
11403SOL     OW39055   4.232   5.984   8.676  0.0373  0.3669  0.3430
11403SOL    HW139056   4.243   6.054   8.611 -2.4529  1.7189  1.2378
11403SOL    HW239057   4.152   6.008   8.724  0.4037 -1.8827  2.2694
11404SOL     OW39058   1.432   4.135   5.211 -0.0137 -0.4184  0.1735
11404SOL    HW139059   1.390   4.064   5.259  2.8116 -1.7104  0.9647
11404SOL    HW239060   1.476   4.187   5.279  2.1564 -0.9451 -0.7500
11405SOL     OW39061   3.425   7.190   7.837 -0.0968 -0.0812  0.3786
11405SOL    HW139062   3.413   7.237   7.755 -0.9771 -0.0186  0.5299
11405SOL    HW239063   3.390   7.102   7.819 -1.0613  0.1775  0.9135
11406SOL     OW39064   5.090   6.013   0.502 -0.6319 -0.0663  0.6241
11406SOL    HW139065   5.022   6.051   0.448 -0.8324 -2.0143 -0.5859
11406SOL    HW239066   5.045   5.989   0.584 -1.5162 -1.5389 -0.2441
11407SOL     OW39067   7.262   0.287   0.863  0.0611  0.2733 -0.4237
11407SOL    HW139068   7.267   0.198   0.899 -0.7499  0.4163  0.0781
11407SOL    HW239069   7.209   0.278   0.785  0.1153  0.2912 -0.4627
11408SOL     OW39070   8.494   0.565   3.875 -0.5620  0.8816  0.0490
11408SOL    HW139071   8.419   0.576   3.817 -0.1907 -0.8925 -0.8364
11408SOL    HW239072   8.483   0.478   3.913  1.9624 -0.2612 -1.5566
11409SOL     OW39073   7.051   2.428   8.681  0.0997  0.4729 -0.1389
11409SOL    HW139074   7.033   2.334   8.689 -0.7413  0.7176  0.9949
11409SOL    HW239075   6.969   2.465   8.650  0.0759  0.9822  0.5181
11410SOL     OW39076   4.744   7.981   7.145 -0.4780  0.0100 -0.2773
11410SOL    HW139077   4.707   7.896   7.123  0.6943 -0.5720 -0.0815
11410SOL    HW239078   4.718   7.996   7.236 -1.5674  0.3694 -0.6253
11411SOL     OW39079   3.186   5.287   3.882  0.1069 -0.2034  0.0638
11411SOL    HW139080   3.160   5.360   3.827 -0.5485 -0.2545  0.3036
11411SOL    HW239081   3.262   5.320   3.931  0.5148 -0.0704 -0.6567
11412SOL     OW39082   6.926   3.328   0.576  0.0178  0.5434 -0.1279
11412SOL    HW139083   6.834   3.351   0.587 -0.3297  0.2277 -2.0409
11412SOL    HW239084   6.939   3.324   0.482  1.6820 -0.7302  0.1063
11413SOL     OW39085   7.723   6.883   2.862 -0.1172 -0.1608  0.3072
11413SOL    HW139086   7.693   6.930   2.784  0.7803 -0.5278 -0.2767
11413SOL    HW239087   7.758   6.951   2.919 -0.7004  0.0991  0.3620
11414SOL     OW39088   5.350   4.002   7.904 -0.1125  0.0633 -0.0100
11414SOL    HW139089   5.266   4.043   7.920  0.3383  1.3994 -0.9310
11414SOL    HW239090   5.353   3.929   7.966 -2.4622 -0.7991 -0.8168
11415SOL     OW39091   8.322   6.872   7.519  0.0575  0.4959  0.0632
11415SOL    HW139092   8.335   6.840   7.608 -2.0412 -0.0635  0.2199
11415SOL    HW239093   8.322   6.968   7.529  2.6665  0.5529  0.1621
11416SOL     OW39094   4.930   3.844   6.529  0.3558  0.4838  0.3107
11416SOL    HW139095   4.851   3.829   6.478 -0.5478 -0.0798  1.8004
11416SOL    HW239096   4.982   3.765   6.517 -0.2935 -0.0605  1.0096
11417SOL     OW39097   2.889   1.434   8.395  0.1593  0.4782  0.2538
11417SOL    HW139098   2.899   1.414   8.488 -0.8103  0.5416  0.3786
11417SOL    HW239099   2.921   1.524   8.386  0.3053  0.4528  0.5144
11418SOL     OW39100   4.494   6.056   4.347 -0.5350 -0.3645 -0.4455
11418SOL    HW139101   4.523   6.094   4.430 -0.6732 -3.3500  1.1146
11418SOL    HW239102   4.568   6.002   4.319 -0.6138  0.3537 -2.1785
11419SOL     OW39103   5.627   1.126   4.491  0.0730  0.2994 -1.0046
11419SOL    HW139104   5.685   1.133   4.567 -0.8349 -0.7199 -0.1909
11419SOL    HW239105   5.586   1.040   4.499 -0.7805  0.5723 -2.1217
11420SOL     OW39106   1.727   2.879   1.813 -0.3294  0.2189 -0.3109
11420SOL    HW139107   1.757   2.878   1.904 -2.4547  2.0442  0.4992
11420SOL    HW239108   1.631   2.875   1.819 -0.4875 -2.6863 -2.6301
11421SOL     OW39109   8.193   0.691   8.262  0.1147 -0.1747  0.4483
11421SOL    HW139110   8.247   0.770   8.263  2.4891 -1.6909 -0.1306
11421SOL    HW239111   8.165   0.682   8.171 -0.4889  0.2011  0.5942
11422SOL     OW39112   2.067   0.966   8.906 -0.6049 -0.2048 -0.3015
11422SOL    HW139113   2.083   1.013   8.824 -0.9869 -0.1052 -0.3197
11422SOL    HW239114   1.984   0.920   8.892 -1.9184  1.6791  0.8435
11423SOL     OW39115   5.408   6.899   1.694 -0.5942 -0.1686 -0.3643
11423SOL    HW139116   5.394   6.986   1.731  2.9163  0.3694  0.0475
11423SOL    HW239117   5.407   6.914   1.599 -0.3791  0.2872 -0.3014
11424SOL     OW39118   2.504   7.534   2.891 -0.4770 -0.4865 -0.5492
11424SOL    HW139119   2.536   7.454   2.934  3.2937  1.2864  0.4592
11424SOL    HW239120   2.455   7.579   2.960 -1.7969 -1.4529 -0.8287
11425SOL     OW39121   0.337   2.723   4.568  0.0157 -0.8321 -0.0743
11425SOL    HW139122   0.294   2.798   4.607 -0.8842 -0.5093 -1.6079
11425SOL    HW239123   0.392   2.760   4.499 -0.0835 -1.5340 -0.5451
11426SOL     OW39124   9.265   4.800   3.005 -0.2782  0.3186 -0.7792
11426SOL    HW139125   9.203   4.837   3.068  0.7366  1.8735 -0.6324
11426SOL    HW239126   9.211   4.772   2.931 -1.3504 -0.2722  0.1991
11427SOL     OW39127   0.871   2.134   1.554 -0.0866 -0.0194 -0.6246
11427SOL    HW139128   0.944   2.095   1.602  0.8183  0.3758 -1.6313
11427SOL    HW239129   0.835   2.199   1.614 -0.7718 -1.4371  0.5661
11428SOL     OW39130   8.369   2.766   8.849  0.5694 -0.6242  0.5497
11428SOL    HW139131   8.449   2.782   8.799  0.0476 -0.3249 -0.1926
11428SOL    HW239132   8.324   2.850   8.851 -1.7862 -1.6086 -2.6589
11429SOL     OW39133   0.302   0.472   6.199  0.0278  0.3828  0.0690
11429SOL    HW139134   0.242   0.493   6.127  0.3018 -2.4407 -1.1345
11429SOL    HW239135   0.316   0.377   6.191  0.9238  0.1415  3.2309
11430SOL     OW39136   5.148   9.329   3.743  0.2251 -0.5455 -0.5679
11430SOL    HW139137   5.135   9.312   3.650  1.0662  0.9349 -0.9962
11430SOL    HW239138   5.218   9.270   3.769 -0.8196 -1.8201 -0.5551
11431SOL     OW39139   3.997   0.002   2.980  0.4814 -0.6243  0.3560
11431SOL    HW139140   4.044   0.042   3.053 -0.7290  0.4089  0.6085
11431SOL    HW239141   3.909  -0.014   3.014  0.3045 -1.4810 -0.4451
11432SOL     OW39142   1.716   3.165   2.913  0.1084 -0.6023  0.0429
11432SOL    HW139143   1.810   3.181   2.908  0.2243 -0.0731  2.6933
11432SOL    HW239144   1.708   3.070   2.905  0.8633 -0.6698 -0.0123
11433SOL     OW39145   2.697   2.326   3.066  0.3908  0.1284 -0.0096
11433SOL    HW139146   2.647   2.288   3.139 -0.0100 -2.7543 -1.6206
11433SOL    HW239147   2.631   2.372   3.013  0.3543  0.6247  0.4626
11434SOL     OW39148   6.144   6.979   3.849  0.3496  0.0077 -0.2404
11434SOL    HW139149   6.171   6.956   3.938  0.3595 -1.5068 -0.6118
11434SOL    HW239150   6.183   7.065   3.834  1.2158 -0.1645  0.8505
11435SOL     OW39151   5.157   9.529   0.178 -0.0133 -0.4794 -0.0198
11435SOL    HW139152   5.172   9.619   0.149  0.3211 -0.3123  0.6335
11435SOL    HW239153   5.163   9.476   0.099 -1.0849  0.1610 -0.5512
11436SOL     OW39154   8.400   2.319   7.232 -0.6541  0.2430 -0.1747
11436SOL    HW139155   8.458   2.367   7.292 -2.5030  1.0278  1.0971
11436SOL    HW239156   8.453   2.246   7.201  0.4446 -0.1545  2.3639
11437SOL     OW39157   6.312   6.460   5.037  0.3485  0.2600 -0.1977
11437SOL    HW139158   6.289   6.383   5.089  1.6177  1.1151  1.7381
11437SOL    HW239159   6.227   6.500   5.016 -0.2662 -0.9760 -0.1599
11438SOL     OW39160   3.038   5.382   1.848 -0.0905 -0.4126 -0.7361
11438SOL    HW139161   3.017   5.454   1.908  1.3763 -0.1072 -0.5550
11438SOL    HW239162   2.958   5.370   1.797 -0.9446  0.1810  0.4076
11439SOL     OW39163   0.190   0.740   0.550  0.1198 -0.1928 -0.0784
11439SOL    HW139164   0.151   0.781   0.628  0.6442  0.3103 -0.0728
11439SOL    HW239165   0.132   0.765   0.478  0.8907  1.3362 -0.2264
11440SOL     OW39166   5.350   4.339   6.570 -0.6873 -0.1564  0.2383
11440SOL    HW139167   5.356   4.419   6.623 -3.4349  0.3268 -0.0447
11440SOL    HW239168   5.405   4.358   6.494  0.6070  0.4796  1.2745
11441SOL     OW39169   7.925   9.009   6.242  0.4493  0.5939 -0.4486
11441SOL    HW139170   7.891   9.061   6.316  0.7800 -0.9762  0.8694
11441SOL    HW239171   7.998   8.960   6.280  0.7028 -0.1763 -1.8822
11442SOL     OW39172   2.674   1.899   0.895 -0.3073  0.7005  0.2508
11442SOL    HW139173   2.703   1.874   0.982  1.1011  1.5044  0.0544
11442SOL    HW239174   2.583   1.924   0.906 -0.3911 -0.0238  1.3191
11443SOL     OW39175   3.074   9.301   2.040  0.2885  0.6109 -0.0135
11443SOL    HW139176   3.050   9.327   1.951  0.5255 -1.2616 -0.6655
11443SOL    HW239177   3.169   9.285   2.036  0.4007  1.0161  0.7258
11444SOL     OW39178   5.035   5.314   5.366  0.4924  0.3164  0.1017
11444SOL    HW139179   4.966   5.354   5.314 -0.0644  1.3580  1.5598
11444SOL    HW239180   5.000   5.229   5.392  0.3302  0.2571 -0.3058
11445SOL     OW39181   3.428   6.569   3.870  0.0722 -0.5130  0.6032
11445SOL    HW139182   3.399   6.635   3.933 -1.4066  0.7395 -1.3052
11445SOL    HW239183   3.348   6.525   3.842  0.5799 -0.4756 -0.9988
11446SOL     OW39184   4.382   7.868   7.081 -0.2534 -0.6466  0.0024
11446SOL    HW139185   4.290   7.893   7.085 -0.4892 -1.4760 -0.1987
11446SOL    HW239186   4.398   7.848   6.989  0.6242  1.2734 -0.3252
11447SOL     OW39187   7.273   8.989   1.597  0.6730  0.2805  0.0716
11447SOL    HW139188   7.251   8.901   1.629 -0.7750 -0.2183 -2.1169
11447SOL    HW239189   7.189   9.029   1.577  1.4163  1.3394 -1.0856
11448SOL     OW39190   3.782   3.045   7.901  0.1185 -0.3762  0.2668
11448SOL    HW139191   3.810   2.961   7.866  1.0290 -0.2958  0.7763
11448SOL    HW239192   3.704   3.025   7.953  0.1559 -0.8589  0.1406
11449SOL     OW39193   1.655   3.784   1.092  0.4645 -0.2157 -0.0974
11449SOL    HW139194   1.722   3.809   1.156 -1.2480 -1.9707  2.5674
11449SOL    HW239195   1.678   3.833   1.013  2.7458  2.0502  1.8085
11450SOL     OW39196   1.223   7.762   2.989  0.3628 -0.2507 -0.0591
11450SOL    HW139197   1.185   7.846   2.963 -1.6075 -1.2548 -0.6216
11450SOL    HW239198   1.151   7.715   3.031  1.3019 -1.8225 -0.1249
11451SOL     OW39199   6.649   8.503   2.821 -0.1530 -0.0817  0.1593
11451SOL    HW139200   6.603   8.587   2.810  0.5367  0.4272  1.0007
11451SOL    HW239201   6.742   8.527   2.818  0.0516 -0.9005 -0.1166
11452SOL     OW39202   0.340   0.984   8.684 -0.8370  0.4147  0.3406
11452SOL    HW139203   0.401   1.057   8.676  0.2188 -0.4211  0.4046
11452SOL    HW239204   0.347   0.937   8.601 -0.2528 -0.5193  0.8932
11453SOL     OW39205   1.131   6.917   8.811  0.0575 -0.0722 -0.1723
11453SOL    HW139206   1.060   6.970   8.774  1.8466  0.9938 -2.3090
11453SOL    HW239207   1.166   6.868   8.737  1.0355 -1.2023  0.9969
11454SOL     OW39208   4.546   2.908   3.098 -0.7375  0.3440 -0.3916
11454SOL    HW139209   4.494   2.930   3.021 -1.8879 -2.4555 -0.5517
11454SOL    HW239210   4.527   2.978   3.161 -1.6976  1.3939 -1.7800
11455SOL     OW39211   1.618   6.946   0.796 -0.0142 -0.5764 -0.2676
11455SOL    HW139212   1.602   6.864   0.843 -2.2084  0.8403  1.7004
11455SOL    HW239213   1.712   6.944   0.776  0.3598 -2.7443  1.3331
11456SOL     OW39214   0.288   7.100   3.814 -0.4168  0.5223  0.4671
11456SOL    HW139215   0.373   7.108   3.857  0.0018  0.1253 -0.2546
11456SOL    HW239216   0.257   7.013   3.839 -0.0609  0.1931 -0.2107
11457SOL     OW39217   4.447   7.433   2.664  0.3537  0.2623 -0.1464
11457SOL    HW139218   4.496   7.394   2.737 -0.4618 -1.0802 -0.2972
11457SOL    HW239219   4.501   7.417   2.587 -0.2657 -1.1783 -0.3057
11458SOL     OW39220   0.940   1.738   4.510 -0.1021  0.5012 -0.4787
11458SOL    HW139221   0.863   1.750   4.564 -0.0239 -2.1617  0.3801
11458SOL    HW239222   1.014   1.747   4.570 -0.0380 -4.0165  0.5310
11459SOL     OW39223   6.126   8.821   9.018  0.0997 -0.1550  0.0296
11459SOL    HW139224   6.123   8.745   8.960 -0.2000  1.1854 -1.8145
11459SOL    HW239225   6.106   8.786   9.105  0.3118 -2.2111 -0.7007
11460SOL     OW39226   2.757   1.974   2.032 -0.4808  0.0954  0.5339
11460SOL    HW139227   2.689   1.922   1.990  0.5031 -0.1241 -0.8735
11460SOL    HW239228   2.833   1.915   2.035  0.6437  1.3506 -1.0298
11461SOL     OW39229   4.425   0.259   4.786  0.0493  0.3600 -0.1484
11461SOL    HW139230   4.405   0.177   4.741 -0.3477 -0.3631  1.3072
11461SOL    HW239231   4.431   0.323   4.715 -4.3609  0.0747 -1.0933
11462SOL     OW39232   5.579   6.477   4.600 -0.2603 -0.0834 -0.3498
11462SOL    HW139233   5.500   6.424   4.589 -0.5590  0.0636  0.9111
11462SOL    HW239234   5.634   6.424   4.658  0.4375 -0.0447 -0.9760
11463SOL     OW39235   4.843   6.473   7.845  0.5448 -0.1751  0.0580
11463SOL    HW139236   4.889   6.421   7.779  2.0868  2.6745 -1.3145
11463SOL    HW239237   4.878   6.442   7.928  1.7217 -1.0488 -0.7250
11464SOL     OW39238   9.215   9.317   2.024  0.3658 -0.2068  0.7511
11464SOL    HW139239   9.232   9.358   2.108 -0.2999  0.0652  0.7584
11464SOL    HW239240   9.174   9.233   2.046  0.4925 -0.2812  0.7063
11465SOL     OW39241   5.030   2.186   3.886 -0.1972 -0.2040  0.3727
11465SOL    HW139242   5.041   2.184   3.791  1.0263  0.4929  0.4846
11465SOL    HW239243   4.942   2.222   3.899 -1.5018 -2.8131 -0.5110
11466SOL     OW39244   3.259   0.360   3.429 -0.6742  0.2212 -0.1009
11466SOL    HW139245   3.292   0.413   3.356  0.8341 -1.7838 -0.9573
11466SOL    HW239246   3.309   0.390   3.505 -0.9495  1.0623 -0.2382
11467SOL     OW39247   4.202   3.323   3.489  0.1138  0.6964 -0.0692
11467SOL    HW139248   4.296   3.336   3.496  0.1029  0.2778  0.9608
11467SOL    HW239249   4.171   3.316   3.579 -0.6972 -0.6581 -0.4232
11468SOL     OW39250   6.401   7.023   0.424  0.3360 -0.2733  0.4615
11468SOL    HW139251   6.346   7.027   0.346  0.5684 -1.9878  0.1789
11468SOL    HW239252   6.344   7.055   0.495 -0.2383  0.2178 -0.2021
11469SOL     OW39253   6.322   7.679   3.985  0.0482  0.2514  0.1820
11469SOL    HW139254   6.347   7.755   4.038  0.7906  0.6311 -0.6843
11469SOL    HW239255   6.287   7.616   4.049  1.8611  0.2844  1.2851
11470SOL     OW39256   8.155   8.266   2.356  0.0608  0.3958 -0.4134
11470SOL    HW139257   8.117   8.209   2.289 -1.2492  0.5059  0.2161
11470SOL    HW239258   8.104   8.347   2.351 -0.7891  0.0164  1.4171
11471SOL     OW39259   6.907   2.092   6.914  0.2077 -0.1338 -0.0568
11471SOL    HW139260   6.820   2.083   6.952  0.3528 -1.3678  0.0065
11471SOL    HW239261   6.913   2.022   6.849  1.3152 -0.3501  0.2506
11472SOL     OW39262   7.273   0.196   8.305 -0.4218  0.0465 -1.2178
11472SOL    HW139263   7.234   0.118   8.265  2.0207 -2.2980  0.5539
11472SOL    HW239264   7.199   0.243   8.343 -2.0087 -1.4038 -2.3510
11473SOL     OW39265   5.268   4.901   0.716  0.5626  0.4922 -0.1903
11473SOL    HW139266   5.243   4.861   0.800  1.2910  1.7714  0.6557
11473SOL    HW239267   5.240   4.992   0.724  0.2466  0.5329 -1.5296
11474SOL     OW39268   8.093   4.297   9.048 -0.0772 -0.0888 -0.6154
11474SOL    HW139269   8.094   4.342   8.963  1.0857 -0.3408 -0.7536
11474SOL    HW239270   8.148   4.220   9.035  0.6628  0.2126  0.5387
11475SOL     OW39271   7.172   8.407   1.421  0.1590 -0.0461  0.1559
11475SOL    HW139272   7.200   8.426   1.511 -0.2410 -1.6670  0.6472
11475SOL    HW239273   7.162   8.312   1.418 -2.9337  0.2135 -0.6959
11476SOL     OW39274   3.369   7.042   1.259  0.2721 -0.4655 -0.5620
11476SOL    HW139275   3.304   7.102   1.224 -1.0244 -1.7316 -0.4315
11476SOL    HW239276   3.448   7.057   1.206 -0.3980  0.4792 -1.3100
11477SOL     OW39277   8.277   1.097   5.878  0.0101 -0.0190 -0.2613
11477SOL    HW139278   8.358   1.052   5.854  0.4641  1.3029 -1.3326
11477SOL    HW239279   8.218   1.081   5.804 -0.8168 -1.1258  0.5896
11478SOL     OW39280   9.008   9.578   5.601 -0.5108  0.1807  0.3343
11478SOL    HW139281   9.061   9.508   5.640 -0.6463  0.4283  0.9728
11478SOL    HW239282   8.919   9.562   5.633 -0.3282  1.3686  1.5374
11479SOL     OW39283   5.679   7.521   1.719 -0.6129 -0.4004 -0.0126
11479SOL    HW139284   5.656   7.484   1.804 -3.5332  1.2280  0.0413
11479SOL    HW239285   5.729   7.600   1.740  1.3947 -1.6402  0.0300
11480SOL     OW39286   6.103   2.812   1.620 -0.0201 -0.5511 -0.0541
11480SOL    HW139287   6.030   2.873   1.623  0.8959  0.6244 -0.9824
11480SOL    HW239288   6.065   2.730   1.588 -0.4511  0.8551 -3.4906
11481SOL     OW39289   4.742   0.890   0.382  0.0405 -0.2586 -0.5824
11481SOL    HW139290   4.689   0.944   0.324 -0.7453  0.4589  0.7633
11481SOL    HW239291   4.818   0.944   0.402  0.1855 -0.4069 -0.7244
11482SOL     OW39292   3.734   8.791   1.409 -0.1756  0.5399 -0.7236
11482SOL    HW139293   3.639   8.793   1.399 -0.5086  3.7169  1.4244
11482SOL    HW239294   3.768   8.843   1.337 -0.4022  2.0548  0.2215
11483SOL     OW39295   3.869   3.568   4.753  0.3895  0.4754  0.2570
11483SOL    HW139296   3.801   3.545   4.817  0.4145 -0.3248  0.0070
11483SOL    HW239297   3.826   3.561   4.668  0.7464  0.0782  0.1040
11484SOL     OW39298   4.144   6.596   5.031  0.2091 -0.0825 -0.0398
11484SOL    HW139299   4.140   6.678   4.983 -2.7124 -0.5315 -0.7278
11484SOL    HW239300   4.234   6.566   5.019  0.9240  2.2430 -1.0320
11485SOL     OW39301   2.501   3.021   7.040  0.1376  0.1162  0.5089
11485SOL    HW139302   2.425   3.004   6.984  1.2312 -0.4945 -0.8094
11485SOL    HW239303   2.504   2.946   7.099  0.5103 -0.5370 -0.3317
11486SOL     OW39304   7.420   3.997   1.877  0.2838  0.2909  0.0180
11486SOL    HW139305   7.499   4.038   1.914  0.6531 -0.6321  0.2907
11486SOL    HW239306   7.353   4.011   1.944  0.6626 -0.3990  0.5505
11487SOL     OW39307   4.287   6.485   5.883  0.3456 -0.1114 -0.5479
11487SOL    HW139308   4.352   6.448   5.823 -0.4796 -0.4146 -1.2761
11487SOL    HW239309   4.203   6.464   5.843 -0.2195 -0.1382  0.6202
11488SOL     OW39310   4.150   9.009   1.857  0.1708  0.6976 -0.4978
11488SOL    HW139311   4.243   8.987   1.854 -0.2069 -1.0255 -0.7956
11488SOL    HW239312   4.140   9.061   1.937  1.4848  1.5208 -0.8259
11489SOL     OW39313   5.877   8.549   1.077 -0.3082  0.0918 -0.0122
11489SOL    HW139314   5.898   8.618   1.139 -1.7700  0.4941  0.0793
11489SOL    HW239315   5.932   8.475   1.103  1.0228  1.0912  0.1033
11490SOL     OW39316   6.515   8.926   2.810 -0.3580  0.1045 -0.4381
11490SOL    HW139317   6.518   9.007   2.860  1.3514 -0.6777  0.8106
11490SOL    HW239318   6.428   8.926   2.769 -0.7297  2.1051  0.2634
11491SOL     OW39319   3.727   3.329   6.302 -0.4611  0.4046 -0.5102
11491SOL    HW139320   3.789   3.391   6.263 -1.0741  0.3499 -1.6366
11491SOL    HW239321   3.781   3.255   6.330  0.1616  1.0294 -0.0322
11492SOL     OW39322   1.748   5.788   1.797  0.4139 -0.3003 -0.2139
11492SOL    HW139323   1.819   5.732   1.767  1.8587  0.5762  1.4178
11492SOL    HW239324   1.679   5.777   1.730  2.3813 -0.4674 -2.3315
11493SOL     OW39325   0.451   6.030   1.402 -0.0575 -0.3554  0.1513
11493SOL    HW139326   0.381   5.968   1.385 -3.0822  1.8451  3.1364
11493SOL    HW239327   0.434   6.103   1.343  0.3420 -0.2507  0.1635
11494SOL     OW39328   1.488   1.771   8.362  0.1593  0.6490 -0.8816
11494SOL    HW139329   1.496   1.840   8.428 -1.1059  0.0516 -0.0665
11494SOL    HW239330   1.555   1.707   8.387  0.7426  1.1415 -1.1285
11495SOL     OW39331   9.269   4.388   9.123  0.2707  0.2045  0.3732
11495SOL    HW139332   9.285   4.376   9.217  0.6445 -3.3982 -0.0194
11495SOL    HW239333   9.353   4.415   9.087  0.0629  1.8509  1.0529
11496SOL     OW39334   4.377   5.075   1.802 -0.4142  0.0527  0.2733
11496SOL    HW139335   4.287   5.042   1.800 -0.0295 -1.0821  0.5974
11496SOL    HW239336   4.422   5.025   1.733  0.1290  0.0870  0.5968
11497SOL     OW39337   8.160   9.283   6.752  0.3751  0.2745 -0.5990
11497SOL    HW139338   8.210   9.344   6.806 -1.7860  0.6270  1.1701
11497SOL    HW239339   8.117   9.225   6.816 -0.8177 -0.4901 -2.0417
11498SOL     OW39340   3.919   2.879   6.925  0.4494  0.2896  0.1363
11498SOL    HW139341   3.912   2.816   6.997 -0.6362  1.7028  1.3334
11498SOL    HW239342   3.954   2.828   6.852  3.1347 -0.8740  2.0691
11499SOL     OW39343   9.700   3.284   8.117 -0.1237 -0.3463 -0.4579
11499SOL    HW139344   9.607   3.274   8.133  0.0281 -0.4854  0.4060
11499SOL    HW239345   9.715   3.246   8.031 -1.0248  0.6026 -1.0553
11500SOL     OW39346   6.356   9.100   1.421  0.1673 -0.3706 -0.2068
11500SOL    HW139347   6.409   9.152   1.481 -1.4487  0.7219  0.3676
11500SOL    HW239348   6.384   9.128   1.334  0.1540  0.6082  0.0866
11501SOL     OW39349   3.423   3.439   4.863  0.1207  0.5048 -0.4538
11501SOL    HW139350   3.471   3.512   4.822  0.0719  0.6881 -0.1836
11501SOL    HW239351   3.436   3.451   4.957 -1.6291  1.3931 -0.2820
11502SOL     OW39352   9.619   9.000   0.159  0.1763  0.5019  0.0083
11502SOL    HW139353   9.681   9.001   0.086  0.2301  2.0500  0.0502
11502SOL    HW239354   9.535   9.024   0.120 -0.2074 -0.6112  0.1267
11503SOL     OW39355   9.281   1.335   4.806  0.1357 -0.0738  0.1992
11503SOL    HW139356   9.256   1.299   4.891  1.1157 -1.5395 -0.0918
11503SOL    HW239357   9.302   1.427   4.823 -0.4755 -0.1364  1.3698
11504SOL     OW39358   0.523   0.855   4.734  0.1597 -0.1245 -0.0569
11504SOL    HW139359   0.611   0.877   4.762  0.1798  0.2081 -0.3770
11504SOL    HW239360   0.472   0.851   4.815 -0.4360  3.6870 -0.0604
11505SOL     OW39361   0.936   6.379   8.978  0.3885  0.8705 -0.0570
11505SOL    HW139362   0.842   6.366   8.965 -0.3650  3.2645  2.1458
11505SOL    HW239363   0.954   6.466   8.943  1.3169  1.2713  1.2942
11506SOL     OW39364   9.156   8.912   5.805  0.4973 -0.6252 -0.0075
11506SOL    HW139365   9.101   8.941   5.732  2.1962 -0.1698 -1.1687
11506SOL    HW239366   9.183   8.823   5.780  0.1514 -0.9240  0.6552
11507SOL     OW39367   4.341   2.209   7.053 -0.3641  0.2360  0.0400
11507SOL    HW139368   4.352   2.149   6.980 -0.5692  0.9451 -0.5824
11507SOL    HW239369   4.386   2.289   7.026 -2.9622  1.5897 -0.6399
11508SOL     OW39370   3.789   3.406   2.154  0.4314  0.4228 -0.1567
11508SOL    HW139371   3.742   3.432   2.233 -0.2596  0.9503 -0.7251
11508SOL    HW239372   3.719   3.386   2.091  0.9700 -0.3603 -0.5119
11509SOL     OW39373   7.519   3.113   7.395  0.1326 -0.0487 -0.1079
11509SOL    HW139374   7.495   3.203   7.377 -0.0033 -0.0275  0.1750
11509SOL    HW239375   7.583   3.118   7.465 -0.6282 -0.2253  0.6141
11510SOL     OW39376   1.346   5.328   2.245 -0.4811  0.1027  0.3403
11510SOL    HW139377   1.358   5.344   2.338  1.0909  1.6615 -0.0843
11510SOL    HW239378   1.367   5.235   2.233 -0.3877 -0.0323  1.4843
11511SOL     OW39379   5.478   8.568   9.605 -0.1183 -0.6776 -0.4751
11511SOL    HW139380   5.555   8.524   9.640 -0.8501 -0.9804  0.8401
11511SOL    HW239381   5.512   8.647   9.562  0.8213  0.0137  1.4333
11512SOL     OW39382   2.317   9.553   0.060 -0.0712  0.0917  0.3058
11512SOL    HW139383   2.298   9.611   0.134 -1.5317 -0.8062  0.6761
11512SOL    HW239384   2.323   9.611  -0.016 -0.6875  0.8082  0.7927
11513SOL     OW39385   6.878   0.539   4.751 -0.3518 -0.3997 -0.5092
11513SOL    HW139386   6.798   0.577   4.788 -0.0148  0.3131 -0.4855
11513SOL    HW239387   6.938   0.613   4.745  0.4275 -0.9998 -0.1982
11514SOL     OW39388   6.929   8.545   2.900  0.3786  0.1099 -0.0438
11514SOL    HW139389   6.932   8.630   2.856  1.8658 -0.3080 -0.8051
11514SOL    HW239390   7.011   8.503   2.876 -0.2019 -1.4293  0.5665
11515SOL     OW39391   0.304   6.061   3.678  0.3380 -0.0753 -0.4623
11515SOL    HW139392   0.361   6.135   3.659 -1.2122  0.9645 -1.2784
11515SOL    HW239393   0.231   6.070   3.616 -0.6596 -1.3955  0.4584
11516SOL     OW39394   6.112   1.556   2.912 -0.4616  0.1575 -0.2174
11516SOL    HW139395   6.035   1.613   2.917  0.3414  1.2248  0.7765
11516SOL    HW239396   6.143   1.550   3.003  0.1601 -0.9158 -0.4857
11517SOL     OW39397   7.395   4.729   2.662 -0.6874  0.3799 -0.0120
11517SOL    HW139398   7.428   4.789   2.595 -0.9286 -1.4401 -1.8506
11517SOL    HW239399   7.301   4.723   2.645 -0.4394 -1.7918 -1.0583
11518SOL     OW39400   3.420   6.538   8.795  0.3056  0.7347  0.4079
11518SOL    HW139401   3.441   6.602   8.727 -1.2845  1.7545  0.8065
11518SOL    HW239402   3.378   6.590   8.864 -0.0048 -0.5813  1.2472
11519SOL     OW39403   3.597   0.237   5.188  0.2576  0.1346  0.4545
11519SOL    HW139404   3.535   0.300   5.225 -2.3460 -2.1255  0.2579
11519SOL    HW239405   3.621   0.180   5.262  0.7648 -0.0415  0.1655
11520SOL     OW39406   7.182   4.363   0.077  0.4307  0.7002  0.0818
11520SOL    HW139407   7.250   4.298   0.095  0.2047  0.3803 -0.1993
11520SOL    HW239408   7.118   4.316   0.023 -0.8032  0.5296  1.6355
11521SOL     OW39409   2.345   1.988   0.285  0.0095  0.5423 -0.0443
11521SOL    HW139410   2.354   1.948   0.372 -0.8699  0.5812  0.0766
11521SOL    HW239411   2.308   2.074   0.303 -0.3869  0.4638 -0.4735
11522SOL     OW39412   3.120   2.836   4.497 -0.8117  0.0617  0.6690
11522SOL    HW139413   3.133   2.810   4.588 -0.2159  0.6963  0.7722
11522SOL    HW239414   3.191   2.792   4.449 -1.0337 -0.1504  0.5342
11523SOL     OW39415   8.279   8.291   0.776 -0.3636 -0.3971 -0.0408
11523SOL    HW139416   8.347   8.227   0.797 -0.4740 -0.4060  0.2905
11523SOL    HW239417   8.324   8.356   0.721  0.1250  0.0347  0.8499
11524SOL     OW39418   9.411   4.048   1.759 -0.5918 -0.1002 -0.4126
11524SOL    HW139419   9.397   4.065   1.666 -1.3449  0.2692 -0.2367
11524SOL    HW239420   9.506   4.058   1.771 -0.7247  1.9562 -0.7396
11525SOL     OW39421   1.630   9.330   5.998 -0.1173 -0.4343  0.3523
11525SOL    HW139422   1.655   9.284   5.918  1.2117 -0.4160  0.7461
11525SOL    HW239423   1.683   9.290   6.067 -1.7561 -0.9416  1.3843
11526SOL     OW39424   8.657   7.548   7.900  0.1867  0.0285 -0.1257
11526SOL    HW139425   8.615   7.620   7.946 -1.5262 -0.8310 -0.2759
11526SOL    HW239426   8.666   7.480   7.966 -0.3209 -0.4416 -0.5345
11527SOL     OW39427   8.079   4.859   0.605  0.2227 -0.4392 -0.2819
11527SOL    HW139428   8.127   4.887   0.526 -1.4204  0.3709 -1.0549
11527SOL    HW239429   8.004   4.811   0.571 -0.0120 -0.8805  0.8437
11528SOL     OW39430   0.571   7.421   2.580  0.3703 -0.3641  0.1175
11528SOL    HW139431   0.626   7.397   2.655 -0.9917  1.4719  1.8328
11528SOL    HW239432   0.583   7.515   2.570  1.8395 -0.7676 -3.2254
11529SOL     OW39433   2.650   8.678   5.638 -0.1839  0.1371 -0.2129
11529SOL    HW139434   2.744   8.671   5.623 -0.2243  0.5539 -0.7132
11529SOL    HW239435   2.642   8.746   5.705 -0.1476  0.4638 -0.5344
11530SOL     OW39436   3.387   8.340   3.936  0.1131 -0.2917  0.4300
11530SOL    HW139437   3.415   8.392   4.011 -0.5425 -0.5436  0.8580
11530SOL    HW239438   3.426   8.254   3.949 -1.0877 -0.7481  1.2062
11531SOL     OW39439   2.001   5.569   1.009 -0.6576  0.2707 -0.0617
11531SOL    HW139440   1.912   5.569   0.974 -0.1494  0.9182 -1.4574
11531SOL    HW239441   2.015   5.480   1.041 -1.1043 -0.4624 -1.7782
11532SOL     OW39442   5.642   3.621   9.707 -0.0275 -0.4710 -0.7268
11532SOL    HW139443   5.568   3.677   9.686 -0.0704  0.0613  0.7322
11532SOL    HW239444   5.609   3.532   9.695 -1.1280 -0.2617  0.5223
11533SOL     OW39445   2.977   1.959   1.561 -0.1012  0.1782 -0.5363
11533SOL    HW139446   2.915   2.032   1.558 -0.3254  0.0700  0.6735
11533SOL    HW239447   2.955   1.913   1.642  0.2730 -1.0272 -1.1000
11534SOL     OW39448   0.704   4.555   7.903  0.1641  0.1549 -0.0911
11534SOL    HW139449   0.732   4.525   7.817  0.5871  0.2304  0.0181
11534SOL    HW239450   0.650   4.632   7.886 -0.1849 -0.1382 -0.3187
11535SOL     OW39451   3.593   1.008   2.568 -0.6280 -0.0334  0.2819
11535SOL    HW139452   3.639   1.086   2.537 -1.3716 -0.1521 -1.1749
11535SOL    HW239453   3.521   0.996   2.507  0.0677 -2.4611 -0.1851
11536SOL     OW39454   7.397   4.885   0.696 -0.4661  0.0180  0.5643
11536SOL    HW139455   7.459   4.889   0.769  0.4744 -0.4164 -0.1895
11536SOL    HW239456   7.448   4.911   0.620 -1.2811 -0.1204 -0.0429
11537SOL     OW39457   7.358   5.387   2.943  0.1622 -0.0698  0.4056
11537SOL    HW139458   7.385   5.385   3.035  0.7094  0.0029  0.2500
11537SOL    HW239459   7.340   5.479   2.925 -0.2035 -0.1171  0.5067
11538SOL     OW39460   5.380   8.998   7.700  0.6057  0.0055  0.6309
11538SOL    HW139461   5.426   9.073   7.663  0.3994  0.8327  1.9969
11538SOL    HW239462   5.449   8.943   7.738  0.6082  0.4087  1.2108
11539SOL     OW39463   5.855   6.434   1.174 -0.1457  0.1357 -0.6270
11539SOL    HW139464   5.819   6.469   1.093 -2.4346  1.7791  0.9937
11539SOL    HW239465   5.923   6.497   1.199 -1.5238  1.3221  0.2369
11540SOL     OW39466   7.095   5.789   4.408  0.4825 -0.0779  0.1355
11540SOL    HW139467   7.105   5.696   4.426 -0.1241  0.0777  1.3691
11540SOL    HW239468   7.179   5.815   4.370  0.4544 -1.2298 -0.7561
11541SOL     OW39469   8.361   5.801   7.569  0.6402 -0.5360 -0.2282
11541SOL    HW139470   8.322   5.852   7.497  1.1412  0.2390  0.0381
11541SOL    HW239471   8.302   5.727   7.580 -1.2798  1.0294  0.7159
11542SOL     OW39472   4.379   3.064   3.588  0.0045  0.1941  0.3603
11542SOL    HW139473   4.408   3.087   3.676  0.4104  0.2590  0.2157
11542SOL    HW239474   4.461   3.053   3.539 -0.2220  0.4279 -0.0744
11543SOL     OW39475   1.607   7.502   1.787 -0.1155 -0.0353  0.1498
11543SOL    HW139476   1.669   7.430   1.775 -0.8068 -1.3682  3.4869
11543SOL    HW239477   1.521   7.462   1.771 -0.3870  0.6479 -0.1352
11544SOL     OW39478   7.973   1.789   4.662  0.3323  0.3580 -0.5116
11544SOL    HW139479   7.981   1.782   4.757 -0.5843  0.2447 -0.4360
11544SOL    HW239480   8.051   1.745   4.628  1.2208  1.3383  0.1963
11545SOL     OW39481   3.650   6.178   3.280 -0.0588 -0.1220  0.5814
11545SOL    HW139482   3.731   6.133   3.257  0.0789 -0.1614  1.1165
11545SOL    HW239483   3.672   6.230   3.357 -0.9199 -1.3925  1.7392
11546SOL     OW39484   3.408   5.757   4.357 -0.1276  0.1665 -0.4295
11546SOL    HW139485   3.318   5.770   4.387 -0.4412 -2.7247  0.1746
11546SOL    HW239486   3.415   5.810   4.278 -2.3865  0.4509 -0.4955
11547SOL     OW39487   8.468   6.339   8.161 -0.0337  0.1414  0.7278
11547SOL    HW139488   8.406   6.267   8.172  0.3995 -0.5508 -0.9912
11547SOL    HW239489   8.418   6.407   8.115  0.0248  0.2454  0.8188
11548SOL     OW39490   6.640   1.506   4.368  0.3728 -0.0402  0.3417
11548SOL    HW139491   6.593   1.518   4.286  0.4878  3.2900  0.6260
11548SOL    HW239492   6.713   1.567   4.364 -1.1484  2.4205  3.8778
11549SOL     OW39493   9.326   8.908   0.406  0.1410 -0.2225  0.0051
11549SOL    HW139494   9.396   8.924   0.469 -1.1440  1.3139  1.1390
11549SOL    HW239495   9.251   8.885   0.460  0.0637 -3.3181 -1.2622
11550SOL     OW39496   7.551   8.357   5.185 -0.1484  0.0036  0.7129
11550SOL    HW139497   7.500   8.403   5.119  1.7319  0.8175 -0.2442
11550SOL    HW239498   7.548   8.265   5.158 -0.2210  0.1937  0.0705
11551SOL     OW39499   0.460   3.372   0.840  0.0339 -0.0465  0.2053
11551SOL    HW139500   0.372   3.409   0.835 -0.5807 -0.9537  2.6208
11551SOL    HW239501   0.514   3.442   0.877 -0.6853 -0.7842  2.8419
11552SOL     OW39502   5.975   5.296   4.381 -0.5616 -0.1914 -0.3296
11552SOL    HW139503   5.938   5.379   4.409  0.6934  1.1884 -2.4306
11552SOL    HW239504   5.980   5.304   4.285  1.9411 -1.6216 -0.3920
11553SOL     OW39505   3.004   8.282   1.326  0.1116  0.2075 -0.3748
11553SOL    HW139506   2.999   8.229   1.247 -0.1846 -1.7207  0.8705
11553SOL    HW239507   2.919   8.270   1.368  0.9195 -0.3980  1.1683
11554SOL     OW39508   1.082   3.656   8.436 -0.0109 -0.8729 -0.7074
11554SOL    HW139509   1.054   3.613   8.355  1.5222  0.5659 -2.1037
11554SOL    HW239510   1.142   3.594   8.477 -0.9814 -1.7106 -0.5320
11555SOL     OW39511   7.282   2.912   8.056  0.1481  0.0889 -0.4471
11555SOL    HW139512   7.346   2.863   8.004  0.2453  0.9563 -1.1578
11555SOL    HW239513   7.244   2.975   7.995 -0.7270  0.2078  0.2011
11556SOL     OW39514   4.742   2.540   1.803 -0.0785  0.0287 -0.4645
11556SOL    HW139515   4.779   2.470   1.749 -1.4394 -0.6851 -0.5078
11556SOL    HW239516   4.737   2.502   1.891 -1.1620 -0.0676 -0.5623
11557SOL     OW39517   3.308   8.977   5.591 -0.3141 -0.4926 -0.3518
11557SOL    HW139518   3.251   8.994   5.666 -2.2744 -1.3421 -1.5588
11557SOL    HW239519   3.383   8.930   5.628  0.4588  2.0142  1.5230
11558SOL     OW39520   7.043   0.473   2.259  0.3617 -0.2777 -0.3807
11558SOL    HW139521   7.107   0.493   2.191  1.1324  3.3272  1.1990
11558SOL    HW239522   6.984   0.548   2.261 -0.4847 -0.8859  1.9752
11559SOL     OW39523   0.079   8.265   0.341  0.2684 -0.2493 -0.2200
11559SOL    HW139524   0.007   8.306   0.390  0.7727 -0.5845  0.8258
11559SOL    HW239525   0.147   8.332   0.338 -0.0782  0.0691 -1.2129
11560SOL     OW39526   0.085   5.487   1.735 -0.8889  0.1484  0.7215
11560SOL    HW139527   0.151   5.420   1.717 -1.6684 -0.2895 -0.6806
11560SOL    HW239528   0.106   5.519   1.823  0.3229 -0.9719  0.8681
11561SOL     OW39529   6.720   3.106   5.966 -0.5277  0.3828 -0.0740
11561SOL    HW139530   6.733   3.043   5.896 -0.8739  0.5118 -0.2575
11561SOL    HW239531   6.756   3.063   6.044 -0.1801  0.2250 -0.3214
11562SOL     OW39532   8.494   3.155   2.945  0.4340  0.0143  0.3558
11562SOL    HW139533   8.487   3.134   3.039 -2.3075 -1.8933 -0.1477
11562SOL    HW239534   8.532   3.077   2.905  1.9343  0.9601 -0.1198
11563SOL     OW39535   6.468   0.974   2.948 -0.2267 -0.1318  0.0996
11563SOL    HW139536   6.465   0.894   2.896  0.6977 -0.9103  1.1908
11563SOL    HW239537   6.409   0.957   3.021 -0.4629  0.4128  0.0393
11564SOL     OW39538   5.426   6.538   5.783 -0.3291 -0.0893  0.2415
11564SOL    HW139539   5.351   6.585   5.746 -0.3920  0.1739  0.6961
11564SOL    HW239540   5.502   6.586   5.751 -0.3915  0.2873  0.6473
11565SOL     OW39541   0.495   5.081   0.026  0.4162 -0.0896 -0.2987
11565SOL    HW139542   0.527   5.170   0.015  2.2092 -0.6423  0.1486
11565SOL    HW239543   0.551   5.028  -0.031  0.6062 -1.1708  0.8582
11566SOL     OW39544   6.419   2.180   2.717 -0.0312 -0.3245 -0.1742
11566SOL    HW139545   6.440   2.177   2.810 -1.1840 -0.2511  0.0944
11566SOL    HW239546   6.495   2.222   2.677  0.4205 -0.2456  0.7400
11567SOL     OW39547   8.290   7.592   2.941 -0.6221  0.0458 -0.0625
11567SOL    HW139548   8.369   7.556   2.980 -0.2281 -0.2471 -1.0850
11567SOL    HW239549   8.220   7.571   3.003 -0.2960 -1.8716 -0.2886
11568SOL     OW39550   0.194   5.350   7.948  0.0687  0.2532 -0.1916
11568SOL    HW139551   0.230   5.395   7.871 -1.4533  0.7341 -0.6628
11568SOL    HW239552   0.100   5.365   7.942 -0.1785 -0.5837  1.2260
11569SOL     OW39553   1.963   5.672   5.615 -0.6400  0.2937 -0.2872
11569SOL    HW139554   1.879   5.687   5.571 -0.5001  1.5543 -0.1741
11569SOL    HW239555   2.018   5.744   5.585  0.5400 -0.7377 -0.6517
11570SOL     OW39556   7.523   4.938   5.488  0.1123 -0.0187 -0.7746
11570SOL    HW139557   7.481   5.023   5.502  0.2481 -0.0484 -0.1432
11570SOL    HW239558   7.462   4.875   5.526  1.2015  0.0289  1.1466
11571SOL     OW39559   1.955   9.340   6.428 -0.1939 -0.3130  0.1621
11571SOL    HW139560   2.022   9.403   6.403 -0.6529  1.1645  2.3933
11571SOL    HW239561   1.991   9.294   6.503 -1.6667  0.6833  1.5673
11572SOL     OW39562   3.633   2.017   2.417 -0.2933 -0.0291  0.5141
11572SOL    HW139563   3.603   1.983   2.333  0.2623  0.7549 -0.0155
11572SOL    HW239564   3.602   2.107   2.420  0.7236  0.3356  0.5940
11573SOL     OW39565   3.238   5.387   7.417  0.1934 -0.4082  0.1345
11573SOL    HW139566   3.287   5.305   7.424 -0.0451 -0.7382 -1.5838
11573SOL    HW239567   3.277   5.444   7.484  1.3406 -1.4297  0.3809
11574SOL     OW39568   4.055   1.208   5.719 -0.6237  0.0870 -0.1776
11574SOL    HW139569   4.127   1.271   5.722 -0.5968  0.1118 -1.1548
11574SOL    HW239570   4.024   1.203   5.809 -1.8192  2.9054 -0.3153
11575SOL     OW39571   2.329   3.367   8.945 -0.1130 -0.0802 -0.5713
11575SOL    HW139572   2.394   3.299   8.966 -0.3128  0.1925  1.1140
11575SOL    HW239573   2.301   3.346   8.856  1.0585 -1.1955 -0.7227
11576SOL     OW39574   1.420   7.230   1.113  0.3575 -0.3105 -0.0593
11576SOL    HW139575   1.462   7.233   1.027 -1.9061 -0.2108 -1.2354
11576SOL    HW239576   1.368   7.149   1.112  2.0189 -1.5298  2.1501
11577SOL     OW39577   0.600   2.114   9.380  0.2895 -0.4349  0.9136
11577SOL    HW139578   0.515   2.079   9.355 -0.1624  0.1289  1.6259
11577SOL    HW239579   0.581   2.179   9.447  1.3392 -0.8516  1.6599
11578SOL     OW39580   8.135   6.562   5.684  0.0750  0.0937 -0.3584
11578SOL    HW139581   8.130   6.576   5.590 -0.4722  1.1944 -0.1722
11578SOL    HW239582   8.076   6.487   5.700  1.0651 -0.8614 -1.0186
11579SOL     OW39583   7.634   2.375   2.604  0.8197  0.1308  0.1809
11579SOL    HW139584   7.636   2.437   2.677 -1.2078  0.2340  0.1956
11579SOL    HW239585   7.712   2.321   2.616  0.8387  0.5182  2.0816
11580SOL     OW39586   8.251   5.769   5.204  0.2730  0.2984  0.3077
11580SOL    HW139587   8.255   5.737   5.294 -1.6755  2.5810  1.3123
11580SOL    HW239588   8.235   5.863   5.212 -1.4745  0.3409 -2.3856
11581SOL     OW39589   6.830   9.690   1.452 -0.6035 -0.1449 -0.5624
11581SOL    HW139590   6.756   9.688   1.391  0.5055 -0.8505 -1.9345
11581SOL    HW239591   6.821   9.773   1.498 -2.6412 -0.5180 -0.1722
11582SOL     OW39592   8.035   7.705   3.834  0.6311 -0.3738 -0.6132
11582SOL    HW139593   8.099   7.775   3.823  1.2568 -0.8056  0.2278
11582SOL    HW239594   8.039   7.656   3.751  0.7746  0.0961 -0.8871
11583SOL     OW39595   4.361   7.163   4.982 -0.7262  0.1978  0.4224
11583SOL    HW139596   4.395   7.192   5.066  1.1127 -0.7472  0.0510
11583SOL    HW239597   4.283   7.217   4.968 -0.8342  0.6708  2.5024
11584SOL     OW39598   5.037   4.641   4.818 -0.3618  0.0287  0.0175
11584SOL    HW139599   5.096   4.683   4.880 -1.9908  2.3158  0.1519
11584SOL    HW239600   5.093   4.614   4.745  1.1235  0.0561  1.1081
11585SOL     OW39601   6.365   3.896   8.319  0.0215  0.5314 -0.0391
11585SOL    HW139602   6.414   3.977   8.307 -0.0735  0.7015  0.6700
11585SOL    HW239603   6.419   3.829   8.277  0.1976  0.9255 -0.4519
11586SOL     OW39604   7.537   4.055   9.276  0.3087  0.2360  0.1514
11586SOL    HW139605   7.467   3.996   9.304  1.5240 -1.0800  0.5349
11586SOL    HW239606   7.518   4.138   9.320 -1.3080  0.0879 -0.2165
11587SOL     OW39607   7.139   3.731   9.456 -0.0358 -0.3528  0.5198
11587SOL    HW139608   7.064   3.681   9.424 -0.7394  0.8127  0.2916
11587SOL    HW239609   7.211   3.667   9.459 -0.1065 -0.7487 -2.7101
11588SOL     OW39610   9.109   4.577   0.993 -0.5335 -0.1416 -0.0117
11588SOL    HW139611   9.079   4.494   1.030  1.9640 -1.3655 -0.5238
11588SOL    HW239612   9.136   4.556   0.903  1.1190  0.9371  0.1692
11589SOL     OW39613   4.637   3.484   8.339  0.2257  0.4011 -0.1025
11589SOL    HW139614   4.642   3.407   8.396 -1.7143  2.1976  2.7904
11589SOL    HW239615   4.559   3.470   8.286 -0.4152  0.5662  0.7796
11590SOL     OW39616   1.722   4.718   0.093 -0.7556 -0.0824  0.1630
11590SOL    HW139617   1.637   4.682   0.065 -0.3396 -2.2028  1.4035
11590SOL    HW239618   1.786   4.675   0.036 -0.3588 -0.0155  0.5557
11591SOL     OW39619   3.864   5.845   6.081 -0.3854 -0.1474 -0.3017
11591SOL    HW139620   3.841   5.842   5.988 -0.2951 -0.1093 -0.3252
11591SOL    HW239621   3.862   5.754   6.109  0.2272 -0.2237 -0.4959
11592SOL     OW39622   8.316   2.213   0.088  0.2424  0.0857  0.6840
11592SOL    HW139623   8.412   2.219   0.089  0.2030  3.4460 -1.3037
11592SOL    HW239624   8.296   2.167   0.006  0.1438  0.0081  0.7505
11593SOL     OW39625   7.200   7.093   8.046  0.1557 -0.2392 -0.1941
11593SOL    HW139626   7.110   7.062   8.034  1.2298 -3.3844 -1.0045
11593SOL    HW239627   7.216   7.151   7.972 -1.1595  0.3325 -0.0574
11594SOL     OW39628   0.861   4.889   0.534 -0.2008 -0.2172  1.1689
11594SOL    HW139629   0.946   4.884   0.577  1.5473  1.3729 -1.7257
11594SOL    HW239630   0.861   4.816   0.472 -0.8046 -0.0461  0.9550
11595SOL     OW39631   0.067   5.692   6.129  0.2657  0.4197 -0.2541
11595SOL    HW139632   0.044   5.733   6.212 -1.6797  0.6765 -0.8657
11595SOL    HW239633  -0.006   5.632   6.110 -0.5905  2.0860 -2.8557
11596SOL     OW39634   6.305   6.662   2.051 -0.1715  0.4550  0.0379
11596SOL    HW139635   6.259   6.738   2.017 -0.0484  0.4002 -0.2609
11596SOL    HW239636   6.389   6.696   2.082  0.1365  0.3545 -0.6604
11597SOL     OW39637   1.479   3.803   7.336  0.2094  0.0259  0.1012
11597SOL    HW139638   1.543   3.751   7.287  1.6287  0.7354  1.1236
11597SOL    HW239639   1.526   3.832   7.414 -1.3998  0.5278  0.9360
11598SOL     OW39640   9.678   8.177   4.777 -0.1881  0.1046  0.6492
11598SOL    HW139641   9.699   8.113   4.845  1.4668  0.2635  0.3353
11598SOL    HW239642   9.696   8.262   4.817 -1.6369  0.3644  0.8099
11599SOL     OW39643   9.191   3.063   4.736  0.5218  0.5623  0.4915
11599SOL    HW139644   9.164   3.133   4.677 -0.1328 -0.0816  0.0039
11599SOL    HW239645   9.278   3.036   4.704  0.2199  0.2946 -0.1218
11600SOL     OW39646   6.467   0.946   6.228 -0.4754 -0.1948  0.3069
11600SOL    HW139647   6.544   0.935   6.285 -0.8078 -1.1673  0.5981
11600SOL    HW239648   6.401   0.986   6.285 -0.3234  0.2257  0.1843
11601SOL     OW39649   6.095   6.838   7.408 -0.3265 -0.1271  0.4898
11601SOL    HW139650   6.033   6.779   7.366 -0.5148  0.3468  0.0858
11601SOL    HW239651   6.151   6.870   7.337 -1.1765  1.3302  0.4265
11602SOL     OW39652   8.775   0.113   4.898 -0.2315  0.4261 -0.0696
11602SOL    HW139653   8.740   0.181   4.840  3.2338  0.7400 -2.0760
11602SOL    HW239654   8.821   0.160   4.967  1.3907  0.2131 -0.9486
11603SOL     OW39655   4.429   4.747   9.385  0.0347  0.5545 -0.0171
11603SOL    HW139656   4.497   4.774   9.446  0.3423  0.2107 -0.2038
11603SOL    HW239657   4.347   4.760   9.432  0.3435 -1.8367  1.3260
11604SOL     OW39658   3.782   6.564   3.589  0.5178  0.4054 -0.1530
11604SOL    HW139659   3.694   6.600   3.591  1.0955  2.0662  3.0546
11604SOL    HW239660   3.835   6.634   3.551  0.7244  0.2434 -0.1665
11605SOL     OW39661   6.656   2.697   4.915  0.1869 -0.1893  0.1671
11605SOL    HW139662   6.635   2.788   4.892  2.7032  0.9946  2.0682
11605SOL    HW239663   6.728   2.673   4.858  1.3972  0.0648  1.5331
11606SOL     OW39664   3.346   4.010   1.104 -0.1512  0.1616  0.0515
11606SOL    HW139665   3.428   3.997   1.055 -0.9747 -2.7124 -0.8058
11606SOL    HW239666   3.368   3.985   1.194 -0.0330 -0.5118 -0.1559
11607SOL     OW39667   8.390   0.140   7.352 -0.4473 -0.2809 -0.2592
11607SOL    HW139668   8.474   0.105   7.325 -0.2239 -0.1413  0.2296
11607SOL    HW239669   8.365   0.201   7.283  0.6203  0.8763  0.3389
11608SOL     OW39670   8.220   1.471   6.938  0.3734  0.1043 -0.4496
11608SOL    HW139671   8.274   1.549   6.929  0.2132  0.4157  1.0408
11608SOL    HW239672   8.130   1.504   6.939  0.3356  0.0317  1.0666
11609SOL     OW39673   1.161   1.004   5.381 -0.7505 -0.0368  0.0188
11609SOL    HW139674   1.109   1.068   5.429 -0.6620  1.6260 -1.9660
11609SOL    HW239675   1.227   0.975   5.444 -1.1910  1.3639  1.1733
11610SOL     OW39676   3.830   9.412   9.074  0.5990  0.2889  0.0741
11610SOL    HW139677   3.843   9.317   9.078  1.6291  0.3551 -0.9530
11610SOL    HW239678   3.784   9.426   8.992  2.4764  0.8235 -0.9417
11611SOL     OW39679   1.485   1.246   5.555  0.3531 -0.1173 -0.1493
11611SOL    HW139680   1.436   1.172   5.520 -0.1330 -1.1240  2.4697
11611SOL    HW239681   1.424   1.289   5.615  1.3324  1.1401 -0.0122
11612SOL     OW39682   7.932   9.450   0.745  0.1146 -0.0790  0.0675
11612SOL    HW139683   7.984   9.531   0.746  1.8907 -1.1393 -0.5595
11612SOL    HW239684   7.926   9.427   0.652 -0.5754 -0.5350  0.2239
11613SOL     OW39685   8.165   0.200   0.069  0.0223  0.3878 -0.0498
11613SOL    HW139686   8.238   0.226   0.125 -0.9619  0.1922  1.4046
11613SOL    HW239687   8.090   0.197   0.129 -1.3407  1.3213 -1.6192
11614SOL     OW39688   3.695   5.580   1.578 -0.3423 -0.7484  0.5263
11614SOL    HW139689   3.680   5.488   1.600 -1.2812 -0.2827  1.9235
11614SOL    HW239690   3.609   5.612   1.550 -0.6590  0.3601  2.5961
11615SOL     OW39691   8.277   3.272   4.774  0.0930  0.0640  0.4732
11615SOL    HW139692   8.200   3.241   4.726  0.1118  1.9366 -0.8976
11615SOL    HW239693   8.267   3.236   4.862 -0.2502 -3.0401 -0.7338
11616SOL     OW39694   6.821   2.522   5.943  0.0709 -0.1357 -0.1458
11616SOL    HW139695   6.860   2.471   6.014  3.1190  0.7228 -1.0419
11616SOL    HW239696   6.735   2.547   5.976  0.6917 -1.1761  2.5419
11617SOL     OW39697   7.941   0.913   4.298 -0.3212 -0.3170 -0.3753
11617SOL    HW139698   7.968   0.830   4.259  1.2421 -1.2926  2.5048
11617SOL    HW239699   7.939   0.896   4.392  1.3277  3.2133  0.4723
11618SOL     OW39700   7.442   6.942   6.163  0.3648 -0.2145  0.3025
11618SOL    HW139701   7.457   7.028   6.125 -0.5396 -1.0418 -2.1525
11618SOL    HW239702   7.360   6.951   6.211 -0.2928  0.0909 -0.8296
11619SOL     OW39703   7.944   5.203   2.606  0.2685 -0.0079  0.1456
11619SOL    HW139704   7.860   5.164   2.584 -0.2778  0.5159  1.2499
11619SOL    HW239705   7.965   5.169   2.693  1.2172 -0.1546 -0.1258
11620SOL     OW39706   4.416   2.853   7.096  0.1631  0.0921 -0.3616
11620SOL    HW139707   4.420   2.760   7.119 -0.1081 -0.0188 -0.7564
11620SOL    HW239708   4.335   2.885   7.137  0.1587  0.1099 -0.3840
11621SOL     OW39709   7.545   3.139   0.376 -0.4681  0.5811  0.6580
11621SOL    HW139710   7.584   3.077   0.438 -0.0851  1.2330  1.0954
11621SOL    HW239711   7.605   3.139   0.301 -0.2959  0.6479  0.7932
11622SOL     OW39712   1.049   1.678   1.039  0.0328 -0.0583 -0.3472
11622SOL    HW139713   1.055   1.682   1.135  1.8253 -1.0195 -0.3772
11622SOL    HW239714   0.956   1.664   1.022 -0.2215 -0.6172  1.2853
11623SOL     OW39715   5.983   4.103   2.876  0.2385  0.1277  0.0846
11623SOL    HW139716   6.009   4.015   2.851 -0.9994  0.3851 -2.4008
11623SOL    HW239717   5.970   4.098   2.971  2.5104 -1.6903  0.3862
11624SOL     OW39718   7.541   8.173   2.572  0.5753 -0.3027  0.6393
11624SOL    HW139719   7.458   8.157   2.617 -0.7094 -0.0139 -1.4904
11624SOL    HW239720   7.571   8.086   2.546  0.3973 -0.3256  0.5082
11625SOL     OW39721   5.964   5.443   7.324  0.0318 -0.4788  0.3009
11625SOL    HW139722   6.011   5.367   7.359  0.2043 -0.9331 -0.8730
11625SOL    HW239723   5.997   5.452   7.235  0.8763  1.7071  0.7905
11626SOL     OW39724   0.665   4.408   2.440  0.4721 -0.7863 -0.8041
11626SOL    HW139725   0.634   4.493   2.409  1.5984 -1.1038 -2.9985
11626SOL    HW239726   0.614   4.344   2.390  0.7006 -1.3825 -0.2934
11627SOL     OW39727   0.982   1.218   7.022 -0.3482 -0.1562 -0.7615
11627SOL    HW139728   0.917   1.233   7.090  0.5421 -0.0528  0.0853
11627SOL    HW239729   1.050   1.283   7.039 -0.2769  0.1180 -1.9742
11628SOL     OW39730   7.885   3.528   9.244  0.3488 -0.1230 -0.3490
11628SOL    HW139731   7.972   3.568   9.249  0.4866 -0.5927  2.0285
11628SOL    HW239732   7.899   3.436   9.268 -0.9323  0.0836  1.4196
11629SOL     OW39733   1.322   2.405   7.296  0.0699  0.0973  0.4158
11629SOL    HW139734   1.238   2.450   7.285 -0.4268 -1.0355 -0.7713
11629SOL    HW239735   1.367   2.418   7.213 -0.3548 -2.0243 -0.2168
11630SOL     OW39736   7.087   9.737   0.373  0.2335 -0.3845  0.1330
11630SOL    HW139737   7.180   9.733   0.349  0.5708  3.6440  0.1232
11630SOL    HW239738   7.084   9.699   0.461  1.8765 -0.6013  0.1386
11631SOL     OW39739   5.023   3.971   2.931 -0.3203 -0.1025 -0.2064
11631SOL    HW139740   5.037   4.047   2.875 -0.8151 -1.4969 -2.3536
11631SOL    HW239741   5.109   3.954   2.970 -0.2333  1.5831  0.3845
11632SOL     OW39742   1.321   7.288   4.001 -0.8506  0.5205 -0.2938
11632SOL    HW139743   1.270   7.361   4.036 -1.4962  0.0533 -0.2379
11632SOL    HW239744   1.391   7.273   4.065 -1.7552 -0.0425  0.5905
11633SOL     OW39745   0.181   8.069   1.966 -0.2146 -0.1609  0.0987
11633SOL    HW139746   0.188   8.118   1.883  1.2482 -0.0063  0.2887
11633SOL    HW239747   0.103   8.106   2.009 -1.6866 -1.0125 -1.6743
11634SOL     OW39748   0.836   7.110   8.959  0.3388  0.9787  0.2354
11634SOL    HW139749   0.776   7.124   9.032  0.9366 -0.0598  0.9551
11634SOL    HW239750   0.816   7.022   8.927  1.8453  0.3496  0.8979
11635SOL     OW39751   0.526   2.308   1.496 -0.3934 -0.0776  0.4566
11635SOL    HW139752   0.513   2.310   1.591  0.2044 -1.1156  0.5804
11635SOL    HW239753   0.607   2.356   1.482 -0.2720 -0.2589  0.5238
11636SOL     OW39754   8.372   9.263   9.711  0.1829 -0.5394  0.2713
11636SOL    HW139755   8.324   9.236   9.633 -0.5001  0.1039  0.4476
11636SOL    HW239756   8.450   9.208   9.713 -0.3123 -1.2689 -0.2958
11637SOL     OW39757   1.087   9.697   3.258 -0.4196 -0.7341  0.3327
11637SOL    HW139758   1.179   9.671   3.250 -0.3452 -0.2684 -0.5399
11637SOL    HW239759   1.040   9.641   3.196 -0.5129 -0.0394 -0.2436
11638SOL     OW39760   4.795   0.885   2.489 -0.1494  0.2166  0.4624
11638SOL    HW139761   4.844   0.896   2.570 -0.9154  1.2486  0.8038
11638SOL    HW239762   4.757   0.971   2.472  1.4650  0.5464 -1.9742
11639SOL     OW39763   4.676   2.211   1.956 -0.2196  0.2773 -0.2410
11639SOL    HW139764   4.729   2.176   1.885  1.6122  0.7255  0.8405
11639SOL    HW239765   4.652   2.134   2.008  0.3929  0.1839 -0.0868
11640SOL     OW39766   0.091   2.660   0.973 -0.5806 -0.2758  0.0594
11640SOL    HW139767   0.140   2.599   1.029 -0.5753 -0.9037 -0.6108
11640SOL    HW239768   0.029   2.605   0.927 -0.3206  0.1712 -0.8388
11641SOL     OW39769   3.471   7.612   1.161  0.0899  0.3795  0.2609
11641SOL    HW139770   3.400   7.644   1.216 -0.4034  2.2294 -1.2929
11641SOL    HW239771   3.526   7.690   1.147  2.7719 -1.0996  1.8261
11642SOL     OW39772   7.661   4.624   3.133 -0.3634  0.0514 -0.4284
11642SOL    HW139773   7.617   4.541   3.154  0.1637 -0.6799 -2.0429
11642SOL    HW239774   7.626   4.649   3.047 -0.9820  1.8662  0.3074
11643SOL     OW39775   7.385   9.441   1.542  0.5700 -0.8741  0.3107
11643SOL    HW139776   7.398   9.372   1.607 -0.5253  1.4228  3.1838
11643SOL    HW239777   7.456   9.503   1.559 -0.0498  0.0405 -0.3725
11644SOL     OW39778   8.005   0.636   0.798  0.1891 -0.7268  0.2823
11644SOL    HW139779   7.923   0.670   0.834  0.3509 -0.8213  0.7523
11644SOL    HW239780   8.070   0.704   0.817  0.6566 -1.5569  1.8362
11645SOL     OW39781   2.785   2.759   3.345 -0.2797  0.0224 -0.2644
11645SOL    HW139782   2.711   2.699   3.352 -0.1089 -0.2149 -0.4742
11645SOL    HW239783   2.853   2.719   3.399 -0.9004  1.1680  1.4461
11646SOL     OW39784   4.262   4.694   9.110 -0.7174 -0.2742 -0.3619
11646SOL    HW139785   4.230   4.643   9.036 -0.8939 -2.6240  1.2209
11646SOL    HW239786   4.198   4.764   9.121 -1.4548 -0.7310 -1.5436
11647SOL     OW39787   2.710   0.612   7.476 -0.2996 -0.6732  0.2804
11647SOL    HW139788   2.690   0.526   7.510 -1.1917  0.3765  2.5947
11647SOL    HW239789   2.677   0.673   7.542 -0.0126  1.4625 -1.4194
11648SOL     OW39790   8.717   6.819   1.478  0.2807 -0.3955 -0.4338
11648SOL    HW139791   8.635   6.817   1.429  0.2856  0.5803 -0.5158
11648SOL    HW239792   8.773   6.878   1.428  1.6440 -2.3208 -1.2698
11649SOL     OW39793   7.335   2.777   0.943  0.1274  0.0309 -0.4022
11649SOL    HW139794   7.386   2.714   0.893 -0.4460  0.7050 -1.8674
11649SOL    HW239795   7.340   2.859   0.894 -0.7186  0.6397  0.4623
11650SOL     OW39796   9.253   0.676   8.744  0.7106 -0.1274 -0.0180
11650SOL    HW139797   9.332   0.684   8.798  1.4791 -0.7195 -1.0328
11650SOL    HW239798   9.284   0.643   8.660 -0.8028 -1.9456  0.0683
11651SOL     OW39799   1.363   4.795   4.923  0.3307 -0.0934 -0.3041
11651SOL    HW139800   1.437   4.754   4.880  0.3314  0.6109 -0.9942
11651SOL    HW239801   1.296   4.726   4.926  1.6167 -1.3458  2.0528
11652SOL     OW39802   9.230   4.633   4.244 -0.0995 -0.2653  0.1055
11652SOL    HW139803   9.217   4.705   4.306  0.4639  0.8551 -1.0305
11652SOL    HW239804   9.310   4.656   4.197  0.5004 -2.0219  0.2030
11653SOL     OW39805   5.090   3.974   3.974  0.4005  0.0434 -0.5686
11653SOL    HW139806   5.096   4.069   3.967  2.2921 -0.0331 -0.3730
11653SOL    HW239807   5.068   3.958   4.066 -0.3466  0.2821 -0.6978
11654SOL     OW39808   0.149   9.053   3.893 -0.0513  0.6735  0.0372
11654SOL    HW139809   0.240   9.081   3.903  0.1881 -0.1976  0.4808
11654SOL    HW239810   0.150   8.992   3.819 -0.2451  0.5554  0.1294
11655SOL     OW39811   7.232   5.669   5.511  0.1752  0.2981 -0.6533
11655SOL    HW139812   7.196   5.581   5.521 -1.3839  1.0239  0.6200
11655SOL    HW239813   7.155   5.725   5.505  1.1241  1.5397 -2.1678
11656SOL     OW39814   5.441   7.213   7.458 -0.1020  0.1073  0.2984
11656SOL    HW139815   5.356   7.256   7.447 -0.0894 -0.0350 -0.4296
11656SOL    HW239816   5.498   7.282   7.492 -0.3124  0.4267  0.0111
11657SOL     OW39817   3.078   0.464   4.255 -0.0317 -0.0133 -0.5559
11657SOL    HW139818   3.112   0.393   4.310 -0.0256  0.5749  0.2089
11657SOL    HW239819   3.134   0.462   4.177 -1.6698 -2.5692 -1.8253
11658SOL     OW39820   0.346   5.606   8.365 -0.5256 -0.0489 -0.3932
11658SOL    HW139821   0.391   5.651   8.294 -0.3940  1.1166  0.4021
11658SOL    HW239822   0.253   5.609   8.340 -0.4761  0.3127 -0.5460
11659SOL     OW39823   5.524   7.329   4.370  0.1864 -0.2462 -0.3377
11659SOL    HW139824   5.496   7.374   4.290  1.1466  1.0044 -0.0162
11659SOL    HW239825   5.513   7.236   4.351 -0.4420  0.0658 -1.5937
11660SOL     OW39826   1.861   0.554   9.205  0.1284  0.2826  0.0781
11660SOL    HW139827   1.824   0.577   9.120 -1.6600  0.5771  0.8923
11660SOL    HW239828   1.853   0.634   9.257 -2.0130 -0.7891  1.5522
11661SOL     OW39829   6.430   6.365   8.772 -0.0711 -0.1045  0.0009
11661SOL    HW139830   6.506   6.399   8.724  0.4632  0.1985  1.0298
11661SOL    HW239831   6.409   6.434   8.834  2.1477 -2.1906  3.4107
11662SOL     OW39832   8.978   4.020   8.937 -0.0415  0.0965 -0.0200
11662SOL    HW139833   9.008   4.097   8.985  1.5272  0.5712 -1.6678
11662SOL    HW239834   9.037   4.013   8.862 -1.9294 -1.0274 -1.5219
11663SOL     OW39835   9.183   1.049   5.391  0.4170 -1.3066 -0.0972
11663SOL    HW139836   9.266   1.036   5.437  0.2285  1.3610  1.1311
11663SOL    HW239837   9.151   1.134   5.421 -1.8739 -1.4113 -1.9464
11664SOL     OW39838   6.581   8.741   1.486  0.1459  0.1622 -0.0826
11664SOL    HW139839   6.487   8.760   1.489  0.0029 -0.2870 -1.3143
11664SOL    HW239840   6.611   8.782   1.405  0.8418 -0.4629 -0.1451
11665SOL     OW39841   4.873   0.272   5.104 -0.4450 -0.9134  0.1589
11665SOL    HW139842   4.959   0.300   5.137 -0.9312 -0.2156  0.8707
11665SOL    HW239843   4.820   0.258   5.183 -1.4159  0.1059 -0.2753
11666SOL     OW39844   0.871   0.054   7.705 -0.1326 -0.6459 -0.7489
11666SOL    HW139845   0.838   0.040   7.793  1.0010  2.8024  0.4022
11666SOL    HW239846   0.802   0.104   7.661  0.5932  0.4538 -0.6803
11667SOL     OW39847   6.438   0.744   8.221 -0.2131  0.0705  0.4446
11667SOL    HW139848   6.531   0.762   8.209 -0.0184 -0.4008  1.1218
11667SOL    HW239849   6.434   0.698   8.305 -1.2236  1.4270  1.1842
11668SOL     OW39850   8.218   8.343   7.205 -0.3066  0.4146 -0.0507
11668SOL    HW139851   8.226   8.313   7.114 -0.9546 -0.6458  0.2204
11668SOL    HW239852   8.274   8.420   7.210  0.4664 -0.0513 -1.1165
11669SOL     OW39853   8.816   7.774   0.811  0.4616  0.1805  0.9685
11669SOL    HW139854   8.739   7.733   0.850 -0.8024  1.6114  0.0827
11669SOL    HW239855   8.880   7.778   0.883 -0.6161 -0.2002  1.9762
11670SOL     OW39856   5.511   2.223   7.021 -0.2568  0.0124  0.1739
11670SOL    HW139857   5.595   2.199   6.983 -0.4799 -1.2693  0.4456
11670SOL    HW239858   5.530   2.241   7.113 -0.6072 -2.8340  0.9172
11671SOL     OW39859   5.076   0.826   8.589  0.3249  0.0384 -0.2247
11671SOL    HW139860   4.990   0.807   8.551  0.3058 -1.2189  0.3946
11671SOL    HW239861   5.057   0.849   8.680  0.6546 -0.5418 -0.0014
11672SOL     OW39862   9.339   0.406   3.273  0.4552 -0.1119  0.1077
11672SOL    HW139863   9.296   0.350   3.338  0.6040 -0.2078  0.1259
11672SOL    HW239864   9.425   0.366   3.261 -0.0825 -0.9500 -1.2315
11673SOL     OW39865   2.875   0.468   6.517 -0.0181 -0.5557  0.4444
11673SOL    HW139866   2.869   0.389   6.570  0.2808 -1.4427 -0.7899
11673SOL    HW239867   2.893   0.538   6.580  2.4094 -1.8650  1.3289
11674SOL     OW39868   3.865   3.615   9.528  0.0804  0.1270 -0.2613
11674SOL    HW139869   3.808   3.680   9.487 -0.0321 -0.7110 -1.4912
11674SOL    HW239870   3.848   3.624   9.622 -2.3193 -0.2893 -0.5974
11675SOL     OW39871   3.600   3.765   3.659 -0.2594  0.3736  0.1347
11675SOL    HW139872   3.638   3.763   3.571  1.5507  0.1403  0.8902
11675SOL    HW239873   3.593   3.858   3.680  1.0469  0.4114  0.4501
11676SOL     OW39874   4.008   2.110   0.538 -0.3476 -0.3655  0.2778
11676SOL    HW139875   4.103   2.096   0.531 -0.5271 -1.4007 -0.2677
11676SOL    HW239876   3.976   2.033   0.584 -0.9920 -0.2915 -0.0321
11677SOL     OW39877   0.256   0.706   2.153 -0.1290  0.3277  0.4584
11677SOL    HW139878   0.237   0.705   2.059  1.0030 -0.7648  0.2281
11677SOL    HW239879   0.174   0.737   2.193 -1.1568 -0.6892 -0.7608
11678SOL     OW39880   4.773   6.701   3.772  0.4328  0.4953  0.0798
11678SOL    HW139881   4.694   6.648   3.778  1.0622 -0.8318 -2.0761
11678SOL    HW239882   4.742   6.791   3.762 -0.8059  0.0422 -0.3638
11679SOL     OW39883   8.855   1.997   2.934 -0.0139 -0.4229  0.2420
11679SOL    HW139884   8.773   2.031   2.897  0.6230  0.3778 -0.4654
11679SOL    HW239885   8.923   2.026   2.874  0.7167 -1.8895  0.3152
11680SOL     OW39886   4.863   6.899   9.564  0.1410  0.1065  0.4124
11680SOL    HW139887   4.771   6.879   9.581  0.6263 -2.1261  0.8708
11680SOL    HW239888   4.864   6.989   9.534 -2.0529  0.6091  1.6273
11681SOL     OW39889   7.401   5.678   8.909 -0.1367 -0.2010  0.0343
11681SOL    HW139890   7.372   5.605   8.964 -2.3961  1.2463  0.9038
11681SOL    HW239891   7.451   5.735   8.967 -1.3765  0.6581  0.2907
11682SOL     OW39892   6.036   9.601   2.910 -0.0030 -0.3987  0.2533
11682SOL    HW139893   6.117   9.636   2.946  1.0350 -0.8255 -1.5584
11682SOL    HW239894   5.983   9.678   2.890 -0.3224 -0.1364  1.9373
11683SOL     OW39895   8.571   9.347   5.187 -0.2404  0.4955  0.1093
11683SOL    HW139896   8.601   9.258   5.172 -2.5489 -0.6484  1.6328
11683SOL    HW239897   8.631   9.383   5.252 -1.1053 -1.1486  1.9111
11684SOL     OW39898   8.616   2.288   7.586  0.4691  0.3970  0.3039
11684SOL    HW139899   8.583   2.202   7.560 -1.9441  1.2982  0.1174
11684SOL    HW239900   8.635   2.332   7.503  1.5546  0.1197  0.3950
11685SOL     OW39901   7.401   1.078   0.484  0.2692 -0.0468  1.0551
11685SOL    HW139902   7.436   0.993   0.512  0.9552  0.5886  2.1630
11685SOL    HW239903   7.467   1.142   0.510 -0.2474  0.8516  0.2522
11686SOL     OW39904   1.584   4.970   5.956 -0.3500  0.3118 -0.3620
11686SOL    HW139905   1.498   4.932   5.969 -0.6855  1.1988  0.1652
11686SOL    HW239906   1.582   5.050   6.009  1.4513 -0.6252  1.2492
11687SOL     OW39907   2.550   4.290   1.243  0.4046 -0.1175  0.4538
11687SOL    HW139908   2.545   4.205   1.199 -1.7956 -2.0826  3.9779
11687SOL    HW239909   2.643   4.301   1.262  0.7846 -1.5570 -0.3920
11688SOL     OW39910   2.964   0.259   9.663  0.7428  0.0656  0.7875
11688SOL    HW139911   2.870   0.255   9.682 -0.3482 -2.6968 -3.5323
11688SOL    HW239912   2.999   0.176   9.696 -0.1948 -2.4809 -3.7135
11689SOL     OW39913   5.548   2.284   3.798 -0.2643 -0.4389  0.3326
11689SOL    HW139914   5.524   2.376   3.788 -0.7583 -0.6157 -0.1885
11689SOL    HW239915   5.466   2.240   3.820 -0.2344 -0.8975 -0.4188
11690SOL     OW39916   3.132   6.734   2.624 -0.1197  0.0996 -0.1460
11690SOL    HW139917   3.177   6.658   2.586 -0.3277  0.6811 -1.6379
11690SOL    HW239918   3.039   6.710   2.623  0.0037 -0.5784  1.7006
11691SOL     OW39919   1.491   7.932   2.754 -0.7356  0.4767 -0.3551
11691SOL    HW139920   1.396   7.935   2.744 -0.5087  1.9380 -3.0404
11691SOL    HW239921   1.512   7.839   2.762 -2.2480 -0.0149 -1.6607
11692SOL     OW39922   6.224   2.070   5.824  0.2244  0.1235 -0.2863
11692SOL    HW139923   6.167   2.025   5.885 -0.0733  1.3348  0.3624
11692SOL    HW239924   6.308   2.024   5.830 -0.1514 -0.5139  0.1308
11693SOL     OW39925   0.869   1.518   4.325 -0.0256  0.7239  0.5180
11693SOL    HW139926   0.867   1.447   4.389  2.1004  0.5388  0.4300
11693SOL    HW239927   0.910   1.591   4.372 -0.8898  1.4670  0.1617
11694SOL     OW39928   2.573   8.303   3.526 -0.6161 -0.0482 -0.7184
11694SOL    HW139929   2.494   8.356   3.541 -0.9308  0.4828 -3.5496
11694SOL    HW239930   2.547   8.243   3.456  0.6108 -2.0391  0.4783
11695SOL     OW39931   6.895   7.859   6.419 -0.1669  0.2076 -0.1262
11695SOL    HW139932   6.894   7.951   6.392 -0.6905  0.3339  0.3084
11695SOL    HW239933   6.974   7.850   6.472  0.2009  0.2605 -0.6614
11696SOL     OW39934   9.099   2.771   8.881  0.3295 -0.0250 -0.2774
11696SOL    HW139935   9.189   2.759   8.911  0.3093 -2.8103 -1.0683
11696SOL    HW239936   9.094   2.723   8.798 -1.6993  0.6894 -0.6338
11697SOL     OW39937   7.001   5.757   0.811  0.0313 -0.0850 -0.4241
11697SOL    HW139938   7.032   5.798   0.730 -0.8868  0.7986 -0.3488
11697SOL    HW239939   7.050   5.675   0.816  1.6538  0.8227 -0.7690
11698SOL     OW39940   2.473   8.777   8.238 -0.5542  0.1172 -0.3157
11698SOL    HW139941   2.471   8.744   8.328  0.1095  0.8196 -0.0316
11698SOL    HW239942   2.536   8.720   8.194 -0.2103  0.3318 -0.1038
11699SOL     OW39943   2.982   1.142   7.367 -0.8540  0.6986  0.1979
11699SOL    HW139944   2.958   1.088   7.442 -0.8938  0.9283  0.3518
11699SOL    HW239945   3.066   1.180   7.391 -0.8014  0.6645  0.0685
11700SOL     OW39946   6.599   6.925   2.217 -0.7432  0.3162  0.0507
11700SOL    HW139947   6.521   6.981   2.226 -0.3380  0.9773 -0.4368
11700SOL    HW239948   6.576   6.844   2.263 -0.5848  1.6483  2.6329
11701SOL     OW39949   9.694   2.340   0.666 -0.4470 -0.0300  0.7684
11701SOL    HW139950   9.638   2.309   0.594 -1.0864 -0.0664  1.2743
11701SOL    HW239951   9.728   2.424   0.635 -0.5896 -0.1198  0.3598
11702SOL     OW39952   0.212   8.171   4.261 -0.1123  0.2597  0.2590
11702SOL    HW139953   0.303   8.161   4.234  0.2137  0.1725  1.3637
11702SOL    HW239954   0.186   8.086   4.295 -1.0887 -0.1508 -1.3945
11703SOL     OW39955   1.429   9.247   6.658  0.3757 -0.6340 -0.3451
11703SOL    HW139956   1.420   9.341   6.642  3.1021 -0.7339 -3.7481
11703SOL    HW239957   1.340   9.213   6.656 -0.5113  1.5796 -1.7393
11704SOL     OW39958   8.637   3.608   5.997 -0.0671  0.1394  0.2964
11704SOL    HW139959   8.553   3.645   6.023 -1.4379 -2.3512 -0.2994
11704SOL    HW239960   8.618   3.517   5.975  2.6710 -0.3275 -0.5620
11705SOL     OW39961   7.524   5.234   3.866 -0.3654  0.2806  0.7369
11705SOL    HW139962   7.442   5.194   3.837 -2.0651  3.2881  0.9991
11705SOL    HW239963   7.576   5.241   3.786 -2.0093  1.7959 -0.2903
11706SOL     OW39964   6.507   1.243   1.736  0.3315 -0.0446  0.2614
11706SOL    HW139965   6.553   1.258   1.654 -0.2156 -1.7763 -0.4128
11706SOL    HW239966   6.576   1.245   1.803  1.1406 -0.7707 -0.5152
11707SOL     OW39967   2.827   1.685   9.305 -0.1572 -0.1477  0.0558
11707SOL    HW139968   2.798   1.669   9.215  0.5811  1.6393 -0.5429
11707SOL    HW239969   2.772   1.758   9.336 -1.5974 -1.8215  1.7138
11708SOL     OW39970   0.802   1.756   9.725  0.3476 -0.8039 -0.9862
11708SOL    HW139971   0.758   1.730   9.806  1.9826  0.7353  0.4888
11708SOL    HW239972   0.758   1.836   9.698  1.1855 -0.1183 -0.3723
11709SOL     OW39973   0.426   7.427   2.345  0.2217 -0.1065 -0.5527
11709SOL    HW139974   0.454   7.406   2.434 -0.0715  1.6180 -0.0122
11709SOL    HW239975   0.330   7.427   2.349  0.1520 -1.6280 -1.3086
11710SOL     OW39976   4.686   3.847   8.799  0.0053  0.1338  0.2442
11710SOL    HW139977   4.772   3.890   8.804  0.7154 -1.3321  1.2081
11710SOL    HW239978   4.686   3.805   8.713 -0.0660  0.7393 -0.0618
11711SOL     OW39979   4.645   8.648   3.636  0.8203 -0.1203  0.3153
11711SOL    HW139980   4.731   8.618   3.667  0.7348 -0.6684  0.0285
11711SOL    HW239981   4.651   8.642   3.541  0.3501 -0.4803  0.3081
11712SOL     OW39982   1.666   7.492   6.154  0.1959 -0.2295  0.2701
11712SOL    HW139983   1.728   7.489   6.226  1.3546 -0.1735 -0.6988
11712SOL    HW239984   1.603   7.423   6.173  1.4980 -1.4057  0.4466
11713SOL     OW39985   2.063   8.687   1.478 -0.4168  0.3106 -0.5054
11713SOL    HW139986   1.976   8.650   1.496 -0.4894  1.6907  2.8453
11713SOL    HW239987   2.045   8.767   1.429 -0.8904 -0.2379 -1.2430
11714SOL     OW39988   5.023   2.432   6.971  0.4029 -0.1652 -0.1790
11714SOL    HW139989   4.993   2.343   6.951 -0.1657  0.7707 -4.4278
11714SOL    HW239990   5.118   2.429   6.961  0.3691 -0.2619 -0.4691
11715SOL     OW39991   9.403   6.067   8.817  0.1082 -0.6947 -0.3585
11715SOL    HW139992   9.328   6.125   8.805  0.0878 -0.6202  0.1123
11715SOL    HW239993   9.369   5.993   8.866  1.1902  1.3533  3.8913
11716SOL     OW39994   7.691   8.415   0.322  0.0792  0.1479  0.1893
11716SOL    HW139995   7.623   8.406   0.389  1.7079 -1.5459  1.7350
11716SOL    HW239996   7.679   8.339   0.265  1.0733 -0.5865  0.9159
11717SOL     OW39997   7.590   5.042   5.230 -0.1485 -0.7036  0.5152
11717SOL    HW139998   7.573   4.973   5.295  0.4171 -1.6435 -0.2951
11717SOL    HW239999   7.685   5.039   5.218 -0.4191 -2.0114 -1.8643
11718SOL     OW40000   4.830   6.686   2.333  0.0040 -0.4430  0.3069
11718SOL    HW140001   4.828   6.599   2.371  3.0174 -0.7669 -0.0674
11718SOL    HW240002   4.895   6.734   2.384 -0.3829  1.0650 -0.5378
11719SOL     OW40003   4.323   7.750   5.649  0.2607 -0.2457  0.0444
11719SOL    HW140004   4.365   7.765   5.734 -0.6321 -1.0345  0.6557
11719SOL    HW240005   4.340   7.657   5.630 -0.7984 -0.4735  0.1048
11720SOL     OW40006   4.748   8.935   6.563 -0.0398  0.2404  0.8973
11720SOL    HW140007   4.765   9.008   6.623  1.2686 -0.0200  0.8654
11720SOL    HW240008   4.826   8.881   6.568 -0.2510 -0.2321 -0.4274
11721SOL     OW40009   6.100   5.384   4.053 -0.5854  0.2414  0.1510
11721SOL    HW140010   6.005   5.394   4.041 -0.6387 -0.8231 -0.4280
11721SOL    HW240011   6.130   5.472   4.076 -1.4919  0.9463 -1.1820
11722SOL     OW40012   7.580   4.360   3.190  0.3020  0.1962  0.5115
11722SOL    HW140013   7.634   4.368   3.111  0.5110  0.4331  0.6765
11722SOL    HW240014   7.528   4.281   3.176  1.8270 -0.9437  1.0307
11723SOL     OW40015   3.096   3.763   9.103  0.2702 -0.5164 -0.3872
11723SOL    HW140016   3.013   3.726   9.133 -0.1406  2.1257  2.2512
11723SOL    HW240017   3.077   3.798   9.016 -1.1193 -0.8300 -0.2269
11724SOL     OW40018   9.637   8.798   8.960  0.4715  0.9266 -0.2071
11724SOL    HW140019   9.642   8.793   8.864 -2.1238  0.5643 -0.4000
11724SOL    HW240020   9.601   8.713   8.986 -0.6106  1.6898  0.8912
11725SOL     OW40021   6.662   8.223   7.712  0.1039 -0.4438  0.3288
11725SOL    HW140022   6.605   8.248   7.784  0.4921 -1.3066  0.9609
11725SOL    HW240023   6.657   8.128   7.709 -2.1227 -0.3589 -2.6538
11726SOL     OW40024   2.506   9.126   0.708  0.5402  0.1364 -0.3943
11726SOL    HW140025   2.557   9.048   0.728  0.1984  0.4280  1.8231
11726SOL    HW240026   2.480   9.115   0.616  2.8905 -0.9468 -0.9878
11727SOL     OW40027   7.693   3.952   9.708  0.2535  0.3607  0.5720
11727SOL    HW140028   7.626   3.907   9.656  2.2182 -1.1000 -0.8198
11727SOL    HW240029   7.729   4.018   9.650 -0.2222  1.4557  1.4727
11728SOL     OW40030   8.489   6.202   1.586 -0.7790 -0.1731  0.4033
11728SOL    HW140031   8.469   6.109   1.574  1.8110 -0.6387 -1.2892
11728SOL    HW240032   8.482   6.239   1.498  2.4087  0.1901  0.1932
11729SOL     OW40033   0.753   4.194   4.544  0.7010 -0.0338  0.3400
11729SOL    HW140034   0.697   4.212   4.620 -1.0818 -0.2383 -0.8706
11729SOL    HW240035   0.792   4.279   4.523 -3.1379  1.4395 -1.7941
11730SOL     OW40036   6.109   8.394   0.799 -0.2287  0.2955  0.1606
11730SOL    HW140037   6.097   8.382   0.893 -1.2090  1.2319  0.1724
11730SOL    HW240038   6.203   8.382   0.785 -0.2611 -1.2306  1.0251
11731SOL     OW40039   3.235   2.818   7.310  0.1000 -0.1732  0.1193
11731SOL    HW140040   3.309   2.852   7.359 -0.4522  1.0508  0.1415
11731SOL    HW240041   3.161   2.822   7.372 -0.0281 -1.2880  0.0740
11732SOL     OW40042   4.815   9.689   2.895 -0.3195 -0.0885 -0.3024
11732SOL    HW140043   4.748   9.622   2.909  0.3032 -0.6875 -0.1411
11732SOL    HW240044   4.831   9.725   2.982 -0.4292  0.0639 -0.3432
11733SOL     OW40045   6.137   8.694   6.751 -0.6609 -0.1754  0.1399
11733SOL    HW140046   6.182   8.610   6.761 -0.2832 -0.5457 -3.2711
11733SOL    HW240047   6.050   8.670   6.719 -1.1976  0.6988  0.9179
11734SOL     OW40048   0.801   3.340   6.225  0.7336  0.1926 -0.3104
11734SOL    HW140049   0.784   3.431   6.247  0.8135  0.5866 -1.7486
11734SOL    HW240050   0.783   3.334   6.131  2.7140 -0.7552 -0.7023
11735SOL     OW40051   8.596   3.056   5.421 -0.4839 -0.5137  0.7465
11735SOL    HW140052   8.672   3.112   5.405 -0.0893 -0.8585  1.3775
11735SOL    HW240053   8.524   3.117   5.435 -0.3491 -0.1830  0.0518
11736SOL     OW40054   6.949   2.037   8.303  0.1439 -0.2734  0.0545
11736SOL    HW140055   6.904   2.005   8.381  1.3183  1.2213  1.4159
11736SOL    HW240056   6.879   2.054   8.240 -0.6908 -3.6203 -0.1451
11737SOL     OW40057   9.527   4.505   3.922 -0.2295 -0.6384  0.2387
11737SOL    HW140058   9.572   4.457   3.992 -0.1832  0.6437  1.1258
11737SOL    HW240059   9.554   4.596   3.934 -1.8121 -0.0718 -0.1734
11738SOL     OW40060   8.867   4.815   1.226  0.0332  0.9151  0.0716
11738SOL    HW140061   8.953   4.775   1.221  1.4837  3.8760 -2.6549
11738SOL    HW240062   8.884   4.904   1.259 -2.1376  1.2225  0.5183
11739SOL     OW40063   3.640   2.799   4.939 -0.1665 -0.1488 -0.1173
11739SOL    HW140064   3.699   2.768   5.008  1.2343  0.4795 -0.9752
11739SOL    HW240065   3.679   2.767   4.858 -0.1224  1.5871 -0.8290
11740SOL     OW40066   0.787   8.904   0.373 -0.0369 -0.1275 -0.6925
11740SOL    HW140067   0.762   8.882   0.284  1.6387  0.8486 -1.4340
11740SOL    HW240068   0.835   8.827   0.404  1.0794  0.2800 -1.3533
11741SOL     OW40069   5.638   8.194   7.237 -0.3857 -0.2139 -0.0965
11741SOL    HW140070   5.697   8.215   7.165 -1.7047 -3.7759 -2.5387
11741SOL    HW240071   5.695   8.179   7.312  1.0776  3.2445 -0.3149
11742SOL     OW40072   5.005   1.789   8.250  0.4546 -0.0506 -0.1783
11742SOL    HW140073   4.974   1.716   8.196  1.9072 -0.5626 -0.3865
11742SOL    HW240074   4.966   1.773   8.336  0.9938 -1.2839 -0.1340
11743SOL     OW40075   0.430   5.708   6.713  0.6428  0.4193  0.3086
11743SOL    HW140076   0.494   5.654   6.666 -0.8782 -1.6497  0.5114
11743SOL    HW240077   0.420   5.786   6.657  1.2790 -0.4926 -1.1435
11744SOL     OW40078   7.851   9.596   9.635  0.0346 -0.5041 -0.9479
11744SOL    HW140079   7.932   9.589   9.684 -0.8082  0.8164  0.7522
11744SOL    HW240080   7.793   9.647   9.691 -1.4468 -0.0242 -2.7864
11745SOL     OW40081   7.053   4.499   7.679 -0.0963 -0.2529  0.8941
11745SOL    HW140082   7.059   4.469   7.770 -0.2822 -2.8002  0.1147
11745SOL    HW240083   6.970   4.547   7.675  0.0052  0.0621  2.0761
11746SOL     OW40084   8.291   8.888   9.444  0.3878 -0.2461  0.3352
11746SOL    HW140085   8.334   8.803   9.436 -0.6009 -0.7209 -0.1282
11746SOL    HW240086   8.248   8.901   9.359  0.4166  0.6514  0.4545
11747SOL     OW40087   4.562   3.582   5.280  0.1204  0.1108 -0.0218
11747SOL    HW140088   4.533   3.615   5.196  2.0808  1.3563 -0.2815
11747SOL    HW240089   4.542   3.488   5.277 -0.8797  0.3364 -1.3864
11748SOL     OW40090   1.906   3.506   9.258 -0.4812 -0.4119  0.0878
11748SOL    HW140091   1.992   3.480   9.226  0.0592  0.9166  0.4036
11748SOL    HW240092   1.908   3.486   9.352  0.0018  0.8683  0.3678
11749SOL     OW40093   5.264   5.228   6.397  0.3904  0.4886 -0.0755
11749SOL    HW140094   5.173   5.213   6.369  0.3249  0.1493  0.3125
11749SOL    HW240095   5.298   5.140   6.414  0.7580  0.6240 -0.1032
11750SOL     OW40096   3.676   8.131   7.611  0.1661  0.3219 -0.3859
11750SOL    HW140097   3.692   8.123   7.705 -1.0254  2.0229  0.0143
11750SOL    HW240098   3.738   8.197   7.581 -0.4061  0.8197 -0.4951
11751SOL     OW40099   9.446   2.609   9.284 -0.1114 -0.2748 -0.0144
11751SOL    HW140100   9.379   2.577   9.345  0.5107 -0.5730  0.5250
11751SOL    HW240101   9.451   2.541   9.217 -0.0897 -0.4298  0.1432
11752SOL     OW40102   3.934   1.658   4.639 -0.1154 -0.0082 -0.4824
11752SOL    HW140103   3.966   1.579   4.682  0.1660 -0.1764 -0.9865
11752SOL    HW240104   3.852   1.679   4.684  1.8285  1.8755  2.5725
11753SOL     OW40105   3.081   9.681   3.768 -0.1521 -0.1647  0.2177
11753SOL    HW140106   3.011   9.675   3.834  1.0300 -1.7540  1.3938
11753SOL    HW240107   3.143   9.613   3.793  1.6645  0.9813 -1.0002
11754SOL     OW40108   5.280   5.078   3.749  0.1926  0.1441  0.0240
11754SOL    HW140109   5.324   5.033   3.821 -2.6761 -1.2366  1.0445
11754SOL    HW240110   5.203   5.118   3.789  0.0587  1.8794 -1.8007
11755SOL     OW40111   1.128   0.493   1.517 -0.2209  0.3927  0.2512
11755SOL    HW140112   1.184   0.566   1.489 -0.0353  0.5898  1.1130
11755SOL    HW240113   1.070   0.530   1.583 -0.2718 -0.1876  0.5419
11756SOL     OW40114   1.341   8.281   5.655  0.0580  0.0337  0.2787
11756SOL    HW140115   1.400   8.318   5.721  2.8180 -1.3435 -1.1909
11756SOL    HW240116   1.357   8.334   5.577  0.4137 -1.1743 -0.5038
11757SOL     OW40117   7.233   1.029   5.214  0.3215 -0.5852 -0.2814
11757SOL    HW140118   7.211   0.941   5.184 -1.5308 -0.5218  0.7247
11757SOL    HW240119   7.260   1.017   5.305  3.4637 -0.4737 -1.0828
11758SOL     OW40120   9.298   0.137   5.736  0.1819 -0.2748  0.0373
11758SOL    HW140121   9.272   0.228   5.720  0.1671 -0.5619 -1.7243
11758SOL    HW240122   9.380   0.144   5.784 -1.3930  0.6384  2.8152
11759SOL     OW40123   6.211   6.565   6.532 -0.7387 -0.6315 -0.6477
11759SOL    HW140124   6.168   6.578   6.448  0.7530 -0.0824 -1.3563
11759SOL    HW240125   6.294   6.523   6.511 -0.2481 -0.3005  0.5276
11760SOL     OW40126   7.936   6.711   6.335 -0.2735  0.2995  0.1039
11760SOL    HW140127   7.953   6.655   6.260 -0.1585  0.3907  0.0628
11760SOL    HW240128   7.856   6.675   6.374 -0.2069  0.1150  0.0699
11761SOL     OW40129   3.943   5.653   1.040  0.5413 -0.1051 -0.0275
11761SOL    HW140130   3.901   5.591   0.980  1.3286  1.1714 -1.9697
11761SOL    HW240131   4.035   5.626   1.042  0.5632 -0.0022  0.4543
11762SOL     OW40132   2.914   4.285   1.019  0.0925 -0.5766  0.6271
11762SOL    HW140133   2.867   4.307   1.100  1.4844  0.8965  1.0884
11762SOL    HW240134   2.947   4.196   1.034  0.0182 -0.4611  1.5217
11763SOL     OW40135   0.643   9.401   6.781 -0.6593  0.0712 -0.3193
11763SOL    HW140136   0.644   9.335   6.849 -1.0207  1.1524  0.7728
11763SOL    HW240137   0.701   9.367   6.713 -1.5130 -1.7605 -0.2023
11764SOL     OW40138   5.931   2.278   0.499  0.3601 -0.1273  0.8601
11764SOL    HW140139   6.025   2.278   0.518  0.4493 -1.1278  0.4989
11764SOL    HW240140   5.900   2.364   0.529  1.6307  0.7616 -0.2506
11765SOL     OW40141   4.207   6.298   6.911  0.1128  0.3380  0.2697
11765SOL    HW140142   4.129   6.261   6.870  0.8507 -0.6428 -0.2734
11765SOL    HW240143   4.251   6.346   6.841  0.3121  0.3935  0.4305
11766SOL     OW40144   8.826   2.404   3.701 -0.1370 -0.2201 -0.2000
11766SOL    HW140145   8.757   2.453   3.657 -0.4998  0.5885  1.2188
11766SOL    HW240146   8.906   2.428   3.654 -0.4494  0.9762 -0.1428
11767SOL     OW40147   3.106   0.778   6.890  0.0010  0.5911 -0.3239
11767SOL    HW140148   3.083   0.866   6.922  0.8405  0.4985  0.5673
11767SOL    HW240149   3.201   0.776   6.891  0.0713  0.4233 -2.4774
11768SOL     OW40150   5.322   4.718   6.102  0.1977 -0.4009  0.5271
11768SOL    HW140151   5.295   4.744   6.190 -0.1548  1.9599 -0.2134
11768SOL    HW240152   5.410   4.753   6.093 -0.4478  1.0040 -0.6631
11769SOL     OW40153   3.145   9.172   3.679 -0.0886 -0.0851 -0.5007
11769SOL    HW140154   3.130   9.079   3.664  0.0377 -0.2661  0.4652
11769SOL    HW240155   3.238   9.186   3.659 -0.3210  0.0450 -1.5927
11770SOL     OW40156   8.687   2.650   6.073  0.0822  0.2590 -0.0696
11770SOL    HW140157   8.767   2.672   6.120 -0.1677 -0.0073  0.4867
11770SOL    HW240158   8.686   2.710   5.998  1.4011 -0.5242 -0.7517
11771SOL     OW40159   0.874   7.144   7.145  0.1649 -0.1118 -0.0166
11771SOL    HW140160   0.895   7.096   7.065  0.4176  1.3793 -0.8883
11771SOL    HW240161   0.913   7.231   7.131 -0.7120  0.5149  1.2763
11772SOL     OW40162   3.634   7.100   8.008 -0.0023 -0.3312  0.4743
11772SOL    HW140163   3.694   7.161   7.964  0.6739  0.1120  1.9416
11772SOL    HW240164   3.549   7.116   7.967  0.9884 -1.7328 -2.4411
11773SOL     OW40165   7.746   1.957   9.604 -0.5853 -0.2974 -0.0843
11773SOL    HW140166   7.747   1.909   9.521 -4.1552  0.3761 -0.7115
11773SOL    HW240167   7.729   1.890   9.670  0.7820 -0.6370 -0.0443
11774SOL     OW40168   5.237   0.938   3.109 -0.9207  0.5695  0.5091
11774SOL    HW140169   5.248   1.008   3.172  1.2071  0.5741  0.2014
11774SOL    HW240170   5.207   0.863   3.160  2.2837  0.1095  1.8788
11775SOL     OW40171   6.280   1.688   6.057  0.1793 -0.3447  0.3314
11775SOL    HW140172   6.365   1.715   6.092 -0.9284  0.7108  2.3753
11775SOL    HW240173   6.273   1.595   6.078  0.5843 -0.2964  0.6979
11776SOL     OW40174   3.812   5.454   1.893  0.5582 -0.4681 -0.1959
11776SOL    HW140175   3.825   5.538   1.847 -1.2034 -0.3033 -0.4651
11776SOL    HW240176   3.791   5.480   1.983 -0.0880 -0.6061 -0.3042
11777SOL     OW40177   8.630   2.783   8.021 -0.2619  0.3575 -0.3680
11777SOL    HW140178   8.608   2.874   8.043  1.3163  0.4658  0.9730
11777SOL    HW240179   8.723   2.775   8.043  0.5884 -0.6572 -3.6421
11778SOL     OW40180   0.695   3.128   5.644 -0.3096  0.1991 -0.3276
11778SOL    HW140181   0.697   3.217   5.679 -1.1820  0.0139  0.2163
11778SOL    HW240182   0.765   3.127   5.578 -0.1641  1.2239 -0.2094
11779SOL     OW40183   4.090   7.022   0.463 -0.2321  0.3021 -0.8686
11779SOL    HW140184   4.172   6.978   0.441 -0.3140 -1.4449  1.8608
11779SOL    HW240185   4.052   7.046   0.378  1.7356 -1.3780 -2.3324
11780SOL     OW40186   1.581   7.700   8.468 -0.1673 -0.3972  0.1133
11780SOL    HW140187   1.500   7.652   8.451 -1.1191  0.2752  2.3367
11780SOL    HW240188   1.632   7.643   8.525  1.8516 -1.5940 -2.6522
11781SOL     OW40189   7.804   0.699   3.290  0.0869  0.2257  0.2694
11781SOL    HW140190   7.875   0.755   3.321 -0.2557 -0.4068  2.3833
11781SOL    HW240191   7.724   0.745   3.315 -0.2339  0.1652 -0.6206
11782SOL     OW40192   5.836   6.174   3.234  0.0689 -0.2370 -0.0126
11782SOL    HW140193   5.812   6.236   3.165 -0.5918  0.1306  0.5341
11782SOL    HW240194   5.833   6.088   3.192 -0.5117 -0.0331 -0.3886
11783SOL     OW40195   6.677   4.749   5.200 -0.2200  0.4999  0.1045
11783SOL    HW140196   6.691   4.834   5.159  0.5439  0.3929  0.1339
11783SOL    HW240197   6.757   4.700   5.183 -0.6473 -0.2156  0.0937
11784SOL     OW40198   1.431   2.612   8.021  0.1854 -0.2194 -0.0241
11784SOL    HW140199   1.438   2.706   8.039  1.3108 -0.5604  1.5696
11784SOL    HW240200   1.484   2.598   7.943  0.5924  0.3659  0.1389
11785SOL     OW40201   4.329   6.601   7.437 -0.5031 -0.0952  0.1418
11785SOL    HW140202   4.329   6.673   7.500  1.4172  0.5398 -0.5241
11785SOL    HW240203   4.385   6.631   7.365 -2.1627 -1.0177 -1.6517
11786SOL     OW40204   8.754   8.025   3.968 -0.2080  0.1292 -0.0022
11786SOL    HW140205   8.726   7.970   3.895 -1.8938  0.7328  0.1361
11786SOL    HW240206   8.809   7.968   4.022  1.0657 -0.3306 -1.6957
11787SOL     OW40207   9.568   3.081   7.228  0.6171 -0.2557  0.2768
11787SOL    HW140208   9.611   3.013   7.279  1.0267  1.3917  2.2524
11787SOL    HW240209   9.524   3.136   7.292  0.0752  1.2080 -1.2587
11788SOL     OW40210   4.335   6.680   4.682 -0.1082 -0.8608 -0.0189
11788SOL    HW140211   4.243   6.657   4.688 -0.5825  0.8624 -0.0637
11788SOL    HW240212   4.368   6.628   4.609 -1.6629  0.2350 -1.5883
11789SOL     OW40213   6.065   3.398   2.563  0.2785  0.0192  0.0931
11789SOL    HW140214   5.976   3.417   2.592  0.4980  1.5191 -0.1274
11789SOL    HW240215   6.057   3.377   2.470 -0.0900 -2.0408  0.5594
11790SOL     OW40216   9.694   5.310   4.923 -0.1280  0.1128  0.5310
11790SOL    HW140217   9.754   5.340   4.991 -1.9853  1.7782  1.5481
11790SOL    HW240218   9.611   5.297   4.969 -0.8573 -1.0160 -1.0189
11791SOL     OW40219   4.873   0.985   7.456 -0.5775  0.4180  0.0563
11791SOL    HW140220   4.952   0.971   7.509 -0.6356 -1.6361 -0.3370
11791SOL    HW240221   4.878   1.077   7.430  0.3792  1.0057  2.1013
11792SOL     OW40222   5.122   4.372   6.310  0.3410 -0.4069  0.9388
11792SOL    HW140223   5.027   4.357   6.313  0.2323 -1.2887 -2.4839
11792SOL    HW240224   5.158   4.288   6.281  1.7506  0.7955 -1.0313
11793SOL     OW40225   6.710   7.965   4.904  0.1996 -0.4005  0.0061
11793SOL    HW140226   6.797   7.970   4.942 -0.2298 -0.6863  1.0648
11793SOL    HW240227   6.653   7.943   4.977 -0.5182 -2.1071 -1.0075
11794SOL     OW40228   3.890   7.972   1.459  0.0174  0.1786  0.6843
11794SOL    HW140229   3.873   8.062   1.432  1.2474  0.7134  1.5744
11794SOL    HW240230   3.968   7.946   1.410 -1.6521 -1.3014 -1.3857
11795SOL     OW40231   4.679   6.566   9.216  0.0102 -0.0091 -0.2636
11795SOL    HW140232   4.758   6.603   9.176 -1.4538  2.9086 -0.7257
11795SOL    HW240233   4.608   6.592   9.157 -1.7725  1.0845  2.1771
11796SOL     OW40234   2.424   2.874   1.517 -0.4345  0.1989 -0.2539
11796SOL    HW140235   2.391   2.902   1.432 -2.9491  0.2233  0.6252
11796SOL    HW240236   2.400   2.782   1.523 -0.3938  0.2257  0.4603
11797SOL     OW40237   3.145   2.498   6.349 -0.0588 -0.0295 -0.5503
11797SOL    HW140238   3.183   2.517   6.435  0.1789  1.8476 -1.0282
11797SOL    HW240239   3.064   2.452   6.368  0.3269 -0.2394  0.6598
11798SOL     OW40240   6.316   3.203   9.592 -0.7180  0.1533 -0.4078
11798SOL    HW140241   6.286   3.278   9.643  0.6382  1.1847 -1.0682
11798SOL    HW240242   6.311   3.233   9.501  1.1638 -0.0278 -0.6030
11799SOL     OW40243   7.052   8.334   6.108 -0.5344 -0.7109  0.1492
11799SOL    HW140244   7.076   8.384   6.187 -2.5781  0.8017 -0.1228
11799SOL    HW240245   6.997   8.262   6.141 -3.1717  1.1269  0.0251
11800SOL     OW40246   5.139   1.293   6.776  0.0937 -0.5564 -0.0280
11800SOL    HW140247   5.136   1.244   6.694 -0.2273 -1.8028  0.6892
11800SOL    HW240248   5.228   1.281   6.808 -0.2238 -1.4419  0.5710
11801SOL     OW40249   0.654   7.173   3.182 -0.1198  0.9174  0.4652
11801SOL    HW140250   0.560   7.188   3.190 -0.2696  0.5045 -0.3938
11801SOL    HW240251   0.662   7.111   3.110  0.8457  1.4034  0.1410
11802SOL     OW40252   4.401   0.449   6.256 -0.1895 -0.0300  0.1817
11802SOL    HW140253   4.481   0.498   6.238  0.1131 -0.0460  1.3988
11802SOL    HW240254   4.357   0.499   6.325  0.0027 -1.3100  1.2775
11803SOL     OW40255   2.893   5.866   9.725  0.2303 -0.6003 -0.0862
11803SOL    HW140256   2.949   5.910   9.790 -0.6413 -1.2660  1.1299
11803SOL    HW240257   2.951   5.803   9.682  1.2938  1.1012 -1.2974
11804SOL     OW40258   4.554   3.346   4.236  0.1969  0.1408  0.2698
11804SOL    HW140259   4.646   3.341   4.213 -0.3125 -0.2663 -1.9469
11804SOL    HW240260   4.534   3.440   4.235  0.3584  0.1724 -0.2919
11805SOL     OW40261   6.816   9.002   4.933  0.0101 -0.1888 -0.1423
11805SOL    HW140262   6.777   8.983   5.018  2.0003  0.9012  1.1084
11805SOL    HW240263   6.852   9.091   4.943  1.5543 -0.5987 -1.6163
11806SOL     OW40264   2.659   0.937   8.302 -0.1273 -0.0943  0.1240
11806SOL    HW140265   2.748   0.905   8.285  0.1541 -0.4032  1.9715
11806SOL    HW240266   2.647   1.008   8.239  0.8171 -1.0826 -1.2203
11807SOL     OW40267   0.547   3.661   5.344  0.0566 -0.6780  0.3884
11807SOL    HW140268   0.615   3.594   5.349  1.0647  0.1451 -1.2661
11807SOL    HW240269   0.589   3.740   5.378 -1.1439 -0.8356  2.4056
11808SOL     OW40270   5.700   6.210   8.283 -0.0471 -0.2015 -0.3167
11808SOL    HW140271   5.702   6.118   8.254  0.2310  0.0595 -1.1386
11808SOL    HW240272   5.792   6.232   8.299 -0.2525 -0.6030  1.6636
11809SOL     OW40273   5.278   1.785   8.213  0.2681 -0.2240 -0.1789
11809SOL    HW140274   5.186   1.780   8.239  1.2519 -2.6949  3.4778
11809SOL    HW240275   5.308   1.869   8.246 -0.4552  0.2489 -0.7006
11810SOL     OW40276   5.624   8.323   9.039 -0.1982 -0.2532 -0.0859
11810SOL    HW140277   5.540   8.353   9.073 -0.9220 -2.0472 -0.1928
11810SOL    HW240278   5.637   8.237   9.079  1.9410  0.2662  0.4727
11811SOL     OW40279   8.745   9.059   6.085 -0.1407 -0.4569 -0.6226
11811SOL    HW140280   8.794   9.125   6.037 -0.8894  0.2624 -0.4171
11811SOL    HW240281   8.790   9.051   6.169 -1.2914  1.4094  0.2281
11812SOL     OW40282   8.402   6.092   3.874  0.0000 -0.3354 -0.2213
11812SOL    HW140283   8.390   6.040   3.954  2.4758 -1.9043 -0.7571
11812SOL    HW240284   8.361   6.040   3.805  1.8559 -1.3624 -0.6381
11813SOL     OW40285   4.889   2.966   7.396 -0.3737  0.6260  0.2648
11813SOL    HW140286   4.885   3.013   7.313 -0.6466 -0.6760 -0.4962
11813SOL    HW240287   4.800   2.933   7.409  0.0378 -0.5708  0.2159
11814SOL     OW40288   0.734   1.517   7.325  0.6307  0.4714  0.1313
11814SOL    HW140289   0.737   1.606   7.288 -0.6053  0.6653  0.4603
11814SOL    HW240290   0.693   1.528   7.410 -0.8174 -0.5827 -0.3950
11815SOL     OW40291   1.710   8.875   3.523  0.1209 -0.2580  0.1069
11815SOL    HW140292   1.783   8.935   3.512  0.9598 -1.4798 -1.3601
11815SOL    HW240293   1.750   8.789   3.532 -1.0785 -0.7308  1.3977
11816SOL     OW40294   1.893   5.362   5.817  0.1731 -0.0789 -0.0114
11816SOL    HW140295   1.808   5.344   5.778  0.2232 -0.7969  0.2065
11816SOL    HW240296   1.953   5.299   5.776  0.7531  0.8991 -0.7047
11817SOL     OW40297   2.636   3.529   5.086  0.0941  0.1588  0.3530
11817SOL    HW140298   2.660   3.497   4.999 -0.8474 -1.5606  0.6769
11817SOL    HW240299   2.708   3.587   5.111  0.6750  0.2020 -1.3100
11818SOL     OW40300   2.575   4.325   1.914 -0.9458  0.3777 -0.3139
11818SOL    HW140301   2.541   4.313   1.825  0.5414  0.3969 -0.9090
11818SOL    HW240302   2.516   4.274   1.969 -0.9618 -0.9749 -1.5110
11819SOL     OW40303   5.868   3.336   5.287 -0.2549  0.2124 -0.1827
11819SOL    HW140304   5.880   3.429   5.305  0.4183  0.1496 -0.2651
11819SOL    HW240305   5.867   3.295   5.373  1.0935  0.1214 -0.1895
11820SOL     OW40306   9.404   4.089   9.087  0.3705 -0.5235  0.2693
11820SOL    HW140307   9.464   4.155   9.122 -0.5520  0.9269 -0.7795
11820SOL    HW240308   9.356   4.058   9.164  1.3054 -0.5023  0.8811
11821SOL     OW40309   2.199   2.878   3.403 -0.5619 -0.8522 -0.1786
11821SOL    HW140310   2.213   2.820   3.329 -2.1636 -1.4852 -0.0406
11821SOL    HW240311   2.118   2.924   3.382 -0.2140  0.0829  0.4907
11822SOL     OW40312   4.325   0.879   4.024  0.8397  0.3735 -0.1351
11822SOL    HW140313   4.355   0.808   3.967  1.4919  0.6108 -0.1023
11822SOL    HW240314   4.235   0.856   4.047  0.7933 -0.0579 -0.7296
11823SOL     OW40315   9.629   5.356   1.356 -0.6989  0.2645  0.4029
11823SOL    HW140316   9.585   5.415   1.294  1.5267  1.5804 -0.0249
11823SOL    HW240317   9.560   5.332   1.419 -2.2376  1.4451 -0.7407
11824SOL     OW40318   6.718   9.572   9.180 -0.2664  0.4571 -0.3865
11824SOL    HW140319   6.755   9.607   9.099  2.4848  0.3243  0.7001
11824SOL    HW240320   6.713   9.478   9.165 -0.0886  0.4686 -0.5234
11825SOL     OW40321   0.092   6.640   6.593 -0.7195 -0.4774 -0.0125
11825SOL    HW140322   0.070   6.602   6.678 -2.0082 -0.6563 -0.4165
11825SOL    HW240323   0.087   6.566   6.532  0.5961 -0.4352 -0.2019
11826SOL     OW40324   2.638   5.768   4.279  0.3980 -0.4821 -0.0477
11826SOL    HW140325   2.631   5.739   4.188 -0.8424  0.9666 -0.4550
11826SOL    HW240326   2.707   5.835   4.277 -0.6721  0.6405 -0.2465
11827SOL     OW40327   1.566   3.501   9.388 -0.3652 -0.0602  0.4203
11827SOL    HW140328   1.652   3.493   9.430 -1.1714 -0.4480  2.0532
11827SOL    HW240329   1.537   3.590   9.409 -0.1919  0.2162 -0.4851
11828SOL     OW40330   3.704   0.953   9.734  0.3752 -0.0522  0.4027
11828SOL    HW140331   3.770   0.937   9.666  0.3426 -1.5698  0.7053
11828SOL    HW240332   3.746   0.926   9.815  0.1809  1.1514  0.9205
11829SOL     OW40333   9.224   6.683   7.558 -0.3297  0.5112  0.2527
11829SOL    HW140334   9.309   6.704   7.519  0.0272  0.6703  1.1130
11829SOL    HW240335   9.177   6.766   7.561  0.2815  0.8266  1.6953
11830SOL     OW40336   9.721   0.641   7.265 -0.2779  0.4619 -0.5765
11830SOL    HW140337   9.647   0.646   7.325  0.3546 -0.2831  0.3040
11830SOL    HW240338   9.721   0.725   7.220 -1.2556  0.7311 -0.1133
11831SOL     OW40339   4.159   7.649   2.108 -0.5317 -0.9083 -0.0000
11831SOL    HW140340   4.169   7.740   2.077 -1.0806 -0.8941 -0.1493
11831SOL    HW240341   4.140   7.600   2.028  2.0299 -1.5639 -0.2996
11832SOL     OW40342   3.369   3.462   5.943 -0.2168  0.6123 -0.3625
11832SOL    HW140343   3.400   3.424   6.025 -0.4778  1.2617  0.0468
11832SOL    HW240344   3.385   3.556   5.953 -1.3997  0.8479 -0.5346
11833SOL     OW40345   5.920   3.281   3.081  0.1570  0.4472 -0.7007
11833SOL    HW140346   5.858   3.278   3.155  0.9844 -4.2586  0.1414
11833SOL    HW240347   5.869   3.249   3.007  0.4594  0.9958 -1.1517
11834SOL     OW40348   4.385   0.669   6.879  0.3184 -0.4425 -0.8707
11834SOL    HW140349   4.461   0.718   6.910 -0.9562  0.5762  0.8636
11834SOL    HW240350   4.336   0.731   6.827 -1.1580  0.1539  1.0981
11835SOL     OW40351   5.011   6.596   2.559  0.1498 -0.1362  0.1913
11835SOL    HW140352   5.023   6.504   2.536 -0.5219 -0.0860 -0.3994
11835SOL    HW240353   5.088   6.618   2.611  0.1378 -1.1301  0.6577
11836SOL     OW40354   8.659   6.464   2.922  0.1155  0.1754 -0.1082
11836SOL    HW140355   8.647   6.544   2.871  1.0367 -0.0316 -0.6724
11836SOL    HW240356   8.651   6.394   2.858 -0.0642 -0.1593  0.2766
11837SOL     OW40357   6.348   5.476   2.074  0.5360 -0.0492 -0.0847
11837SOL    HW140358   6.335   5.383   2.055 -0.6517  0.1415 -0.2462
11837SOL    HW240359   6.397   5.476   2.157 -1.6870 -0.8475  1.3280
11838SOL     OW40360   4.810   7.016   6.766  0.2028  0.3286  0.5189
11838SOL    HW140361   4.879   6.954   6.742 -0.1378  0.1492 -0.0168
11838SOL    HW240362   4.841   7.056   6.847 -0.0471 -1.3149  1.4713
11839SOL     OW40363   9.114   2.693   5.885  0.2402 -0.8702 -0.5485
11839SOL    HW140364   9.198   2.654   5.859  0.0923 -0.3914 -1.8159
11839SOL    HW240365   9.126   2.787   5.871 -0.2738 -0.7207 -0.0214
11840SOL     OW40366   5.173   8.024   0.675 -0.0320 -0.3470 -0.1930
11840SOL    HW140367   5.172   7.931   0.651  0.5910 -0.1965 -0.8690
11840SOL    HW240368   5.164   8.025   0.770  0.7679 -1.1384 -0.0994
11841SOL     OW40369   2.929   8.097   6.969  0.2789  0.1928  0.0155
11841SOL    HW140370   2.945   8.039   6.894 -0.7741  0.4565 -0.4197
11841SOL    HW240371   2.841   8.132   6.955  0.6373  1.3847  0.6286
11842SOL     OW40372   1.893   5.538   7.951 -0.4027  0.1273 -0.1887
11842SOL    HW140373   1.822   5.474   7.946 -0.4993  0.1720  0.5065
11842SOL    HW240374   1.864   5.601   8.018 -0.3721  0.9813 -0.9571
11843SOL     OW40375   6.788   0.869   0.887 -0.3266 -0.2957 -0.7610
11843SOL    HW140376   6.787   0.963   0.870 -0.6726  0.1179  1.2713
11843SOL    HW240377   6.722   0.856   0.955  1.2818 -1.6549  0.6183
11844SOL     OW40378   3.801   6.654   7.305  0.3095  0.2780 -0.1007
11844SOL    HW140379   3.831   6.584   7.364  0.8136  0.9044  0.3960
11844SOL    HW240380   3.743   6.609   7.243  1.6061 -0.8076 -0.5633
11845SOL     OW40381   3.263   2.870   2.494 -0.0641  0.3376 -0.0559
11845SOL    HW140382   3.221   2.803   2.548  0.5723  0.8881  1.1658
11845SOL    HW240383   3.191   2.928   2.467 -0.5135 -0.4348 -0.5651
11846SOL     OW40384   6.219   0.611   5.866  0.1096 -0.2160  0.0315
11846SOL    HW140385   6.278   0.538   5.847  1.1018  0.7087 -0.5560
11846SOL    HW240386   6.254   0.651   5.945 -0.6669 -0.6042  0.5801
11847SOL     OW40387   5.459   0.835   4.489  0.8397 -0.0776  0.5202
11847SOL    HW140388   5.433   0.757   4.440  0.3451  0.4111 -0.0095
11847SOL    HW240389   5.538   0.808   4.536  0.8814 -0.7892  0.0600
11848SOL     OW40390   0.337   2.440   7.562  0.2670 -0.2167 -0.1470
11848SOL    HW140391   0.249   2.419   7.593 -0.0288  1.2823  0.1009
11848SOL    HW240392   0.338   2.413   7.470  0.1928 -1.9816  0.3289
11849SOL     OW40393   7.186   4.644   4.100 -0.3447 -0.4457  0.3333
11849SOL    HW140394   7.157   4.638   4.191 -0.5294 -1.7215  0.1950
11849SOL    HW240395   7.281   4.654   4.106 -0.2992 -1.0757  0.6500
11850SOL     OW40396   8.480   9.221   4.891  0.0464 -0.3945 -0.2812
11850SOL    HW140397   8.533   9.277   4.835  0.8024 -0.4505  0.3457
11850SOL    HW240398   8.401   9.272   4.909 -0.8029 -0.8814 -2.3856
11851SOL     OW40399   0.897   0.307   3.033 -0.2602  0.2030 -0.2050
11851SOL    HW140400   0.882   0.362   2.956 -0.0199  0.1897 -0.2646
11851SOL    HW240401   0.829   0.241   3.029 -0.1290  0.0857 -0.5178
11852SOL     OW40402   3.992   0.366   8.700 -0.9088  0.0868  0.5428
11852SOL    HW140403   3.933   0.320   8.641 -1.5031  1.8674 -0.3353
11852SOL    HW240404   4.068   0.389   8.647 -0.0364 -0.9498  1.2991
11853SOL     OW40405   8.104   0.881   2.231 -0.2080 -0.3606  0.9723
11853SOL    HW140406   8.022   0.928   2.214 -1.4995 -2.2697  1.5896
11853SOL    HW240407   8.081   0.816   2.297  1.9720 -0.5921  1.5901
11854SOL     OW40408   3.847   2.449   7.985  0.0116  0.2425  0.2007
11854SOL    HW140409   3.873   2.360   8.011  1.4220  0.4738 -0.3333
11854SOL    HW240410   3.805   2.437   7.900 -0.0121  0.0608  0.2365
11855SOL     OW40411   1.879   5.048   0.861  0.0564 -0.0663 -0.3961
11855SOL    HW140412   1.818   4.990   0.816 -0.3403 -0.1757  0.2661
11855SOL    HW240413   1.826   5.123   0.887  0.7765  1.0977 -2.1281
11856SOL     OW40414   9.345   4.109   3.749  0.7097 -0.2400 -0.1844
11856SOL    HW140415   9.439   4.116   3.766  0.8898 -2.1775 -0.1375
11856SOL    HW240416   9.339   4.083   3.657  0.1196  1.4070 -0.6515
11857SOL     OW40417   0.087   2.412   7.606  0.1951  0.2674  0.2928
11857SOL    HW140418   0.031   2.386   7.679 -0.8392 -0.6107 -0.7672
11857SOL    HW240419   0.037   2.388   7.528  0.9831  1.7672 -0.7303
11858SOL     OW40420   2.353   6.886   6.871  0.2219 -0.2991 -0.0541
11858SOL    HW140421   2.446   6.887   6.893  0.4967 -1.9800 -0.9492
11858SOL    HW240422   2.342   6.958   6.809  1.2088 -0.8496 -0.8995
11859SOL     OW40423   0.879   5.732   2.956  0.1552  0.9862  0.2531
11859SOL    HW140424   0.873   5.797   3.027 -0.6841 -0.1493  1.2667
11859SOL    HW240425   0.939   5.666   2.990 -0.8071  0.0728  0.2278
11860SOL     OW40426   2.954   4.883   7.147  0.0007  0.8405 -0.5153
11860SOL    HW140427   2.978   4.954   7.087  1.9170  1.0673  0.4604
11860SOL    HW240428   2.873   4.913   7.188  0.5270  2.2417 -0.4659
11861SOL     OW40429   1.865   4.203   8.392 -0.3802  0.1238  0.6549
11861SOL    HW140430   1.957   4.212   8.420  0.3273  0.3715 -1.5489
11861SOL    HW240431   1.830   4.292   8.398  0.8532  0.9685 -2.4826
11862SOL     OW40432   4.441   7.229   1.467  0.2806 -0.0169  0.3721
11862SOL    HW140433   4.378   7.160   1.488 -0.1884  0.3459  0.1800
11862SOL    HW240434   4.521   7.202   1.510  0.4443 -1.2740 -0.6638
11863SOL     OW40435   7.143   8.386   5.255 -0.1614  0.4409  0.4385
11863SOL    HW140436   7.075   8.337   5.301  1.2236 -2.1733 -0.1334
11863SOL    HW240437   7.206   8.409   5.323 -0.2788  0.4847  0.5329
11864SOL     OW40438   4.574   7.193   2.800 -0.0552 -0.5061  0.3445
11864SOL    HW140439   4.560   7.195   2.705 -1.5318 -1.1852  0.5082
11864SOL    HW240440   4.669   7.188   2.811  0.2023  0.6160 -1.0590
11865SOL     OW40441   6.646   6.971   9.020 -0.0753  0.3022 -0.0681
11865SOL    HW140442   6.559   6.995   8.986  0.1779 -0.9530 -1.7123
11865SOL    HW240443   6.707   7.018   8.964  0.3381  0.0181  0.1420
11866SOL     OW40444   6.601   0.742   0.645  0.5894  0.0002  0.2097
11866SOL    HW140445   6.651   0.671   0.685 -0.5184 -0.1391  1.4189
11866SOL    HW240446   6.667   0.808   0.623  1.3490 -0.2724  1.5294
11867SOL     OW40447   4.040   5.026   8.139 -0.7975  0.3341 -0.1614
11867SOL    HW140448   3.972   4.961   8.123 -0.6313 -0.4266  1.9450
11867SOL    HW240449   3.999   5.109   8.117 -1.7282 -0.2884 -0.8607
11868SOL     OW40450   6.693   7.112   4.876  0.1352 -0.0339 -0.2494
11868SOL    HW140451   6.756   7.057   4.924 -1.9125 -1.2460  1.1844
11868SOL    HW240452   6.674   7.184   4.936  0.4939  0.5947 -0.8777
11869SOL     OW40453   9.601   5.530   9.692 -0.1131 -0.3775 -0.2719
11869SOL    HW140454   9.694   5.524   9.667 -0.0988  0.2573 -0.3995
11869SOL    HW240455   9.603   5.558   9.783 -0.1748 -1.9282  0.2286
11870SOL     OW40456   6.933   8.756   7.146 -0.7312 -0.4498 -0.0485
11870SOL    HW140457   6.894   8.677   7.108 -0.6881  0.5076 -2.2714
11870SOL    HW240458   7.013   8.725   7.188 -1.0550 -1.6733 -0.2897
11871SOL     OW40459   6.679   8.478   2.206 -0.3281  0.3806 -0.4675
11871SOL    HW140460   6.612   8.410   2.205  0.2333 -0.1813 -0.2930
11871SOL    HW240461   6.762   8.431   2.218  0.0625  1.0960 -0.2731
11872SOL     OW40462   2.364   7.231   6.880  0.3649  0.0843  0.4438
11872SOL    HW140463   2.367   7.174   6.803  0.9624  0.0580  0.4835
11872SOL    HW240464   2.433   7.295   6.866  1.0208 -0.3977  1.3172
11873SOL     OW40465   8.126   2.169   2.309 -0.0950 -0.7224  0.4512
11873SOL    HW140466   8.096   2.233   2.243 -0.2420 -1.0258  0.2212
11873SOL    HW240467   8.069   2.093   2.295  1.1117 -1.5069 -0.3250
11874SOL     OW40468   0.573   4.790   5.899 -0.1454 -0.4485  0.6279
11874SOL    HW140469   0.569   4.878   5.936 -0.9489  0.5509 -1.6241
11874SOL    HW240470   0.491   4.780   5.851  0.9290 -1.4829 -1.0966
11875SOL     OW40471   5.398   2.761   3.384  0.3394  1.0204  0.3508
11875SOL    HW140472   5.481   2.754   3.432 -1.0182  1.8468  3.0523
11875SOL    HW240473   5.333   2.726   3.445 -1.4502  1.4147 -1.2449
11876SOL     OW40474   6.656   7.923   6.894  0.0867 -0.2513 -0.2653
11876SOL    HW140475   6.709   7.957   6.822  0.1838 -0.1975 -0.1693
11876SOL    HW240476   6.664   7.828   6.886  2.6254 -0.2990  1.4804
11877SOL     OW40477   7.380   3.218   5.018  0.4620  0.0821  0.1060
11877SOL    HW140478   7.435   3.230   5.095 -0.8580  1.3107  0.9164
11877SOL    HW240479   7.330   3.300   5.011 -0.3391 -0.4818 -1.3318
11878SOL     OW40480   8.122   4.486   4.544  0.0364 -0.6926 -0.2861
11878SOL    HW140481   8.080   4.402   4.561  1.3500 -1.3704 -0.2870
11878SOL    HW240482   8.197   4.488   4.603  0.1162  0.4118 -0.4021
11879SOL     OW40483   8.726   6.843   2.244  0.3207 -0.0967  0.1265
11879SOL    HW140484   8.685   6.762   2.273 -0.8549  0.6246  0.5434
11879SOL    HW240485   8.693   6.856   2.155 -2.0798  1.5020  1.1284
11880SOL     OW40486   0.294   8.139   7.015 -0.4094 -0.0678 -0.1094
11880SOL    HW140487   0.268   8.183   7.096 -2.5777 -0.4331 -0.5551
11880SOL    HW240488   0.369   8.190   6.984  2.2725 -1.4787  3.4242
11881SOL     OW40489   7.194   0.549   2.492  0.2614  0.8531  0.3276
11881SOL    HW140490   7.144   0.509   2.421  2.0965  0.1918 -0.6739
11881SOL    HW240491   7.257   0.606   2.448  1.0577  0.8937  1.4575
11882SOL     OW40492   2.749   0.898   2.471 -0.1885  0.2025 -0.0490
11882SOL    HW140493   2.732   0.856   2.386 -0.5102 -0.0154  0.1191
11882SOL    HW240494   2.835   0.866   2.497 -0.0454  0.3462 -0.3375
11883SOL     OW40495   7.803   8.656   0.274  0.2338  0.1273  0.0167
11883SOL    HW140496   7.750   8.691   0.203  0.7764 -1.0313 -1.0078
11883SOL    HW240497   7.767   8.568   0.290  0.3121  0.2580  0.9746
11884SOL     OW40498   2.409   6.049   3.967  0.2551 -0.2733  0.5940
11884SOL    HW140499   2.404   6.143   3.954  0.1276 -0.3187  0.2998
11884SOL    HW240500   2.481   6.021   3.910 -0.2722 -0.4673  0.0076
11885SOL     OW40501   1.019   9.700   2.270  0.3030  0.4945  0.6209
11885SOL    HW140502   1.038   9.771   2.331 -1.4205  1.5201  0.0331
11885SOL    HW240503   0.924   9.690   2.274  0.1447  0.5110 -1.7751
11886SOL     OW40504   4.947   8.131   2.152 -0.3276  0.6725  0.6260
11886SOL    HW140505   4.878   8.190   2.122 -0.7713 -0.9338 -1.8612
11886SOL    HW240506   5.018   8.145   2.090  0.2250 -0.1653  1.0565
11887SOL     OW40507   3.874   9.115   6.075 -0.3623 -0.2264  0.2254
11887SOL    HW140508   3.940   9.067   6.024  0.8606 -1.2037  2.5859
11887SOL    HW240509   3.801   9.127   6.013  1.7362  0.3889 -2.3144
11888SOL     OW40510   2.481   9.442   4.071  0.0675 -0.0396 -0.5824
11888SOL    HW140511   2.467   9.416   3.980  0.1666 -2.5574  0.0596
11888SOL    HW240512   2.565   9.403   4.094  0.5865  1.5124  0.2918
11889SOL     OW40513   3.369   2.830   4.899  0.0595  0.4906 -0.2684
11889SOL    HW140514   3.367   2.861   4.989  0.4839 -0.1789 -0.0210
11889SOL    HW240515   3.461   2.839   4.872 -0.0212  0.4705 -0.5576
11890SOL     OW40516   6.913   2.028   1.584  0.7057 -0.8869 -0.1239
11890SOL    HW140517   6.994   2.078   1.593  0.3058 -0.2381 -0.0525
11890SOL    HW240518   6.920   1.987   1.498  0.3497  0.5895 -0.8927
11891SOL     OW40519   1.313   8.293   1.620  0.1047  0.4976  0.0635
11891SOL    HW140520   1.400   8.257   1.638 -0.1507  1.1132  3.2416
11891SOL    HW240521   1.268   8.223   1.573  2.4492  0.4418 -2.3646
11892SOL     OW40522   6.688   2.148   4.780  0.4046  0.0649 -0.5720
11892SOL    HW140523   6.635   2.130   4.858  0.7078  0.3617 -0.2899
11892SOL    HW240524   6.644   2.223   4.739  0.9344  0.7017 -0.0079
11893SOL     OW40525   9.593   9.696   1.574 -0.4051  0.1746 -0.2182
11893SOL    HW140526   9.594   9.739   1.659 -3.6512 -0.5628  0.3301
11893SOL    HW240527   9.545   9.756   1.516  0.2724 -0.0813 -1.0694
11894SOL     OW40528   2.468   8.510   8.402  0.1877  0.9447 -0.1330
11894SOL    HW140529   2.419   8.513   8.485  0.8876 -0.1121  0.3316
11894SOL    HW240530   2.405   8.475   8.339 -0.0334  0.7795  0.1762
11895SOL     OW40531   2.125   3.497   9.475 -0.0116 -0.0602 -0.4537
11895SOL    HW140532   2.169   3.566   9.526 -1.7108  0.6148  0.1604
11895SOL    HW240533   2.151   3.515   9.384  1.3176  0.0288 -0.0869
11896SOL     OW40534   3.581   2.978   1.905 -0.1154  0.0942  0.2982
11896SOL    HW140535   3.531   3.000   1.826 -1.4148 -0.3691  0.9676
11896SOL    HW240536   3.519   2.989   1.977  0.6949 -0.6813  1.1422
11897SOL     OW40537   2.811   0.578   2.573  0.7041  0.1319  0.4236
11897SOL    HW140538   2.730   0.541   2.537  0.7799  1.6953 -1.4869
11897SOL    HW240539   2.808   0.554   2.666 -0.8487 -1.7267 -0.0264
11898SOL     OW40540   0.915   9.418   4.934 -0.0303 -0.5744  0.4978
11898SOL    HW140541   0.875   9.505   4.940  0.6311 -0.3001  1.0841
11898SOL    HW240542   0.842   9.359   4.912 -0.7887 -0.1117  1.6642
11899SOL     OW40543   4.116   1.170   5.237 -0.0177 -0.3413  0.2771
11899SOL    HW140544   4.077   1.091   5.274 -0.1214  0.6735  2.5198
11899SOL    HW240545   4.161   1.141   5.158 -0.7257 -2.4783  0.6094
11900SOL     OW40546   6.680   2.210   1.313 -0.2920 -0.0237  0.3447
11900SOL    HW140547   6.703   2.119   1.328  0.4553  0.0463 -0.3189
11900SOL    HW240548   6.726   2.258   1.381  1.1913  0.0644 -0.6659
11901SOL     OW40549   2.102   7.650   9.585 -0.1630  0.1053 -0.0285
11901SOL    HW140550   2.043   7.725   9.579  1.4533  1.5958  1.6187
11901SOL    HW240551   2.082   7.611   9.670 -0.0200 -0.5212 -0.2747
11902SOL     OW40552   0.767   3.511   5.338 -0.2401 -0.1039  0.1619
11902SOL    HW140553   0.802   3.523   5.250  0.0456  1.9865  0.5194
11902SOL    HW240554   0.844   3.492   5.392 -0.3395 -0.7264  0.1011
11903SOL     OW40555   6.106   2.504   7.654 -0.0080  0.8250 -0.5442
11903SOL    HW140556   6.016   2.474   7.664 -0.1759  0.7628 -1.9503
11903SOL    HW240557   6.098   2.592   7.618  0.4780  0.6994 -0.9818
11904SOL     OW40558   3.285   0.410   7.412 -0.3171  0.1863 -0.1830
11904SOL    HW140559   3.204   0.380   7.455  0.4815  0.0817  1.3063
11904SOL    HW240560   3.317   0.332   7.366  0.2189 -0.4915  1.2809
11905SOL     OW40561   6.968   9.418   8.565  0.2699  0.2837  0.1744
11905SOL    HW140562   7.015   9.349   8.611  2.7669  1.1148 -0.9725
11905SOL    HW240563   7.013   9.499   8.589 -1.3470  1.3094 -0.0608
11906SOL     OW40564   1.300   9.248   4.623 -0.3316 -0.2104 -0.1600
11906SOL    HW140565   1.352   9.314   4.577 -0.2628 -0.7327 -0.8480
11906SOL    HW240566   1.349   9.166   4.611 -0.8770 -0.5538 -0.0940
11907SOL     OW40567   4.879   4.832   2.939  0.0380 -0.6517  0.2774
11907SOL    HW140568   4.805   4.791   2.894 -0.6930  0.3200  0.5566
11907SOL    HW240569   4.881   4.791   3.025 -0.5738 -0.2451  0.4910
11908SOL     OW40570   1.180   4.617   7.016  0.2488  0.1297  0.0001
11908SOL    HW140571   1.100   4.667   7.000  0.2485  0.8019  1.9064
11908SOL    HW240572   1.242   4.649   6.950 -1.1087 -0.6394 -1.7050
11909SOL     OW40573   0.288   3.543   5.894 -0.1411 -0.0204  0.3130
11909SOL    HW140574   0.320   3.516   5.808  0.7207  0.2828  0.5242
11909SOL    HW240575   0.268   3.636   5.883  1.3826  0.3912  0.8120
11910SOL     OW40576   4.763   7.406   0.994 -0.3445 -0.1702 -0.4770
11910SOL    HW140577   4.697   7.362   1.047 -1.0223  1.4297  0.0474
11910SOL    HW240578   4.814   7.457   1.057  1.2734 -1.1901 -0.9025
11911SOL     OW40579   5.457   6.899   3.557 -0.1557 -0.1035  0.0566
11911SOL    HW140580   5.378   6.953   3.550 -0.9117 -1.0122  1.1509
11911SOL    HW240581   5.440   6.826   3.498  0.1104 -0.0161 -0.1262
11912SOL     OW40582   2.475   7.898   4.780 -0.3942  0.2407 -0.1779
11912SOL    HW140583   2.501   7.848   4.702 -1.9586 -1.4591  0.3281
11912SOL    HW240584   2.477   7.989   4.751 -0.7760 -0.3308 -2.1884
11913SOL     OW40585   1.704   7.273   8.476 -0.4047 -0.3175  0.4468
11913SOL    HW140586   1.666   7.339   8.533 -0.8435  1.2522 -1.5698
11913SOL    HW240587   1.646   7.197   8.486  0.0175 -0.4172  2.6660
11914SOL     OW40588   0.477   7.044   0.837 -0.3109  0.2101 -0.2241
11914SOL    HW140589   0.498   7.102   0.764  0.3414  0.8023  0.4207
11914SOL    HW240590   0.503   6.957   0.808 -0.2627  0.4058 -0.7735
11915SOL     OW40591   9.507   9.652   2.564 -0.0101 -0.3589 -0.0567
11915SOL    HW140592   9.539   9.645   2.474 -4.5693  1.2906 -2.0783
11915SOL    HW240593   9.475   9.565   2.585 -0.7939 -0.2772 -0.8749
11916SOL     OW40594   0.584   3.309   0.148 -0.0086 -0.0506 -0.5011
11916SOL    HW140595   0.587   3.250   0.073  1.1522 -2.1532  1.0639
11916SOL    HW240596   0.655   3.371   0.132 -0.3830  0.1165 -1.5723
11917SOL     OW40597   9.058   4.310   4.453  0.3276  0.4163 -0.4446
11917SOL    HW140598   9.122   4.377   4.478 -0.3674  0.4633  1.3543
11917SOL    HW240599   8.976   4.357   4.442 -0.2724 -0.1391  1.2950
11918SOL     OW40600   7.894   4.402   2.225 -0.3829  0.0164 -0.7452
11918SOL    HW140601   7.861   4.313   2.221  1.0646 -0.5432 -0.7583
11918SOL    HW240602   7.864   4.435   2.310  1.6053 -1.5672  0.6686
11919SOL     OW40603   0.334   6.614   6.936  0.0577  0.3575 -0.6066
11919SOL    HW140604   0.289   6.563   6.870 -1.1919  0.5146  0.0847
11919SOL    HW240605   0.406   6.558   6.966 -1.0442 -0.8601 -0.1366
11920SOL     OW40606   8.358   8.002   2.231  0.3250  0.2589 -0.1184
11920SOL    HW140607   8.386   7.919   2.193 -0.7645 -0.1870  0.0240
11920SOL    HW240608   8.386   8.068   2.167 -0.9561 -0.4262 -1.4574
11921SOL     OW40609   3.656   1.612   3.030  0.4037 -0.2855  0.1385
11921SOL    HW140610   3.626   1.637   2.943 -1.9924 -1.5610  0.5020
11921SOL    HW240611   3.702   1.529   3.018 -1.0105 -1.1044  0.1885
11922SOL     OW40612   3.192   9.265   4.334 -0.8304 -0.6333  0.8466
11922SOL    HW140613   3.130   9.337   4.345 -0.7310 -0.6518  1.5821
11922SOL    HW240614   3.237   9.259   4.418  0.2040 -0.5902  0.3214
11923SOL     OW40615   0.854   7.637   5.636 -0.5317  0.4095  0.5406
11923SOL    HW140616   0.775   7.610   5.589 -0.5769 -0.3682  1.0452
11923SOL    HW240617   0.822   7.676   5.717 -0.4235  1.0390  0.2895
11924SOL     OW40618   3.957   5.292   2.176  0.0837  0.5286  0.1274
11924SOL    HW140619   4.045   5.259   2.195  0.1288  1.0608  0.9147
11924SOL    HW240620   3.960   5.385   2.201 -0.6048  0.6379 -0.1565
11925SOL     OW40621   5.677   3.660   0.993 -0.1915 -0.0869  0.0279
11925SOL    HW140622   5.751   3.709   1.028 -0.9175  1.3067 -0.2686
11925SOL    HW240623   5.672   3.688   0.901 -1.6692  0.6472  0.2992
11926SOL     OW40624   5.654   8.555   6.631 -0.3129  0.0462 -0.1263
11926SOL    HW140625   5.639   8.460   6.637 -0.2299  0.0967  1.3430
11926SOL    HW240626   5.615   8.590   6.711 -1.3112  1.4045 -1.1567
11927SOL     OW40627   1.615   6.054   5.190  0.1441  0.2938  0.0858
11927SOL    HW140628   1.710   6.058   5.200  0.0148  1.8418  0.9481
11927SOL    HW240629   1.581   6.103   5.264 -1.2994  0.6761 -0.7940
11928SOL     OW40630   7.490   2.841   0.209  0.6585  0.1411 -0.0014
11928SOL    HW140631   7.406   2.852   0.254  1.4862  0.1137  1.6083
11928SOL    HW240632   7.494   2.748   0.189 -0.0611  0.2855 -0.8486
11929SOL     OW40633   7.336   6.462   1.485 -0.1135 -0.5472  0.6278
11929SOL    HW140634   7.366   6.375   1.460 -1.5464 -0.9338  0.1717
11929SOL    HW240635   7.241   6.459   1.474 -0.0915  1.4200 -0.4991
11930SOL     OW40636   9.352   6.817   5.017 -0.4536 -0.2887  0.3645
11930SOL    HW140637   9.411   6.881   4.978  0.8854 -1.1293  0.9312
11930SOL    HW240638   9.301   6.866   5.081 -1.9755  0.9096 -1.6697
11931SOL     OW40639   8.592   3.819   9.037 -0.6747 -0.0151  0.5473
11931SOL    HW140640   8.619   3.830   9.128 -2.3583  0.2485  1.0482
11931SOL    HW240641   8.667   3.851   8.986  0.1203  0.2494  1.8379
11932SOL     OW40642   5.962   2.583   5.307 -0.0598  0.1262 -0.4417
11932SOL    HW140643   5.988   2.566   5.398  2.5149  0.1656 -1.0831
11932SOL    HW240644   5.907   2.508   5.283 -0.4356 -0.0924  1.0018
11933SOL     OW40645   3.754   1.488   2.531  0.4756  0.1458  0.6335
11933SOL    HW140646   3.682   1.539   2.495  0.3094 -0.5156 -0.0184
11933SOL    HW240647   3.752   1.406   2.481  1.7332  0.1553  0.5253
11934SOL     OW40648   7.222   4.676   8.952 -0.5666  0.4021 -0.0591
11934SOL    HW140649   7.189   4.687   9.042 -1.2041 -0.4549 -0.1695
11934SOL    HW240650   7.233   4.581   8.943 -0.0445  0.5239 -0.7365
11935SOL     OW40651   7.952   9.742   9.230 -0.3934 -0.2903 -0.1701
11935SOL    HW140652   8.009   9.716   9.302  0.2712 -1.1243 -0.9589
11935SOL    HW240653   7.997   9.709   9.152 -0.8838  0.9606 -0.9998
11936SOL     OW40654   4.496   2.795   2.084 -0.5756 -1.3295 -0.0650
11936SOL    HW140655   4.518   2.795   1.991 -1.1551 -0.0623 -0.2307
11936SOL    HW240656   4.564   2.848   2.126 -1.0143 -0.8125  0.0191
11937SOL     OW40657   2.189   6.459   5.363 -0.4690  0.3386 -0.1054
11937SOL    HW140658   2.206   6.525   5.296 -0.6064  1.6817  1.1325
11937SOL    HW240659   2.274   6.444   5.405 -0.4899 -0.0887 -0.2075
11938SOL     OW40660   7.348   8.809   9.014 -0.0097  0.3541  0.4996
11938SOL    HW140661   7.330   8.853   9.098 -0.3593 -1.3176  1.3316
11938SOL    HW240662   7.318   8.871   8.948 -1.3210  1.0052  1.6549
11939SOL     OW40663   8.467   8.970   5.598  0.2608  0.5769  0.2932
11939SOL    HW140664   8.500   9.059   5.605 -0.1591  0.8187 -0.6595
11939SOL    HW240665   8.477   8.947   5.506 -1.8650  0.5535  0.0017
11940SOL     OW40666   0.342   2.372   8.642 -0.3550 -0.1635 -0.2741
11940SOL    HW140667   0.367   2.322   8.720 -1.1542  0.8062  0.6394
11940SOL    HW240668   0.248   2.360   8.635 -0.4405  0.5739 -0.4942
11941SOL     OW40669   3.559   2.688   1.748  0.3390 -0.0956 -0.1292
11941SOL    HW140670   3.527   2.677   1.659  0.3884  1.3403 -0.3430
11941SOL    HW240671   3.491   2.648   1.803 -0.5646  0.6047 -0.7131
11942SOL     OW40672   1.777   7.588   3.979  0.2546  0.4354  0.2487
11942SOL    HW140673   1.768   7.521   4.048  1.5829 -1.1442 -1.0379
11942SOL    HW240674   1.704   7.648   3.995 -1.2965 -1.5833  1.1973
11943SOL     OW40675   0.244   1.142   6.906 -0.4605 -0.3184 -0.0663
11943SOL    HW140676   0.225   1.199   6.980 -0.0281 -0.6198  0.2888
11943SOL    HW240677   0.161   1.102   6.883 -0.1383 -2.5705  2.2433
11944SOL     OW40678   9.511   3.456   7.011  0.0675  0.0250  0.1197
11944SOL    HW140679   9.493   3.362   7.013 -0.3016  0.0934  2.4794
11944SOL    HW240680   9.427   3.496   6.989  0.0362 -0.1536 -0.0891
11945SOL     OW40681   4.858   3.592   2.080  0.1419  0.0103  0.3208
11945SOL    HW140682   4.796   3.545   2.024  0.3295 -0.9060  0.8602
11945SOL    HW240683   4.868   3.678   2.038 -0.1892 -0.4314 -0.6923
11946SOL     OW40684   3.761   0.315   0.200  0.5097 -0.2052  0.2939
11946SOL    HW140685   3.820   0.371   0.249 -1.1055  0.2322  1.8186
11946SOL    HW240686   3.765   0.348   0.110  0.7247  1.3720  0.8651
11947SOL     OW40687   4.995   2.220   3.344  0.3041 -0.3751 -0.0436
11947SOL    HW140688   4.996   2.132   3.306 -1.1593 -0.2720 -0.3828
11947SOL    HW240689   4.967   2.276   3.272 -0.1769  0.1607  0.5538
11948SOL     OW40690   8.805   1.732   3.967  0.4525  0.3699 -0.1658
11948SOL    HW140691   8.823   1.790   4.041  0.4177 -0.4622  0.5126
11948SOL    HW240692   8.762   1.656   4.006  0.0611  0.0975 -1.1036
11949SOL     OW40693   1.467   4.566   5.178  0.2425 -0.2069 -0.3147
11949SOL    HW140694   1.409   4.528   5.112 -0.0048 -0.2601 -0.0697
11949SOL    HW240695   1.415   4.566   5.258 -0.2343  1.8625 -0.5852
11950SOL     OW40696   4.201   3.497   6.303 -0.1221  0.5096 -0.3080
11950SOL    HW140697   4.223   3.405   6.294 -1.9004  0.2092 -2.6104
11950SOL    HW240698   4.264   3.543   6.247 -1.1761  0.2855 -1.7653
11951SOL     OW40699   9.400   7.928   1.523  0.1493 -0.2040 -0.9719
11951SOL    HW140700   9.344   7.860   1.487 -1.9209  0.8304  0.1509
11951SOL    HW240701   9.344   8.005   1.529  1.0732  0.3538  2.0544
11952SOL     OW40702   6.131   1.477   1.073 -0.0835  0.4314 -0.3779
11952SOL    HW140703   6.200   1.458   1.010 -0.2095 -0.4299 -0.2702
11952SOL    HW240704   6.059   1.511   1.020 -0.3682 -0.7492 -0.7761
11953SOL     OW40705   3.947   8.221   5.613  0.0728 -0.8042 -0.2588
11953SOL    HW140706   3.949   8.147   5.673 -2.8213 -1.0716 -0.3569
11953SOL    HW240707   3.955   8.182   5.526  1.0398 -0.7220 -0.2192
11954SOL     OW40708   6.930   5.782   6.467  0.6210 -0.0002  0.0616
11954SOL    HW140709   6.948   5.864   6.513  0.4734  0.6322 -0.9570
11954SOL    HW240710   6.840   5.793   6.435 -0.9972 -2.2493  3.3465
11955SOL     OW40711   4.602   8.926   1.688  0.4936  0.0564  0.3294
11955SOL    HW140712   4.623   8.941   1.596 -1.0356 -2.2781 -0.4848
11955SOL    HW240713   4.686   8.902   1.728  0.7215 -1.9473 -1.1933
11956SOL     OW40714   2.811   5.209   1.509  1.0229 -0.1735  0.3153
11956SOL    HW140715   2.766   5.138   1.556 -1.0850 -0.1489 -1.5099
11956SOL    HW240716   2.814   5.281   1.572 -3.3190  0.4653  0.0907
11957SOL     OW40717   1.332   9.086   6.055  0.1672  0.5750 -0.2751
11957SOL    HW140718   1.269   9.044   5.997  0.6694 -0.1630 -0.2939
11957SOL    HW240719   1.405   9.111   5.998  0.2958  0.6010 -0.1022
11958SOL     OW40720   9.730   2.668   7.757  0.1271 -0.0990  0.4129
11958SOL    HW140721   9.701   2.758   7.764  0.7614  0.3210 -1.6639
11958SOL    HW240722   9.785   2.667   7.679  0.4114 -2.2155  0.5875
11959SOL     OW40723   2.455   5.580   5.628 -0.1923  0.0971  0.3769
11959SOL    HW140724   2.505   5.586   5.547 -0.9348  1.5567 -0.0138
11959SOL    HW240725   2.384   5.518   5.608 -0.3429  0.4149 -0.0820
11960SOL     OW40726   3.298   6.082   2.771  0.0393  0.6604 -0.5823
11960SOL    HW140727   3.387   6.091   2.805  0.0713  1.6897 -0.8738
11960SOL    HW240728   3.280   5.988   2.772  0.5935  0.5465  0.8150
11961SOL     OW40729   1.374   5.635   2.375  0.6892  0.2740  0.6627
11961SOL    HW140730   1.402   5.691   2.447 -1.5581  2.3997  0.0393
11961SOL    HW240731   1.307   5.687   2.329  1.5121 -1.2617 -2.5469
11962SOL     OW40732   2.812   8.769   2.977 -0.6761 -0.3908  0.0952
11962SOL    HW140733   2.906   8.774   2.959 -0.9132  1.2826 -0.8323
11962SOL    HW240734   2.771   8.822   2.909 -2.1776  0.2795  1.4430
11963SOL     OW40735   4.852   5.775   4.334 -0.4058  0.6719  0.4066
11963SOL    HW140736   4.794   5.836   4.288 -1.3584 -0.2537  0.3449
11963SOL    HW240737   4.840   5.797   4.427  0.5673  1.7061  0.3071
11964SOL     OW40738   3.029   9.717   0.974  0.2318  0.6559 -0.1145
11964SOL    HW140739   3.095   9.648   0.973  1.8760  2.1076  1.2183
11964SOL    HW240740   2.947   9.672   0.995  1.3505 -0.8298  1.2762
11965SOL     OW40741   4.899   4.782   5.453 -0.0741 -0.7141 -0.1461
11965SOL    HW140742   4.889   4.691   5.425 -1.9755 -0.3052 -0.9959
11965SOL    HW240743   4.819   4.799   5.504  0.2314  0.4926 -0.0595
11966SOL     OW40744   8.883   1.064   3.082  0.3066 -0.0944 -0.1634
11966SOL    HW140745   8.922   1.140   3.038 -1.8394  0.5871 -1.0225
11966SOL    HW240746   8.873   1.092   3.173  0.4726  0.2751 -0.2580
11967SOL     OW40747   2.987   1.541   7.637  0.4972 -0.0597 -0.1965
11967SOL    HW140748   2.964   1.508   7.724  1.0221  0.3014  0.0876
11967SOL    HW240749   2.938   1.623   7.629  0.8746  0.1925 -0.0034
11968SOL     OW40750   8.229   6.105   5.530  0.6419 -0.5824 -0.2015
11968SOL    HW140751   8.295   6.044   5.564  3.0968  0.2205 -3.0938
11968SOL    HW240752   8.262   6.192   5.552  0.5538 -0.1632 -1.6383
11969SOL     OW40753   2.261   9.511   4.463 -0.1280  0.6528 -0.2677
11969SOL    HW140754   2.291   9.600   4.447  2.1293  0.0841  0.4500
11969SOL    HW240755   2.231   9.511   4.554  0.4817  0.5535 -0.0603
11970SOL     OW40756   4.666   5.705   9.331  0.4549  0.1158 -0.7590
11970SOL    HW140757   4.571   5.696   9.332  0.3925  0.6866  0.8893
11970SOL    HW240758   4.699   5.615   9.330 -0.1329 -0.1524  1.0456
11971SOL     OW40759   0.322   6.969   9.682  0.3800 -0.3768 -0.6037
11971SOL    HW140760   0.363   7.055   9.674 -2.5600  1.0843 -1.5199
11971SOL    HW240761   0.393   6.910   9.709  2.6790  2.1392 -0.7873
11972SOL     OW40762   2.353   9.747   4.058 -0.4141 -0.5949 -0.2042
11972SOL    HW140763   2.326   9.660   4.029  1.1280 -1.0956 -0.2280
11972SOL    HW240764   2.444   9.755   4.029 -0.1651  0.5747  0.7959
11973SOL     OW40765   7.919   0.261   7.044  1.0458 -0.4668 -0.2037
11973SOL    HW140766   7.960   0.347   7.034 -2.1711  1.4191  0.9845
11973SOL    HW240767   7.894   0.236   6.955  0.8711  0.5151 -0.4471
11974SOL     OW40768   9.503   6.553   1.385  0.3700 -0.2930 -0.3470
11974SOL    HW140769   9.560   6.623   1.417  1.2108  0.4796 -3.2480
11974SOL    HW240770   9.459   6.592   1.309 -0.5673 -2.3470 -0.9083
11975SOL     OW40771   5.935   5.989   8.078  0.5129 -0.4746 -0.0727
11975SOL    HW140772   5.983   5.949   8.006 -1.0220 -1.5924 -0.5266
11975SOL    HW240773   6.002   6.016   8.140  1.7983 -0.5439 -1.3847
11976SOL     OW40774   3.761   0.909   0.701 -0.1479  0.0099 -0.0998
11976SOL    HW140775   3.782   0.816   0.713 -3.1835 -0.9434 -1.2585
11976SOL    HW240776   3.781   0.949   0.786  5.5528 -0.5845 -0.7844
11977SOL     OW40777   3.530   4.058   1.588  0.0694 -0.4883  0.8265
11977SOL    HW140778   3.464   4.047   1.657 -1.5317  2.3407 -0.0783
11977SOL    HW240779   3.483   4.100   1.516  2.1289 -1.5708 -1.2673
11978SOL     OW40780   2.204   3.805   1.720  0.3086  0.2657 -0.1330
11978SOL    HW140781   2.251   3.815   1.638  0.2951 -0.2668 -0.2084
11978SOL    HW240782   2.261   3.843   1.786 -0.5246  2.5356 -0.6294
11979SOL     OW40783   7.591   6.594   7.457  0.6369 -0.0361  0.0873
11979SOL    HW140784   7.683   6.565   7.452  0.1812 -1.4898 -0.5666
11979SOL    HW240785   7.556   6.574   7.371 -0.7782 -1.2705  0.9112
11980SOL     OW40786   3.017   3.383   5.825  0.1692 -0.4643 -0.1238
11980SOL    HW140787   3.098   3.395   5.777  0.2016 -1.7760 -0.4465
11980SOL    HW240788   3.042   3.392   5.917  0.4972  0.0655 -0.2650
11981SOL     OW40789   1.677   8.440   2.494  0.2852 -0.2985  0.2495
11981SOL    HW140790   1.619   8.511   2.466  2.7566  1.5808 -0.4985
11981SOL    HW240791   1.668   8.374   2.425 -0.3649  0.2952 -0.2504
11982SOL     OW40792   0.795   7.678   0.530  0.5859 -0.7845 -0.4967
11982SOL    HW140793   0.753   7.747   0.582  0.7359  0.1401 -1.5822
11982SOL    HW240794   0.877   7.661   0.576 -0.2098 -1.4846  0.7449
11983SOL     OW40795   2.895   8.969   1.523  0.5161  0.2088 -0.1912
11983SOL    HW140796   2.912   9.059   1.552  1.2876  0.1199 -0.3287
11983SOL    HW240797   2.937   8.915   1.590  0.9924 -0.0228 -0.6713
11984SOL     OW40798   9.618   7.292   1.283  0.7138  0.4601  0.0253
11984SOL    HW140799   9.555   7.225   1.310 -0.4251  1.1690 -0.7388
11984SOL    HW240800   9.645   7.265   1.195 -0.4337  1.4220 -0.6580
11985SOL     OW40801   5.391   3.768   8.049 -0.0618 -0.0562 -0.1604
11985SOL    HW140802   5.432   3.728   7.973  1.8805 -2.1264  1.8246
11985SOL    HW240803   5.309   3.720   8.061 -0.6753  0.6850 -1.2257
11986SOL     OW40804   0.249   4.600   1.197 -0.0592  0.3220 -0.0319
11986SOL    HW140805   0.298   4.635   1.122 -2.5639  1.5488 -1.2146
11986SOL    HW240806   0.158   4.623   1.179 -1.2188 -2.4062  1.7259
11987SOL     OW40807   8.369   6.719   2.243  0.1726  0.0556 -0.2061
11987SOL    HW140808   8.430   6.656   2.284 -1.7550 -1.4103  0.5721
11987SOL    HW240809   8.305   6.664   2.198 -1.0851  1.5002 -0.2569
11988SOL     OW40810   8.404   0.635   9.469  0.6460  0.7908  0.0701
11988SOL    HW140811   8.326   0.637   9.524  1.6557 -2.7010  1.9204
11988SOL    HW240812   8.372   0.606   9.383 -0.2595  0.6600  0.4385
11989SOL     OW40813   1.595   2.873   7.830  0.3279  0.3849  0.3170
11989SOL    HW140814   1.612   2.851   7.922 -0.5672  0.8280  0.5991
11989SOL    HW240815   1.559   2.792   7.793 -0.2916  0.5059  0.6317
11990SOL     OW40816   7.483   0.285   8.172  0.4137  0.2584 -0.0587
11990SOL    HW140817   7.570   0.248   8.188  0.3449 -1.3673 -2.8157
11990SOL    HW240818   7.432   0.257   8.248  1.8606 -0.2264  0.7909
11991SOL     OW40819   7.632   6.160   8.721  0.5569  0.1094  0.3098
11991SOL    HW140820   7.544   6.128   8.740  0.3646  0.0641 -0.5994
11991SOL    HW240821   7.689   6.084   8.732  0.3723 -0.0567  0.1261
11992SOL     OW40822   3.074   3.062   5.588 -0.2718  0.2048  0.4751
11992SOL    HW140823   3.029   2.979   5.572 -1.7186  1.0778 -0.2717
11992SOL    HW240824   3.088   3.099   5.501 -2.7951  2.2709  0.8103
11993SOL     OW40825   2.852   8.902   6.518 -0.0932  0.0077  0.4409
11993SOL    HW140826   2.935   8.939   6.487 -1.2708  0.3840 -2.6166
11993SOL    HW240827   2.797   8.978   6.536 -1.2245 -0.1151 -2.0696
11994SOL     OW40828   5.884   3.430   0.672  0.0035 -0.0627  0.0933
11994SOL    HW140829   5.789   3.425   0.686  0.2359 -0.3048  1.7777
11994SOL    HW240830   5.907   3.344   0.634 -0.5510  0.3467 -1.2552
11995SOL     OW40831   2.260   3.432   8.532 -0.2630 -0.4557  0.3285
11995SOL    HW140832   2.340   3.387   8.503 -0.0186  0.1851  0.0024
11995SOL    HW240833   2.233   3.382   8.609  0.0839 -1.0793  0.0619
11996SOL     OW40834   3.206   8.640   3.683  0.3166  0.1156 -0.2063
11996SOL    HW140835   3.268   8.698   3.728  0.9088  1.9005 -3.0364
11996SOL    HW240836   3.256   8.560   3.666  0.4769 -0.0850  1.0773
11997SOL     OW40837   6.213   0.882   9.124 -0.2902 -0.1340 -0.1806
11997SOL    HW140838   6.290   0.840   9.084 -1.1798 -2.0342 -0.0333
11997SOL    HW240839   6.164   0.809   9.161 -0.9253  1.2723  1.9287
11998SOL     OW40840   4.155   5.792   9.132  0.0102 -0.5462 -0.4764
11998SOL    HW140841   4.136   5.710   9.088 -2.5380 -1.5035  2.0495
11998SOL    HW240842   4.083   5.850   9.107 -0.8211 -0.7229  1.3428
11999SOL     OW40843   6.811   8.326   4.502 -0.1442 -0.1405 -0.3900
11999SOL    HW140844   6.830   8.265   4.572  1.0934 -1.3483 -1.7107
11999SOL    HW240845   6.802   8.411   4.545  0.6208 -0.8401  1.1962
12000SOL     OW40846   5.630   9.351   7.869 -0.5254 -0.4426  0.1318
12000SOL    HW140847   5.561   9.292   7.841  2.5406 -3.3897 -2.0693
12000SOL    HW240848   5.617   9.430   7.816 -1.2199 -1.6403 -1.5722
12001SOL     OW40849   2.148   5.243   3.701 -0.0442 -0.3112  0.0318
12001SOL    HW140850   2.117   5.166   3.748  2.2408 -1.5825 -0.4010
12001SOL    HW240851   2.206   5.288   3.763  2.3145 -1.5432 -1.1227
12002SOL     OW40852   4.094   6.464   7.720  0.1392  0.6760  0.0044
12002SOL    HW140853   4.155   6.499   7.785  0.0200  0.1983  0.3796
12002SOL    HW240854   4.122   6.373   7.707 -0.8182  0.2714  0.6105
12003SOL     OW40855   0.254   0.420   9.042 -0.0070 -0.6910 -0.2897
12003SOL    HW140856   0.186   0.407   8.976 -1.6587 -0.5600  1.3049
12003SOL    HW240857   0.216   0.483   9.104  1.6534 -0.4621  0.5699
12004SOL     OW40858   6.599   7.181   6.217 -0.0234  0.1710 -0.0290
12004SOL    HW140859   6.680   7.228   6.239  0.0416 -0.3902  0.9884
12004SOL    HW240860   6.602   7.102   6.270 -0.8992 -0.2097 -0.5300
12005SOL     OW40861   6.704   3.183   4.756  0.2658  0.2218  0.2306
12005SOL    HW140862   6.769   3.213   4.692  0.0062  1.1040  0.3769
12005SOL    HW240863   6.736   3.217   4.839 -0.4502  0.7556  0.2872
12006SOL     OW40864   4.992   6.146   2.346 -0.2086  0.3144 -0.2184
12006SOL    HW140865   5.048   6.069   2.347 -0.3846  0.1853  0.1777
12006SOL    HW240866   4.995   6.179   2.436 -1.9863 -0.6020  0.2333
12007SOL     OW40867   8.984   5.832   9.535  0.0685 -0.1834  0.0324
12007SOL    HW140868   8.911   5.846   9.596  0.1756 -0.0925  0.1387
12007SOL    HW240869   8.993   5.916   9.490 -1.8589 -1.0101 -2.1311
12008SOL     OW40870   8.861   6.175   7.282  0.2929  0.9948  0.4524
12008SOL    HW140871   8.765   6.176   7.273  0.2439  1.2561  0.9544
12008SOL    HW240872   8.876   6.146   7.372  0.7151  0.0529  0.0894
12009SOL     OW40873   4.247   2.098   7.654 -0.5286  0.2365 -0.2795
12009SOL    HW140874   4.199   2.151   7.717 -1.9979 -0.8778 -0.3960
12009SOL    HW240875   4.186   2.085   7.581  0.8910  0.9458 -1.6802
12010SOL     OW40876   4.802   7.516   2.503  0.2636  0.0256 -0.3137
12010SOL    HW140877   4.837   7.603   2.518  1.4537 -0.5733  0.5256
12010SOL    HW240878   4.821   7.497   2.411 -0.4836  0.8457 -0.6466
12011SOL     OW40879   9.221   3.024   1.515 -0.0297 -0.3091  0.0174
12011SOL    HW140880   9.283   2.985   1.454  0.7276  0.2522  0.4129
12011SOL    HW240881   9.149   3.055   1.460  0.0638 -0.9179 -0.4512
12012SOL     OW40882   8.273   7.889   0.139  0.5763  0.3652 -0.1188
12012SOL    HW140883   8.190   7.910   0.182  0.1535 -1.7120  0.1728
12012SOL    HW240884   8.249   7.851   0.055  1.2486  0.2049 -0.2472
12013SOL     OW40885   5.218   9.224   6.011 -0.3391 -0.0773 -0.4702
12013SOL    HW140886   5.246   9.201   6.100 -1.6462 -2.8708 -0.6693
12013SOL    HW240887   5.131   9.262   6.023  0.8584  2.9068 -0.3637
12014SOL     OW40888   8.191   0.406   3.457  0.4637 -0.3062  0.0034
12014SOL    HW140889   8.168   0.414   3.365  2.2041  2.3766 -0.3237
12014SOL    HW240890   8.242   0.325   3.462  0.6448 -0.3179 -1.4680
12015SOL     OW40891   8.816   0.763   4.934 -0.4016  0.2315 -0.4836
12015SOL    HW140892   8.808   0.846   4.886  1.1488  0.2269 -0.7921
12015SOL    HW240893   8.874   0.709   4.880 -0.6502 -0.7130  0.1689
12016SOL     OW40894   1.220   6.550   3.465 -0.3125  0.2528 -0.6132
12016SOL    HW140895   1.127   6.554   3.491  0.2382 -2.0406  2.2624
12016SOL    HW240896   1.221   6.491   3.390 -1.0963 -0.9963  0.3103
12017SOL     OW40897   2.187   5.136   8.036  0.2327 -0.6113 -0.2008
12017SOL    HW140898   2.217   5.207   8.094  0.1112 -0.7523  0.0388
12017SOL    HW240899   2.265   5.083   8.022  0.1870 -0.7616  0.1050
12018SOL     OW40900   2.496   1.670   2.732  0.4451 -0.3926 -0.9686
12018SOL    HW140901   2.437   1.672   2.808  0.1037 -0.2087 -1.2345
12018SOL    HW240902   2.477   1.586   2.690 -1.4537  0.6968 -2.4611
12019SOL     OW40903   7.687   3.775   8.923  0.0868 -0.2569  0.0434
12019SOL    HW140904   7.725   3.847   8.873  0.7591 -0.2014  0.6158
12019SOL    HW240905   7.725   3.696   8.883 -0.1965 -0.2652 -0.2092
12020SOL     OW40906   9.464   3.359   6.089 -0.4721  0.3211 -0.2769
12020SOL    HW140907   9.457   3.348   5.994 -2.1839  1.7869 -0.3696
12020SOL    HW240908   9.374   3.356   6.120  0.1127 -1.0147  1.4483
12021SOL     OW40909   2.582   0.447   9.469 -0.0961  0.1127 -0.5844
12021SOL    HW140910   2.623   0.525   9.433  0.6985 -0.7498 -1.6383
12021SOL    HW240911   2.500   0.437   9.419  0.1450 -0.1014 -0.9448
12022SOL     OW40912   9.551   0.628   4.944  0.6419  0.0615 -0.0736
12022SOL    HW140913   9.471   0.580   4.921 -1.3085  1.9316  2.2044
12022SOL    HW240914   9.557   0.697   4.878  1.0370 -0.6895 -0.8551
12023SOL     OW40915   7.939   7.686   5.988  0.1922 -0.6633 -0.2956
12023SOL    HW140916   7.975   7.772   5.967  1.6839 -0.7039  1.8194
12023SOL    HW240917   8.007   7.624   5.961 -0.9609 -1.2485 -2.0060
12024SOL     OW40918   8.858   6.199   8.877 -0.2378  0.1336  0.6564
12024SOL    HW140919   8.857   6.175   8.784 -0.5016 -0.4030  0.7934
12024SOL    HW240920   8.903   6.284   8.879 -1.2068  0.6897 -0.0805
12025SOL     OW40921   8.738   0.532   2.784  0.4463  0.1283  0.5265
12025SOL    HW140922   8.726   0.532   2.689 -1.0010  0.5697  0.6980
12025SOL    HW240923   8.787   0.612   2.802  0.6797  0.0715  0.1729
12026SOL     OW40924   2.179   1.606   4.545  0.1549 -0.9238 -0.2325
12026SOL    HW140925   2.107   1.650   4.501  0.8890  1.1892  0.5385
12026SOL    HW240926   2.149   1.595   4.635  0.2961 -1.2485 -0.2242
12027SOL     OW40927   9.495   6.183   4.565  0.5028  0.1491 -0.2426
12027SOL    HW140928   9.574   6.216   4.521 -0.4345  0.1586 -2.0156
12027SOL    HW240929   9.470   6.106   4.514  0.0533 -0.6071  1.0625
12028SOL     OW40930   3.951   6.939   6.119 -0.0899  0.6071 -0.3250
12028SOL    HW140931   3.978   6.904   6.203  0.0036  1.3986 -0.0149
12028SOL    HW240932   3.887   6.876   6.086  0.7462 -0.3130 -0.2143
12029SOL     OW40933   8.383   2.667   9.269  0.4211  0.5799 -0.0955
12029SOL    HW140934   8.357   2.741   9.215 -0.4029 -0.2582 -0.8760
12029SOL    HW240935   8.318   2.663   9.339 -1.1921 -1.0136 -1.5844
12030SOL     OW40936   0.188   7.841   7.447  0.5807  0.5747  0.0937
12030SOL    HW140937   0.264   7.884   7.408 -0.5105  1.4129 -1.2173
12030SOL    HW240938   0.225   7.772   7.502  2.2715  0.5608 -0.9667
12031SOL     OW40939   0.404   0.624   3.299  0.1513  0.7935  0.3756
12031SOL    HW140940   0.350   0.675   3.359 -0.5210  1.3008 -0.6257
12031SOL    HW240941   0.476   0.683   3.275  1.1728  0.1360  1.6707
12032SOL     OW40942   7.727   0.705   3.021 -0.3622 -0.3700  0.5840
12032SOL    HW140943   7.635   0.726   3.034 -0.5611 -0.5432 -0.4223
12032SOL    HW240944   7.755   0.667   3.104 -0.7381  1.2159  1.4737
12033SOL     OW40945   7.820   6.659   2.648  0.2414  0.1301 -0.1686
12033SOL    HW140946   7.781   6.643   2.734 -1.5203  0.5446 -0.8520
12033SOL    HW240947   7.850   6.750   2.652 -1.3020  0.6895 -0.4787
12034SOL     OW40948   1.054   5.909   5.083 -0.0247 -0.2304  0.1099
12034SOL    HW140949   1.009   5.988   5.055  1.0768  0.2992 -0.2464
12034SOL    HW240950   1.011   5.883   5.165  0.3878  1.4565  0.9091
12035SOL     OW40951   4.820   3.730   1.741 -0.2617  0.1674 -0.2284
12035SOL    HW140952   4.875   3.667   1.695 -0.3493 -0.1155  0.0480
12035SOL    HW240953   4.878   3.804   1.761  0.4947 -0.8518  1.5922
12036SOL     OW40954   4.385   7.787   8.017  0.3949  1.1862 -0.3758
12036SOL    HW140955   4.341   7.801   7.933 -1.4387  1.1044  0.5321
12036SOL    HW240956   4.356   7.859   8.072 -0.7782 -0.3203  1.0805
12037SOL     OW40957   7.224   9.124   7.092  0.1101 -0.0726 -0.4245
12037SOL    HW140958   7.130   9.139   7.083  0.2253  1.9647  0.9378
12037SOL    HW240959   7.241   9.045   7.042 -2.2623 -0.2861 -1.0125
12038SOL     OW40960   4.958   2.373   1.913  0.9176  0.3038  0.4740
12038SOL    HW140961   5.047   2.348   1.939  0.8030 -1.4371 -0.6295
12038SOL    HW240962   4.908   2.372   1.995  1.4127 -1.1047  0.7983
12039SOL     OW40963   3.043   4.113   7.892 -0.2540  0.0256  0.0697
12039SOL    HW140964   3.075   4.149   7.974 -3.0034 -1.9978  2.2450
12039SOL    HW240965   3.092   4.032   7.880 -1.7960 -1.1783  1.4105
12040SOL     OW40966   3.293   5.536   3.413  0.3189 -0.7687  0.5325
12040SOL    HW140967   3.315   5.553   3.505  2.5344  0.6643 -0.1997
12040SOL    HW240968   3.374   5.553   3.365 -1.3136  0.6175 -1.9336
12041SOL     OW40969   0.490   1.767   0.873  0.3304 -0.5549  0.3643
12041SOL    HW140970   0.443   1.700   0.823  0.1386  1.2153 -2.0065
12041SOL    HW240971   0.422   1.807   0.928 -0.0055 -0.8869  0.1982
12042SOL     OW40972   4.282   1.670   8.297 -0.3042  0.2843 -0.9080
12042SOL    HW140973   4.261   1.705   8.211  0.1015  0.3761 -0.9700
12042SOL    HW240974   4.244   1.732   8.359 -0.3530  0.3641 -1.0198
12043SOL     OW40975   9.139   1.389   5.197  0.5810  0.1181 -0.4857
12043SOL    HW140976   9.075   1.359   5.262  0.7975  1.3916  0.3662
12043SOL    HW240977   9.088   1.404   5.118 -0.0995  0.6709  0.0496
12044SOL     OW40978   5.832   9.369   6.431  0.2129 -0.3518 -0.0820
12044SOL    HW140979   5.802   9.307   6.364  1.2941 -0.4719 -0.4712
12044SOL    HW240980   5.868   9.313   6.500  0.4273 -0.1890 -0.0621
12045SOL     OW40981   3.813   2.352   9.060 -0.3972 -0.0096  0.3545
12045SOL    HW140982   3.893   2.368   9.009 -1.0093  0.5446 -0.4398
12045SOL    HW240983   3.752   2.419   9.032 -1.7132 -1.4029 -0.2364
12046SOL     OW40984   4.362   5.289   9.743 -0.4230 -0.0056 -0.3794
12046SOL    HW140985   4.414   5.336   9.809 -0.3314 -1.4656  0.6403
12046SOL    HW240986   4.332   5.357   9.684 -2.2166  1.7131  2.2991
12047SOL     OW40987   8.724   6.964   9.681 -0.1887 -0.2882 -0.1381
12047SOL    HW140988   8.631   6.969   9.705 -0.0999  0.9001  0.0357
12047SOL    HW240989   8.744   6.871   9.680 -0.7878 -0.4932  2.1786
12048SOL     OW40990   5.118   5.669   7.957  0.2958  0.1410 -0.1213
12048SOL    HW140991   5.163   5.751   7.939  0.4070  0.4736  1.4833
12048SOL    HW240992   5.141   5.649   8.048 -3.2977  0.6893  1.0461
12049SOL     OW40993   2.890   4.166   2.114 -0.2709  0.1710 -0.0728
12049SOL    HW140994   2.916   4.207   2.196  0.0455 -0.4254  0.1311
12049SOL    HW240995   2.907   4.073   2.127 -1.9628 -0.1811 -0.1553
12050SOL     OW40996   1.536   8.920   6.317 -0.0453  0.2930 -0.0370
12050SOL    HW140997   1.493   8.851   6.267  0.5750  0.1265 -0.3630
12050SOL    HW240998   1.592   8.964   6.253 -0.9662  1.5650  0.0069
12051SOL     OW40999   5.939   9.000   7.195 -0.9063 -0.6903 -0.0673
12051SOL    HW141000   5.993   8.981   7.118 -1.5677 -1.8077 -0.2617
12051SOL    HW241001   5.966   8.935   7.260  0.0524  0.5924  0.8733
12052SOL     OW41002   5.543   4.239   8.471 -0.6692  0.4638 -0.0414
12052SOL    HW141003   5.509   4.267   8.556  1.5793  1.7362  0.5150
12052SOL    HW241004   5.590   4.315   8.437  1.3391 -1.0529 -0.8435
12053SOL     OW41005   1.897   9.007   4.615  0.0032  0.8996 -0.4624
12053SOL    HW141006   1.990   9.007   4.594  0.3501 -2.0854  0.6250
12053SOL    HW241007   1.884   8.930   4.670 -3.0879  1.3347 -0.3686
12054SOL     OW41008   7.364   5.433   6.931 -0.5920  0.1228 -0.3437
12054SOL    HW141009   7.426   5.506   6.938 -2.0562  1.5872 -1.8172
12054SOL    HW241010   7.334   5.419   7.021  0.5908  0.5313  0.1419
12055SOL     OW41011   4.702   1.543   5.152 -0.6179 -0.0933 -0.7003
12055SOL    HW141012   4.614   1.513   5.172 -0.3623 -0.0308  0.5582
12055SOL    HW241013   4.714   1.622   5.204  0.5713 -0.7336  0.0570
12056SOL     OW41014   8.678   3.925   4.000 -0.9842 -0.0006  0.2481
12056SOL    HW141015   8.694   4.016   3.973 -1.0760 -0.0522  0.0198
12056SOL    HW241016   8.624   3.888   3.930 -0.9952 -0.2156  0.3694
12057SOL     OW41017   3.324   8.391   6.487  0.1649 -0.3682  0.7911
12057SOL    HW141018   3.307   8.483   6.505  2.9780  0.0509  1.7205
12057SOL    HW241019   3.313   8.382   6.393 -1.6413  0.5119  0.8820
12058SOL     OW41020   4.162   1.741   3.017 -0.1676 -0.3200 -0.4847
12058SOL    HW141021   4.106   1.771   3.089  2.0481 -0.8465  1.5918
12058SOL    HW241022   4.206   1.820   2.986  0.0184 -0.3119 -0.2025
12059SOL     OW41023   7.475   5.943   3.968 -0.2300  0.0249  0.1459
12059SOL    HW141024   7.381   5.927   3.962 -0.5253  0.7344  2.1043
12059SOL    HW241025   7.485   5.997   4.047  1.7160  0.8372 -0.5885
12060SOL     OW41026   8.001   9.048   1.325  0.6640  0.5359 -0.2181
12060SOL    HW141027   8.035   8.994   1.253  1.6452  0.6914  0.1085
12060SOL    HW241028   7.914   9.013   1.343  0.8494 -0.2132 -0.7493
12061SOL     OW41029   2.751   2.324   1.357 -0.1677 -0.0537  0.3967
12061SOL    HW141030   2.706   2.403   1.327 -0.2501 -0.1452  0.2748
12061SOL    HW241031   2.749   2.266   1.281 -0.6469 -0.4073  0.6744
12062SOL     OW41032   2.781   7.875   2.462 -0.4104  0.0954 -0.5971
12062SOL    HW141033   2.700   7.891   2.510  0.6926  0.0891  1.3736
12062SOL    HW241034   2.836   7.950   2.482  0.3495 -0.2731 -1.2605
12063SOL     OW41035   6.026   4.433   8.844 -0.3332 -0.1985 -0.5833
12063SOL    HW141036   6.078   4.433   8.924  1.3744  2.6659 -1.5213
12063SOL    HW241037   6.086   4.398   8.777 -0.4497  0.8116 -1.2361
12064SOL     OW41038   3.433   6.328   1.241  0.0035  0.2066 -0.8372
12064SOL    HW141039   3.474   6.271   1.175 -0.0137 -0.6538 -0.1332
12064SOL    HW241040   3.483   6.410   1.236 -0.4004  0.3934 -2.3333
12065SOL     OW41041   2.649   8.816   6.800 -0.1631 -0.1927 -0.1192
12065SOL    HW141042   2.699   8.771   6.731 -1.6063 -1.0164 -0.6741
12065SOL    HW241043   2.682   8.906   6.799 -0.7124  0.0452 -2.4913
12066SOL     OW41044   0.430   1.801   2.211 -0.0116  0.6778  0.5533
12066SOL    HW141045   0.369   1.830   2.143 -0.4039 -0.7280  0.2561
12066SOL    HW241046   0.406   1.850   2.289 -2.2918 -0.6238  0.7442
12067SOL     OW41047   4.448   6.247   9.089 -0.7454  0.6286  0.1130
12067SOL    HW141048   4.489   6.229   9.174  0.7186 -0.6907 -0.8254
12067SOL    HW241049   4.516   6.289   9.038 -0.3233 -1.9453 -1.6183
12068SOL     OW41050   8.700   1.649   2.598 -0.0904  0.1211  0.9740
12068SOL    HW141051   8.715   1.721   2.658 -2.4784  0.9706  0.6668
12068SOL    HW241052   8.636   1.683   2.535 -1.8230 -2.4127  1.1903
12069SOL     OW41053   7.448   8.728   0.485  0.1600 -0.2080 -0.3113
12069SOL    HW141054   7.410   8.670   0.420 -0.0531 -0.4709  0.0503
12069SOL    HW241055   7.427   8.689   0.569  1.7701 -0.7221 -0.1031
12070SOL     OW41056   7.566   8.066   5.152 -0.2028  0.1065 -0.5746
12070SOL    HW141057   7.583   8.044   5.060 -3.1543  0.9549 -1.4345
12070SOL    HW241058   7.489   8.013   5.174  0.4883 -0.1108  1.4578
12071SOL     OW41059   7.989   7.083   7.615  0.4898  0.4088 -0.5690
12071SOL    HW141060   7.977   6.993   7.643 -3.1649  1.5998  2.6452
12071SOL    HW241061   7.916   7.100   7.556  1.2582  1.2612 -1.3135
12072SOL     OW41062   3.309   6.269   9.206  0.1002 -0.1684 -0.2524
12072SOL    HW141063   3.265   6.258   9.122  0.8571 -1.3771 -0.5142
12072SOL    HW241064   3.263   6.342   9.248  1.9505  2.9623 -3.1996
12073SOL     OW41065   0.236   8.921   7.053  0.2081  0.4646  0.7445
12073SOL    HW141066   0.294   8.849   7.030 -1.1497 -0.4982  0.2596
12073SOL    HW241067   0.204   8.954   6.969 -3.0139 -1.6039  1.0235
12074SOL     OW41068   4.458   6.107   6.225 -0.1319 -0.0570 -0.0418
12074SOL    HW141069   4.523   6.085   6.292  0.4136 -1.8039 -1.0750
12074SOL    HW241070   4.505   6.096   6.142 -1.3226  0.1967 -0.7651
12075SOL     OW41071   0.988   3.050   5.047 -0.5777 -0.2004  0.5827
12075SOL    HW141072   1.006   3.119   5.111 -0.4147  2.0999 -1.7947
12075SOL    HW241073   1.072   3.007   5.034 -0.1879  0.5617  0.5379
12076SOL     OW41074   6.295   0.431   9.751 -0.3663 -0.3178  0.1721
12076SOL    HW141075   6.377   0.477   9.734 -0.2683 -0.1958  0.9287
12076SOL    HW241076   6.235   0.462   9.683  0.0153  0.1174  0.0315
12077SOL     OW41077   5.174   3.445   7.672 -0.3342 -0.0433 -0.1631
12077SOL    HW141078   5.268   3.446   7.656 -0.6097 -0.4422 -1.9847
12077SOL    HW241079   5.153   3.536   7.695  0.8535 -0.4334  3.0005
12078SOL     OW41080   9.185   7.043   3.636  0.1032  0.4996 -0.5378
12078SOL    HW141081   9.278   7.026   3.625  0.4023  1.9536 -0.4619
12078SOL    HW241082   9.142   6.983   3.575  1.1158  0.2396 -1.0072
12079SOL     OW41083   9.555   7.127   0.110 -0.0838  0.3120  0.2780
12079SOL    HW141084   9.504   7.182   0.170  0.5005  1.1694  0.0056
12079SOL    HW241085   9.495   7.109   0.037  0.1174  1.6937 -0.2624
12080SOL     OW41086   2.384   4.636   6.326  0.7709 -0.7515  0.2703
12080SOL    HW141087   2.313   4.650   6.263 -0.3863 -0.4640  1.5773
12080SOL    HW241088   2.463   4.665   6.281 -0.2191  0.7559 -0.5670
12081SOL     OW41089   0.359   7.631   5.002 -0.7005  0.2903 -0.0607
12081SOL    HW141090   0.280   7.594   4.962 -1.6168  1.0408  0.9626
12081SOL    HW241091   0.338   7.724   5.011 -0.2187  0.2763  1.3913
12082SOL     OW41092   5.819   4.541   3.789  0.1802 -0.4762  0.4153
12082SOL    HW141093   5.854   4.614   3.840  0.4782 -1.0054  0.9775
12082SOL    HW241094   5.733   4.524   3.829 -0.1444 -0.0545 -0.0951
12083SOL     OW41095   8.327   4.492   7.510  0.2840  0.1795  0.0126
12083SOL    HW141096   8.383   4.451   7.444  0.0558  0.4309 -0.3404
12083SOL    HW241097   8.349   4.447   7.592  0.4777 -0.2153 -0.2569
12084SOL     OW41098   2.979   0.606   1.710 -0.0332 -0.3092 -0.2112
12084SOL    HW141099   3.034   0.622   1.634  1.1337 -0.6079  0.5446
12084SOL    HW241100   3.003   0.519   1.740 -1.4301 -0.7430 -0.2617
12085SOL     OW41101   3.090   6.135   3.822  0.0755 -0.2805 -0.1666
12085SOL    HW141102   3.112   6.116   3.731 -0.1362  1.4002 -0.5938
12085SOL    HW241103   3.171   6.168   3.860 -0.0467 -0.2004  0.0287
12086SOL     OW41104   0.214   3.489   6.758 -0.1888  0.2001 -0.2179
12086SOL    HW141105   0.292   3.439   6.734 -0.9226 -1.0739 -0.0488
12086SOL    HW241106   0.218   3.497   6.853  0.5602  1.6001 -0.3298
12087SOL     OW41107   7.558   2.957   8.109  0.3503  0.0425 -0.5641
12087SOL    HW141108   7.463   2.949   8.112  0.2824  0.5774  3.2753
12087SOL    HW241109   7.587   2.876   8.067 -1.7378 -1.6649  1.0276
12088SOL     OW41110   3.392   9.588   3.283 -0.0571 -0.0835  0.3441
12088SOL    HW141111   3.360   9.543   3.205  2.3313 -1.0644 -0.1608
12088SOL    HW241112   3.422   9.673   3.251 -0.4314  0.1025  0.4788
12089SOL     OW41113   8.613   5.461   9.499 -0.4722 -0.5767  0.6176
12089SOL    HW141114   8.602   5.385   9.556 -1.2024 -1.3304 -0.4773
12089SOL    HW241115   8.627   5.534   9.559 -1.7130 -1.2538  1.7976
12090SOL     OW41116   2.209   3.611   0.964  0.6156 -0.4038  0.0945
12090SOL    HW141117   2.257   3.575   0.889  0.2168 -3.8748  1.3075
12090SOL    HW241118   2.276   3.634   1.028  0.8390 -1.6929  0.3471
12091SOL     OW41119   4.429   4.130   0.440 -0.0962  0.3256  0.1451
12091SOL    HW141120   4.395   4.193   0.376  0.2736  0.5972  0.2139
12091SOL    HW241121   4.473   4.184   0.506  0.5598 -0.0276  0.0073
12092SOL     OW41122   0.189   1.226   4.708  0.1693  0.5705 -0.0505
12092SOL    HW141123   0.238   1.250   4.787  1.2014  1.8552 -1.0460
12092SOL    HW241124   0.247   1.249   4.636  0.1930 -2.6319 -1.2202
12093SOL     OW41125   7.117   9.333   0.582  1.2799  0.0932  0.4106
12093SOL    HW141126   7.103   9.260   0.520 -1.1474  0.9835 -0.2335
12093SOL    HW241127   7.090   9.297   0.667  0.3809  0.1254  0.1496
12094SOL     OW41128   1.382   3.947   1.300 -0.2525  1.1006  0.6611
12094SOL    HW141129   1.369   4.033   1.260  1.1433  0.6762 -0.8164
12094SOL    HW241130   1.390   3.966   1.394 -0.1126  2.5728  0.3807
12095SOL     OW41131   4.473   5.265   2.778 -0.1654 -0.1911 -0.3766
12095SOL    HW141132   4.460   5.210   2.856 -1.0646  1.2217  0.5078
12095SOL    HW241133   4.479   5.354   2.812  2.7349  0.1958 -1.6574
12096SOL     OW41134   7.145   9.249   2.542  0.3562  0.1318  0.4529
12096SOL    HW141135   7.195   9.273   2.620 -0.2155  1.9902  0.2853
12096SOL    HW241136   7.147   9.327   2.487  0.6114 -1.0823 -1.3578
12097SOL     OW41137   3.834   3.670   8.837  0.9166 -0.2903  0.2614
12097SOL    HW141138   3.902   3.617   8.878  0.1717 -1.4410  0.0687
12097SOL    HW241139   3.840   3.649   8.744 -1.6046 -2.7806  0.5408
12098SOL     OW41140   9.186   2.852   9.574  0.0291 -0.2226  0.2662
12098SOL    HW141141   9.110   2.822   9.524 -1.1537 -0.5989  2.1545
12098SOL    HW241142   9.222   2.772   9.613  0.8869  0.0578  0.0595
12099SOL     OW41143   5.353   1.661   2.729 -0.2064 -0.5531  0.1346
12099SOL    HW141144   5.374   1.647   2.821  0.0626 -1.6193 -0.0738
12099SOL    HW241145   5.403   1.739   2.705 -1.0835  0.3395  1.1349
12100SOL     OW41146   8.634   4.011   3.369 -0.0700  0.5147  0.4377
12100SOL    HW141147   8.655   3.999   3.276  1.5543 -0.4556  0.8906
12100SOL    HW241148   8.552   4.060   3.369 -0.2784  0.2362 -1.5112
12101SOL     OW41149   0.351   8.257   2.775  0.4132 -0.6223 -0.1900
12101SOL    HW141150   0.261   8.241   2.749  0.5092 -1.4221 -0.0655
12101SOL    HW241151   0.363   8.352   2.766  0.0876 -0.7243 -1.8814
12102SOL     OW41152   0.764   5.251   8.866  0.3023 -0.6847  0.2329
12102SOL    HW141153   0.738   5.333   8.909  0.8640 -1.0071  1.2198
12102SOL    HW241154   0.682   5.217   8.829 -0.1724 -0.3097  0.9117
12103SOL     OW41155   5.047   0.037   6.803  0.0868  0.4544 -0.7694
12103SOL    HW141156   5.107   0.016   6.731 -0.5666 -3.4366 -0.3851
12103SOL    HW241157   5.099   0.023   6.882 -1.2442 -4.0553 -0.3808
12104SOL     OW41158   8.179   8.920   5.683  0.1735  0.5414  0.2745
12104SOL    HW141159   8.248   8.967   5.636 -0.3010 -0.5102 -1.5729
12104SOL    HW241160   8.217   8.901   5.769  1.6644  1.1887 -0.2187
12105SOL     OW41161   6.371   8.329   4.215 -0.0029  0.0676 -0.0682
12105SOL    HW141162   6.323   8.279   4.149 -0.1134 -1.9216  1.4263
12105SOL    HW241163   6.423   8.392   4.164 -2.1466  0.5005 -1.8672
12106SOL     OW41164   3.673   0.145   0.563  0.8622 -0.0271  0.6021
12106SOL    HW141165   3.703   0.185   0.644  2.3663  0.5244 -0.2052
12106SOL    HW241166   3.753   0.120   0.517  0.0238 -0.8093 -0.4852
12107SOL     OW41167   4.283   6.005   5.340  0.4080  0.5252  0.6846
12107SOL    HW141168   4.229   6.000   5.419  0.3305  0.9771  0.6640
12107SOL    HW241169   4.307   6.097   5.333  0.3089  0.5167  0.1131
12108SOL     OW41170   6.180   5.973   1.805  0.0894  0.5243 -0.1649
12108SOL    HW141171   6.201   5.930   1.888  2.5140 -1.0938 -1.4714
12108SOL    HW241172   6.092   6.007   1.816  0.2904  0.2573  3.0055
12109SOL     OW41173   9.631   9.562   8.043 -0.0430  0.2241  0.0651
12109SOL    HW141174   9.538   9.582   8.041 -0.5024 -1.7318  0.2635
12109SOL    HW241175   9.661   9.592   8.129 -0.6501  0.2171  0.2800
12110SOL     OW41176   7.701   5.466   9.068  0.4346  0.1720  0.0159
12110SOL    HW141177   7.706   5.381   9.025  2.5928  0.1457  0.2492
12110SOL    HW241178   7.743   5.527   9.007 -2.2206  1.4052 -0.7536
12111SOL     OW41179   0.324   7.716   6.389 -0.1717  0.0412  0.2955
12111SOL    HW141180   0.295   7.766   6.466  1.3312  1.0848  0.2374
12111SOL    HW241181   0.414   7.692   6.409 -0.9481 -3.1466  0.5030
12112SOL     OW41182   0.520   2.580   6.154 -0.2035 -0.2857 -0.3540
12112SOL    HW141183   0.456   2.513   6.177 -0.6452 -0.0335 -0.8108
12112SOL    HW241184   0.605   2.542   6.176 -0.3264 -1.5973 -1.9522
12113SOL     OW41185   7.357   6.532   2.881 -0.4976 -0.3369 -0.0064
12113SOL    HW141186   7.386   6.602   2.823 -4.4639  0.0603 -1.8205
12113SOL    HW241187   7.329   6.577   2.961 -2.6908  0.2188 -1.0295
12114SOL     OW41188   1.828   2.189   6.814 -0.6519  0.4012 -0.9747
12114SOL    HW141189   1.814   2.147   6.899  1.2431  0.5740 -0.5463
12114SOL    HW241190   1.781   2.273   6.821 -2.5740 -0.6151 -1.0362
12115SOL     OW41191   8.231   2.484   3.577  0.2225  0.5029  0.7337
12115SOL    HW141192   8.293   2.469   3.648  3.4077  1.8658 -1.5241
12115SOL    HW241193   8.149   2.506   3.621  1.7249  0.2821  3.9443
12116SOL     OW41194   0.405   1.069   0.728  0.1238  0.3553  0.1822
12116SOL    HW141195   0.415   1.096   0.637  2.7755  0.2808  0.3845
12116SOL    HW241196   0.314   1.040   0.735 -0.5249  1.6783 -2.0590
12117SOL     OW41197   3.801   9.234   2.330  0.2009  0.3359 -0.4635
12117SOL    HW141198   3.874   9.196   2.379 -0.2498 -0.1710 -0.1913
12117SOL    HW241199   3.726   9.178   2.349 -0.0408  0.2719 -1.5327
12118SOL     OW41200   5.491   3.680   6.211 -0.1627 -0.2629 -0.1819
12118SOL    HW141201   5.494   3.584   6.210  1.6791 -0.2611  0.8887
12118SOL    HW241202   5.472   3.704   6.120 -1.9212 -1.6380 -0.2188
12119SOL     OW41203   1.137   8.247   9.002  0.4673  0.2059  0.6270
12119SOL    HW141204   1.139   8.161   8.960  0.6719  0.7464 -0.5109
12119SOL    HW241205   1.165   8.308   8.934  0.7645  1.1336  1.5440
12120SOL     OW41206   6.831   2.625   4.751 -0.3887 -0.0373  0.3491
12120SOL    HW141207   6.901   2.689   4.766  1.2678 -1.6839 -0.0722
12120SOL    HW241208   6.842   2.598   4.660 -2.7379  0.9550 -0.3015
12121SOL     OW41209   2.245   2.528   5.574 -1.0269  0.1649 -0.1031
12121SOL    HW141210   2.187   2.453   5.560 -0.7168 -0.2412  0.7300
12121SOL    HW241211   2.244   2.541   5.669 -0.3853  0.6600 -0.1604
12122SOL     OW41212   3.291   3.598   1.201 -0.0365  0.2367  0.0097
12122SOL    HW141213   3.292   3.629   1.292 -2.1006 -0.6275  0.3660
12122SOL    HW241214   3.283   3.503   1.208 -0.6719  0.1954 -1.0686
12123SOL     OW41215   2.178   2.724   1.820 -0.2307 -0.5925 -0.0179
12123SOL    HW141216   2.220   2.667   1.756 -0.6739 -1.3048  0.3134
12123SOL    HW241217   2.220   2.809   1.808  1.4400 -1.3178  0.4299
12124SOL     OW41218   9.521   9.609   4.646  0.6700  0.0438 -0.1018
12124SOL    HW141219   9.573   9.649   4.576 -0.2002  1.7394  0.1727
12124SOL    HW241220   9.489   9.683   4.698 -1.0635 -0.9996  0.3997
12125SOL     OW41221   6.464   7.952   0.483  0.4875  0.3966 -0.2126
12125SOL    HW141222   6.549   7.996   0.483  0.8846 -0.3510  0.4308
12125SOL    HW241223   6.447   7.933   0.575 -0.4833  0.7231 -0.3162
12126SOL     OW41224   8.548   8.147   0.571 -0.4851  0.4092  0.2329
12126SOL    HW141225   8.516   8.061   0.542  0.2049  0.5446 -0.9641
12126SOL    HW241226   8.574   8.133   0.662 -0.0123 -0.7638 -0.0623
12127SOL     OW41227   2.526   5.228   5.647 -0.1713  0.1001  0.4384
12127SOL    HW141228   2.608   5.257   5.607  0.9648 -1.1104  1.7700
12127SOL    HW241229   2.510   5.142   5.609  0.0301 -0.3390  1.3254
12128SOL     OW41230   3.719   4.620   8.619 -0.6949 -0.1497  0.5896
12128SOL    HW141231   3.799   4.654   8.659 -1.2055  1.9479 -0.0728
12128SOL    HW241232   3.664   4.596   8.694  0.4307 -1.4370  1.0522
12129SOL     OW41233   7.898   4.609   1.694  0.0019 -0.0321  0.3050
12129SOL    HW141234   7.913   4.547   1.623 -0.6545  0.8890 -0.6524
12129SOL    HW241235   7.912   4.695   1.655 -3.1598  0.6815  0.4675
12130SOL     OW41236   6.325   3.486   2.377  0.4538 -0.4736  0.4366
12130SOL    HW141237   6.421   3.489   2.381  0.6196 -2.4953 -0.7910
12130SOL    HW241238   6.302   3.407   2.425 -0.4638 -0.9417 -0.7386
12131SOL     OW41239   1.527   4.888   8.261 -0.2713  0.1947  0.1103
12131SOL    HW141240   1.594   4.936   8.213  0.7037 -0.6526  0.5797
12131SOL    HW241241   1.476   4.843   8.194  0.2487  0.0771 -0.2113
12132SOL     OW41242   6.194   0.891   3.833  0.7229  0.3145  0.7295
12132SOL    HW141243   6.215   0.850   3.749 -0.2254  0.2850  0.5004
12132SOL    HW241244   6.178   0.983   3.811 -1.7994 -0.1196  0.4789
12133SOL     OW41245   4.002   4.120   1.989 -0.0009 -0.7024  0.1658
12133SOL    HW141246   4.056   4.069   2.049  0.0153 -1.0445 -0.1293
12133SOL    HW241247   3.928   4.062   1.968 -1.1798  0.2370  1.5709
12134SOL     OW41248   0.370   1.159   2.687  0.0044  0.0689  0.1605
12134SOL    HW141249   0.458   1.188   2.712 -0.6555  2.0975  0.3068
12134SOL    HW241250   0.321   1.159   2.769 -0.4761  0.3049 -0.1218
12135SOL     OW41251   8.354   0.563   7.757  0.2397  0.1085 -0.4270
12135SOL    HW141252   8.259   0.560   7.745  0.2212  1.2597 -0.6837
12135SOL    HW241253   8.389   0.571   7.668  0.5461  0.2192 -0.2996
12136SOL     OW41254   4.506   0.667   4.304 -0.0314 -0.7556  0.0285
12136SOL    HW141255   4.436   0.688   4.366 -0.2654  0.7402 -0.7068
12136SOL    HW241256   4.461   0.641   4.224  0.2587 -0.9505 -0.0720
12137SOL     OW41257   5.226   8.479   4.879  0.0434  0.4476  0.2550
12137SOL    HW141258   5.166   8.425   4.931 -0.5714  1.3851  0.5361
12137SOL    HW241259   5.267   8.537   4.943  0.1707  0.8033 -0.1460
12138SOL     OW41260   4.482   3.380   3.421 -0.3141 -0.8268  0.9213
12138SOL    HW141261   4.513   3.456   3.373 -1.0389 -1.0353  0.0989
12138SOL    HW241262   4.495   3.403   3.513  2.9526 -1.1884  0.6755
12139SOL     OW41263   0.134   6.760   0.188 -0.2566 -0.2593  0.5234
12139SOL    HW141264   0.045   6.783   0.215 -0.1604 -1.1483  1.6783
12139SOL    HW241265   0.180   6.844   0.187 -0.2652 -0.1340  3.2831
12140SOL     OW41266   6.387   3.970   6.448 -0.7761 -0.1705 -0.2443
12140SOL    HW141267   6.443   3.956   6.371  0.0748 -0.7468  0.4449
12140SOL    HW241268   6.373   3.882   6.483 -1.9555 -0.0098 -0.2748
12141SOL     OW41269   7.822   2.709   1.296  0.6864 -0.5653  0.2116
12141SOL    HW141270   7.822   2.665   1.381  2.7283 -1.8693 -0.4079
12141SOL    HW241271   7.755   2.663   1.246 -1.0769  0.7029  1.2794
12142SOL     OW41272   3.806   6.606   4.862 -0.2916 -0.1385  0.4222
12142SOL    HW141273   3.791   6.610   4.957  0.2467  1.2005  0.4734
12142SOL    HW241274   3.723   6.576   4.826 -0.3230 -1.2488  1.3532
12143SOL     OW41275   7.230   3.198   6.014  0.0852 -0.0682  0.2345
12143SOL    HW141276   7.138   3.184   5.989  0.0627  0.6308 -0.0972
12143SOL    HW241277   7.225   3.258   6.089  0.3124  1.1524 -0.6912
12144SOL     OW41278   1.495   8.439   4.707 -0.2084  1.0525 -0.1075
12144SOL    HW141279   1.444   8.436   4.788 -1.6228 -1.7831 -0.9348
12144SOL    HW241280   1.585   8.422   4.734 -0.7409 -0.4486  0.8781
12145SOL     OW41281   8.090   2.817   4.492  0.1450  0.4092  0.3298
12145SOL    HW141282   8.070   2.727   4.468  0.0035  0.3161  0.7899
12145SOL    HW241283   8.105   2.861   4.409  0.5799 -0.1248  0.1162
12146SOL     OW41284   5.014   1.491   6.923  0.5389  0.4319  0.5172
12146SOL    HW141285   5.007   1.411   6.975 -2.1195 -0.6510 -1.2955
12146SOL    HW241286   5.070   1.466   6.849  1.1378  0.8114  0.8327
12147SOL     OW41287   0.360   4.697   3.073  0.4214 -0.2872  0.5611
12147SOL    HW141288   0.295   4.645   3.120  1.3407 -1.8725  0.1617
12147SOL    HW241289   0.333   4.787   3.086 -3.3014 -0.8908 -1.6435
12148SOL     OW41290   4.493   2.321   7.285  0.6426  0.2941  0.2253
12148SOL    HW141291   4.554   2.296   7.215  0.6510 -0.1733  0.3962
12148SOL    HW241292   4.422   2.257   7.279  0.7938  0.0632  0.8372
12149SOL     OW41293   4.357   2.648   5.963  0.3413  0.0356  0.2205
12149SOL    HW141294   4.408   2.727   5.982  0.4920 -0.3790  1.6921
12149SOL    HW241295   4.343   2.608   6.049 -0.1044 -1.3116 -0.4570
12150SOL     OW41296   4.747   2.425   2.089 -0.2124 -0.2316 -0.7020
12150SOL    HW141297   4.721   2.339   2.056 -0.5513 -0.1398 -0.6793
12150SOL    HW241298   4.672   2.455   2.141  0.0379 -0.0692 -0.4272
12151SOL     OW41299   2.556   0.597   6.812 -0.1540 -0.3211 -0.3041
12151SOL    HW141300   2.615   0.656   6.766 -0.9645  0.5834 -0.2040
12151SOL    HW241301   2.473   0.645   6.819  0.2911  0.1443  3.2726
12152SOL     OW41302   0.372   8.412   9.593  0.2571 -0.0182 -0.7957
12152SOL    HW141303   0.306   8.358   9.550  0.2396 -0.1483 -0.6058
12152SOL    HW241304   0.456   8.375   9.563  0.2537 -0.7488  0.0643
12153SOL     OW41305   3.753   7.621   5.084 -0.1282  0.3764  0.5550
12153SOL    HW141306   3.772   7.632   4.991  1.8170 -1.2950  0.6844
12153SOL    HW241307   3.707   7.537   5.090  0.3040  0.1771  1.1583
12154SOL     OW41308   4.670   5.044   4.767  0.2335 -0.1659 -0.0980
12154SOL    HW141309   4.706   5.085   4.846 -0.4152  1.7781 -0.7468
12154SOL    HW241310   4.704   4.955   4.768 -0.1212 -0.3639  2.6168
12155SOL     OW41311   2.801   2.527   4.262 -0.1255  0.8544 -0.6100
12155SOL    HW141312   2.736   2.458   4.254 -0.6353  1.2881 -0.3084
12155SOL    HW241313   2.885   2.485   4.242 -0.5037  0.3002 -1.0323
12156SOL     OW41314   5.718   0.699   2.980  0.1831  0.0672 -0.7191
12156SOL    HW141315   5.755   0.635   3.041  2.1052  2.7405  1.1252
12156SOL    HW241316   5.646   0.739   3.028  0.8217  1.2317 -0.6961
12157SOL     OW41317   5.519   7.404   9.525 -0.0662 -0.4086 -0.0073
12157SOL    HW141318   5.488   7.350   9.452 -0.4317 -0.5573  0.2546
12157SOL    HW241319   5.440   7.425   9.575 -0.0033  0.7878 -0.3814
12158SOL     OW41320   8.479   1.181   1.716  0.7615  0.2100  0.4054
12158SOL    HW141321   8.484   1.093   1.677 -0.5656 -0.2062  1.1270
12158SOL    HW241322   8.544   1.232   1.667  0.4303 -0.7507 -1.1215
12159SOL     OW41323   3.306   7.268   6.066 -0.7539  0.4503 -0.2685
12159SOL    HW141324   3.328   7.224   6.148 -0.5274  1.5512  0.2760
12159SOL    HW241325   3.299   7.197   6.002 -0.3325 -0.3637  0.5681
12160SOL     OW41326   2.471   2.034   5.443 -0.5570 -0.4613  0.3490
12160SOL    HW141327   2.437   2.083   5.368  2.8387  0.3545 -0.8245
12160SOL    HW241328   2.453   2.090   5.518  2.7094  2.5835 -0.8873
12161SOL     OW41329   6.847   2.863   2.977  0.6251  0.1598  0.3503
12161SOL    HW141330   6.803   2.783   3.006  0.5930  0.3769  0.9152
12161SOL    HW241331   6.940   2.841   2.980  0.5927 -0.0232 -0.0015
12162SOL     OW41332   8.822   8.916   9.023 -0.3872  0.4909 -0.8488
12162SOL    HW141333   8.791   8.913   9.114  0.3648 -5.3503 -0.4007
12162SOL    HW241334   8.742   8.927   8.972 -1.0395  2.1195  0.4170
12163SOL     OW41335   6.693   2.582   9.294  0.2784  0.1837  0.1628
12163SOL    HW141336   6.642   2.552   9.219  0.8449 -1.2558  0.3126
12163SOL    HW241337   6.631   2.631   9.348 -0.7729 -0.8715 -0.0319
12164SOL     OW41338   8.855   1.858   5.436  0.2645 -0.2488  0.3272
12164SOL    HW141339   8.835   1.773   5.475  1.7105  0.0109  1.7385
12164SOL    HW241340   8.780   1.912   5.459 -0.0571 -0.7925  0.5917
12165SOL     OW41341   2.453   5.199   0.236  0.8067  0.4056 -0.3507
12165SOL    HW141342   2.425   5.221   0.147 -2.0253  0.5599  0.4739
12165SOL    HW241343   2.514   5.269   0.260  4.0297 -1.1722 -3.0808
12166SOL     OW41344   3.369   5.101   0.230  0.1110  0.1530 -0.3233
12166SOL    HW141345   3.461   5.098   0.256 -0.0314 -0.0705  0.1522
12166SOL    HW241346   3.362   5.181   0.178  0.5033  0.3388 -0.0923
12167SOL     OW41347   1.279   9.196   0.189  0.3398 -0.1796 -0.2504
12167SOL    HW141348   1.227   9.127   0.229  0.9236 -0.2458  0.4111
12167SOL    HW241349   1.236   9.214   0.105 -0.3809 -0.6549  0.0178
12168SOL     OW41350   5.450   4.204   5.340  0.5000  0.6631 -1.1734
12168SOL    HW141351   5.519   4.262   5.373  0.2034  0.8268 -0.8383
12168SOL    HW241352   5.497   4.131   5.301  0.8750 -0.0794  0.5615
12169SOL     OW41353   9.446   5.186   8.155 -0.3672 -0.0238  0.6740
12169SOL    HW141354   9.496   5.104   8.145  1.1704  1.0290 -0.6525
12169SOL    HW241355   9.510   5.250   8.185 -1.7199  0.5781  2.5063
12170SOL     OW41356   9.315   8.073   5.556  0.2019 -0.3179 -0.0198
12170SOL    HW141357   9.346   8.164   5.561  0.1459 -0.2659 -0.5432
12170SOL    HW241358   9.259   8.062   5.633  0.8845 -0.1719  0.5155
12171SOL     OW41359   1.442   8.667   6.660 -0.1280  0.1330 -0.4361
12171SOL    HW141360   1.500   8.742   6.676  1.9353 -0.9161 -2.5100
12171SOL    HW241361   1.467   8.603   6.727 -0.5180  0.5368  0.1042
12172SOL     OW41362   6.423   7.583   2.159  0.3202  0.6443  0.4014
12172SOL    HW141363   6.466   7.667   2.145  1.9195 -0.0622  0.8730
12172SOL    HW241364   6.481   7.535   2.217 -0.8384 -0.5922  0.6004
12173SOL     OW41365   6.273   4.843   6.737  0.2297 -0.4686 -0.0849
12173SOL    HW141366   6.306   4.856   6.648  1.0943 -1.2194  0.0993
12173SOL    HW241367   6.208   4.773   6.728 -0.1522 -0.0993 -0.2164
12174SOL     OW41368   8.095   9.178   6.067 -0.1418  0.0021 -0.3118
12174SOL    HW141369   8.097   9.267   6.102  1.4392 -1.0713  2.6960
12174SOL    HW241370   8.010   9.144   6.094 -0.4190  0.3415 -0.7537
12175SOL     OW41371   0.305   4.346   9.150 -0.2696  0.7193 -0.3294
12175SOL    HW141372   0.303   4.391   9.065  3.3182  1.5469 -0.1677
12175SOL    HW241373   0.318   4.416   9.214  0.2136 -0.1304  0.5369
12176SOL     OW41374   2.328   7.317   6.375 -0.8358 -0.7629  0.4978
12176SOL    HW141375   2.295   7.228   6.392 -1.6473 -0.4519  0.5660
12176SOL    HW241376   2.313   7.331   6.282  1.5373 -1.6028 -0.0796
12177SOL     OW41377   8.699   2.197   3.355  0.2221 -0.3134  0.2445
12177SOL    HW141378   8.651   2.211   3.437 -0.9586  1.0440 -0.6323
12177SOL    HW241379   8.769   2.262   3.357 -1.5507  1.7636 -1.0583
12178SOL     OW41380   3.044   4.273   7.669 -0.4625 -0.1890 -0.4694
12178SOL    HW141381   2.985   4.348   7.679 -0.4623 -0.0504 -1.4078
12178SOL    HW241382   3.049   4.235   7.756 -1.2937  0.2836 -0.2005
12179SOL     OW41383   2.334   3.946   6.643 -0.5656 -0.0498  0.2853
12179SOL    HW141384   2.364   4.035   6.660  0.7094  0.1594 -2.5029
12179SOL    HW241385   2.384   3.892   6.704  3.6308  0.6250 -2.1552
12180SOL     OW41386   4.672   0.916   1.666  0.1143 -0.4625  0.0630
12180SOL    HW141387   4.628   0.855   1.607  1.6313 -1.0724 -0.4716
12180SOL    HW241388   4.647   1.003   1.633 -0.2422 -0.7885 -0.5503
12181SOL     OW41389   6.766   0.012   5.968  0.0531  0.2574  0.2019
12181SOL    HW141390   6.805  -0.070   5.999  0.5664  0.6589  0.6479
12181SOL    HW241391   6.706   0.038   6.039  0.1831  0.4648  0.2377
12182SOL     OW41392   0.202   7.180   2.266  0.7215  0.6151 -0.0334
12182SOL    HW141393   0.218   7.089   2.242  0.2127  0.0572  1.5652
12182SOL    HW241394   0.185   7.225   2.183  1.4592 -0.6388 -0.8871
12183SOL     OW41395   3.290   9.252   3.267  0.8361 -0.6312 -0.7594
12183SOL    HW141396   3.298   9.172   3.215  0.2221 -0.2404 -1.4775
12183SOL    HW241397   3.278   9.322   3.203  0.9899 -0.0078 -0.1286
12184SOL     OW41398   6.044   4.407   2.486 -0.2233 -0.3542 -0.2430
12184SOL    HW141399   6.068   4.358   2.407 -0.3626  0.6486 -0.9233
12184SOL    HW241400   6.098   4.369   2.555  1.4518  0.1151 -1.2377
12185SOL     OW41401   9.635   6.811   8.883  0.2963  0.5337  0.4174
12185SOL    HW141402   9.696   6.738   8.868  0.4128  0.3656  1.6087
12185SOL    HW241403   9.579   6.811   8.806  0.5662 -0.5611  0.1925
12186SOL     OW41404   6.451   6.644   0.191 -0.3300  0.1039 -0.3170
12186SOL    HW141405   6.530   6.632   0.139  0.5050  1.3481  0.6036
12186SOL    HW241406   6.427   6.555   0.218  0.5395 -0.3278 -0.9172
12187SOL     OW41407   0.357   6.665   0.739 -0.5832  0.4085  0.3600
12187SOL    HW141408   0.342   6.758   0.721  2.6152  1.4006  2.1242
12187SOL    HW241409   0.372   6.661   0.834  2.1554 -1.3662 -0.0312
12188SOL     OW41410   2.793   3.714   0.512  0.2036 -0.2350 -0.1838
12188SOL    HW141411   2.864   3.763   0.554 -1.0754  1.7586 -0.2067
12188SOL    HW241412   2.828   3.625   0.503  2.6612  0.6365 -0.1470
12189SOL     OW41413   7.756   9.465   2.228 -0.3147  0.0352  0.3965
12189SOL    HW141414   7.666   9.440   2.205 -0.0065 -0.1551 -0.6661
12189SOL    HW241415   7.808   9.387   2.211  0.1536  0.3567  0.3350
12190SOL     OW41416   4.347   3.156   9.580  0.1001 -0.0247 -0.3182
12190SOL    HW141417   4.423   3.187   9.630  0.0902 -0.2533 -0.1595
12190SOL    HW241418   4.275   3.210   9.612 -0.2394 -1.2587  1.1275
12191SOL     OW41419   5.684   4.393   7.075  0.1085  0.8384 -0.0432
12191SOL    HW141420   5.661   4.448   7.150  1.0450  1.5915 -0.2786
12191SOL    HW241421   5.634   4.429   7.002 -0.0317  0.7532  0.0116
12192SOL     OW41422   3.279   9.111   4.575 -0.2263 -0.1729 -0.1720
12192SOL    HW141423   3.238   9.163   4.644 -0.0378 -0.6063  0.2704
12192SOL    HW241424   3.364   9.086   4.610 -0.1097 -0.3632 -0.5761
12193SOL     OW41425   1.919   8.238   6.595 -0.2371  0.2287 -1.0302
12193SOL    HW141426   1.926   8.304   6.664 -0.0570 -0.1574 -0.6743
12193SOL    HW241427   1.826   8.236   6.573 -0.3243  0.1979 -0.6505
12194SOL     OW41428   9.002   6.528   8.599  0.0904  0.0688 -0.1925
12194SOL    HW141429   9.023   6.621   8.597 -0.5499  0.2117 -0.9994
12194SOL    HW241430   9.039   6.493   8.518 -1.9069  0.1557 -1.2093
12195SOL     OW41431   5.279   2.962   1.485 -0.4100  0.0212 -0.0934
12195SOL    HW141432   5.347   2.960   1.552  0.0085 -1.3603 -0.5136
12195SOL    HW241433   5.227   3.039   1.505  1.5354  1.3717 -0.0317
12196SOL     OW41434   3.215   0.223   8.880  0.1595 -0.2322  0.1152
12196SOL    HW141435   3.300   0.202   8.842  0.6514  0.8565  0.5855
12196SOL    HW241436   3.204   0.317   8.865 -2.2170 -0.7486 -2.4139
12197SOL     OW41437   8.901   2.143   6.483  0.3313 -0.1675 -0.5906
12197SOL    HW141438   8.893   2.234   6.512 -2.5722 -0.5245 -0.0114
12197SOL    HW241439   8.869   2.143   6.393  1.9370 -0.4080 -1.2141
12198SOL     OW41440   5.392   7.724   7.350  0.4251 -0.2027 -0.4182
12198SOL    HW141441   5.420   7.705   7.261  0.0290 -1.3858 -0.3017
12198SOL    HW241442   5.324   7.659   7.369 -0.3405  0.7788  0.3330
12199SOL     OW41443   3.741   0.439   4.626 -0.3511 -0.3925  0.0884
12199SOL    HW141444   3.687   0.362   4.644 -0.2782 -0.6751 -0.8196
12199SOL    HW241445   3.829   0.404   4.616 -0.3529 -0.2313 -0.5456
12200SOL     OW41446   4.711   3.687   1.498 -0.2994  0.4016  0.2000
12200SOL    HW141447   4.806   3.674   1.497 -0.4993 -1.3737  0.6884
12200SOL    HW241448   4.687   3.681   1.590 -1.0453 -0.6902 -0.0461
12201SOL     OW41449   2.678   1.690   6.058  0.5760 -0.1663  0.0919
12201SOL    HW141450   2.633   1.653   6.134 -0.0598  1.1224  0.3836
12201SOL    HW241451   2.644   1.780   6.052  2.6517  0.6542 -0.0718
12202SOL     OW41452   4.816   6.149   6.959 -0.4767  0.1652 -0.5914
12202SOL    HW141453   4.900   6.127   6.918 -0.6638  0.5553 -1.1978
12202SOL    HW241454   4.840   6.200   7.036 -0.0313 -2.0058  0.8001
12203SOL     OW41455   6.447   7.817   5.377 -0.3402 -0.5265  0.1893
12203SOL    HW141456   6.454   7.869   5.457 -0.4691 -0.2193  0.0028
12203SOL    HW241457   6.380   7.751   5.396  0.3571 -1.1085  0.6863
12204SOL     OW41458   6.614   3.394   9.525  0.6738  0.1159  0.4718
12204SOL    HW141459   6.694   3.352   9.557 -0.0112 -2.0573 -0.4726
12204SOL    HW241460   6.563   3.413   9.603  1.9008  1.1321  1.0544
12205SOL     OW41461   3.466   2.146   1.325  0.2218  0.1239  0.7655
12205SOL    HW141462   3.386   2.115   1.282  0.5026 -0.2969  0.5459
12205SOL    HW241463   3.434   2.198   1.399 -0.2568  0.7467  0.1226
12206SOL     OW41464   4.998   0.834   8.862 -0.0252  0.2476  0.3931
12206SOL    HW141465   4.934   0.764   8.851  1.7292 -2.0369  3.3003
12206SOL    HW241466   4.975   0.875   8.946  0.6580  1.2761  0.0955
12207SOL     OW41467   9.480   1.664   3.570  0.0452  0.3214 -0.3719
12207SOL    HW141468   9.398   1.616   3.580  0.5855 -0.2454  2.0782
12207SOL    HW241469   9.465   1.746   3.617  1.5086 -0.7336  2.1510
12208SOL     OW41470   8.302   5.943   4.082  0.5517  0.9086  0.1125
12208SOL    HW141471   8.224   5.913   4.035  0.3614  1.3663  0.1339
12208SOL    HW241472   8.296   5.903   4.168  0.1523  1.2332  0.2374
12209SOL     OW41473   5.598   2.905   8.207 -0.1919 -0.1270 -0.2426
12209SOL    HW141474   5.527   2.929   8.148 -0.0336  1.3661  0.1328
12209SOL    HW241475   5.636   2.989   8.234  1.2850 -0.8738  0.0828
12210SOL     OW41476   5.358   8.359   4.244 -0.3344 -0.0769 -0.2321
12210SOL    HW141477   5.379   8.445   4.208 -0.0272 -0.6128 -1.3734
12210SOL    HW241478   5.322   8.378   4.331 -0.0112  1.1802 -0.3471
12211SOL     OW41479   5.539   2.990   5.890 -0.8683  0.0517  0.2758
12211SOL    HW141480   5.468   2.959   5.834 -0.2754  0.8923 -0.9807
12211SOL    HW241481   5.572   2.910   5.933 -0.7380 -0.7760 -1.2747
12212SOL     OW41482   0.320   6.572   6.340 -0.0054 -0.3225  0.0073
12212SOL    HW141483   0.332   6.540   6.251  0.5471 -0.1983  0.0357
12212SOL    HW241484   0.335   6.667   6.334  1.2482 -0.4806  0.4505
12213SOL     OW41485   6.869   4.216   8.922  0.1482  0.5282 -0.4883
12213SOL    HW141486   6.807   4.166   8.869  0.3654 -0.5879  0.2778
12213SOL    HW241487   6.833   4.213   9.010  1.6766 -0.8861  0.1479
12214SOL     OW41488   8.269   0.797   0.791  0.6388 -0.0230  0.5944
12214SOL    HW141489   8.270   0.884   0.832  1.7657  1.9805 -3.2150
12214SOL    HW241490   8.350   0.756   0.823 -0.1361  0.0341  2.8123
12215SOL     OW41491   5.644   3.839   7.170 -0.0624  0.0817  0.1937
12215SOL    HW141492   5.687   3.895   7.234  1.9081 -1.2650  0.1032
12215SOL    HW241493   5.635   3.754   7.213 -3.1166  0.3823  0.3691
12216SOL     OW41494   4.319   7.064   8.109 -0.0042 -0.4864 -0.1569
12216SOL    HW141495   4.297   7.125   8.039 -0.1998  0.3789  0.6430
12216SOL    HW241496   4.413   7.048   8.098  0.6584  1.9706  1.1068
12217SOL     OW41497   0.343   0.874   1.263  0.2337  0.4513 -0.0352
12217SOL    HW141498   0.251   0.851   1.252 -0.2638  0.8824  2.5157
12217SOL    HW241499   0.390   0.807   1.213 -1.4323 -0.5193 -0.3968
12218SOL     OW41500   5.403   3.965   7.082  0.8308  0.7034  0.0665
12218SOL    HW141501   5.496   3.949   7.064  1.0178  0.6942  0.9922
12218SOL    HW241502   5.386   4.051   7.043  0.5650 -0.3333 -2.3270
12219SOL     OW41503   8.089   4.440   0.911 -0.1154 -0.3225  0.3569
12219SOL    HW141504   8.096   4.399   0.997 -1.6181  0.5677  0.9245
12219SOL    HW241505   8.013   4.497   0.917  0.4651  0.6791 -1.1930
12220SOL     OW41506   8.501   8.606   9.599  0.0372 -0.3207 -0.0236
12220SOL    HW141507   8.544   8.685   9.567 -0.7066  0.5818  1.1218
12220SOL    HW241508   8.462   8.568   9.520 -1.2584  1.5342 -0.3636
12221SOL     OW41509   1.526   0.405   9.178  0.0327  0.1946 -0.0267
12221SOL    HW141510   1.481   0.463   9.116  0.2233  0.4042  0.0320
12221SOL    HW241511   1.470   0.328   9.182  0.7398 -0.4477 -1.5645
12222SOL     OW41512   5.709   4.510   6.258 -0.2797 -0.5966  0.0573
12222SOL    HW141513   5.793   4.470   6.236  0.2577  0.6505 -0.2421
12222SOL    HW241514   5.731   4.601   6.280 -1.4026 -0.5529  1.1229
12223SOL     OW41515   1.427   7.445   8.459  0.6967  0.0629  0.4347
12223SOL    HW141516   1.358   7.473   8.519  0.0321  0.8725 -0.6766
12223SOL    HW241517   1.506   7.442   8.514 -0.2500 -1.2555  1.8072
12224SOL     OW41518   4.630   8.385   5.502 -0.4759 -0.0592 -0.0955
12224SOL    HW141519   4.567   8.409   5.433  1.6016  3.1087 -1.1113
12224SOL    HW241520   4.593   8.422   5.582 -1.1521 -0.5584 -0.1671
12225SOL     OW41521   5.492   5.080   8.657  0.1276 -0.3220  0.4337
12225SOL    HW141522   5.406   5.102   8.693 -0.4130 -1.7931  0.0817
12225SOL    HW241523   5.510   5.150   8.593  0.1058  1.0803  1.8867
12226SOL     OW41524   1.303   2.529   0.531 -0.1274 -0.0333 -0.2143
12226SOL    HW141525   1.367   2.567   0.470 -1.7325  0.3444 -1.7292
12226SOL    HW241526   1.235   2.595   0.540 -0.4601 -0.5308  1.1743
12227SOL     OW41527   8.563   5.616   6.308  0.1131 -0.0853  0.1706
12227SOL    HW141528   8.469   5.618   6.292  0.3480  0.5007 -1.4101
12227SOL    HW241529   8.600   5.666   6.235  1.6927 -0.9342  0.3429
12228SOL     OW41530   2.844   0.227   8.939 -0.2842  0.3246 -0.0817
12228SOL    HW141531   2.899   0.150   8.922  0.2881  0.3131  1.5845
12228SOL    HW241532   2.755   0.193   8.939 -0.1913  0.0497 -1.3162
12229SOL     OW41533   9.620   5.952   3.532 -0.0566  0.7363  0.3164
12229SOL    HW141534   9.618   5.865   3.490 -1.4118 -0.4106  2.5531
12229SOL    HW241535   9.540   5.995   3.501 -0.7606  0.1110  1.1916
12230SOL     OW41536   3.857   7.447   3.010  0.2852  0.1304 -0.2382
12230SOL    HW141537   3.803   7.457   3.089  0.2146  0.2973 -0.3070
12230SOL    HW241538   3.946   7.437   3.044  0.3161  0.6486 -0.1460
12231SOL     OW41539   2.134   7.042   7.312  0.3076 -0.4122  0.1776
12231SOL    HW141540   2.143   7.107   7.242  0.6598 -1.8680 -1.2115
12231SOL    HW241541   2.224   7.024   7.340  0.1899 -0.0684  0.7905
12232SOL     OW41542   3.034   2.423   4.162  0.3873 -0.8870  0.0760
12232SOL    HW141543   3.033   2.516   4.142  0.8325 -0.6960  0.9360
12232SOL    HW241544   3.099   2.386   4.101 -0.6799 -0.8492 -1.1198
12233SOL     OW41545   3.650   3.881   6.421  0.5763 -0.4971 -0.2024
12233SOL    HW141546   3.588   3.951   6.441  0.5761 -0.2216 -1.1411
12233SOL    HW241547   3.598   3.801   6.422  0.2075 -0.2704 -0.9547
12234SOL     OW41548   6.518   2.263   0.868  0.1367  0.2418 -0.0654
12234SOL    HW141549   6.441   2.319   0.868 -0.1071 -0.0909  0.0769
12234SOL    HW241550   6.519   2.223   0.781  0.7359  1.0389 -0.4392
12235SOL     OW41551   3.040   3.732   8.403 -0.3321  0.2194  0.3751
12235SOL    HW141552   3.109   3.771   8.456 -1.9305  2.6542  0.8317
12235SOL    HW241553   3.087   3.673   8.343  1.9703  0.7772  1.4922
12236SOL     OW41554   5.165   8.647   0.845 -0.4947 -1.1514 -0.1905
12236SOL    HW141555   5.152   8.669   0.937 -3.6989 -1.0586 -0.5409
12236SOL    HW241556   5.216   8.720   0.810 -3.1867  1.3243  0.6298
12237SOL     OW41557   8.496   4.932   0.874  0.1713 -0.0030  0.7442
12237SOL    HW141558   8.580   4.894   0.849 -0.0009 -0.9658  1.5866
12237SOL    HW241559   8.462   4.970   0.793  1.1218 -0.1648  0.2581
12238SOL     OW41560   4.025   3.441   1.995 -0.1212  0.5565 -0.0176
12238SOL    HW141561   3.996   3.525   1.960 -0.7919 -0.1262 -1.2038
12238SOL    HW241562   3.952   3.411   2.049  0.5639  1.2129  1.3213
12239SOL     OW41563   7.497   5.667   6.887 -0.5657 -0.0157 -0.2148
12239SOL    HW141564   7.431   5.720   6.932 -1.3385  1.7537 -3.1547
12239SOL    HW241565   7.580   5.711   6.906 -0.7128 -0.0047  0.4271
12240SOL     OW41566   5.126   2.586   9.571 -0.0287 -0.3075  0.5333
12240SOL    HW141567   5.034   2.599   9.550  0.3003 -0.4679 -1.1345
12240SOL    HW241568   5.156   2.672   9.602 -0.5348 -0.0201  0.2408
12241SOL     OW41569   9.134   3.201   1.001  0.0543  0.4824 -0.5812
12241SOL    HW141570   9.139   3.132   0.935 -1.9068 -0.8501  0.5658
12241SOL    HW241571   9.218   3.196   1.046  0.6460  0.0849 -1.6795
12242SOL     OW41572   9.163   1.026   3.297 -0.3673 -0.4492 -0.5379
12242SOL    HW141573   9.080   0.984   3.320  1.0698 -2.1308  2.0845
12242SOL    HW241574   9.160   1.110   3.344 -0.4436 -0.6508 -0.1802
12243SOL     OW41575   5.975   8.257   6.218  0.0232  0.2243  0.2973
12243SOL    HW141576   6.050   8.255   6.276  0.5569  0.8669 -0.3519
12243SOL    HW241577   5.903   8.290   6.272 -0.4216 -2.5052  1.5756
12244SOL     OW41578   9.071   3.080   8.325  0.2812  0.2046  0.1035
12244SOL    HW141579   9.068   3.160   8.272 -1.1227 -0.9111 -1.6265
12244SOL    HW241580   8.982   3.044   8.320  0.5948 -0.9044  1.7386
12245SOL     OW41581   7.236   5.172   6.941  0.3275 -0.1978 -0.1816
12245SOL    HW141582   7.257   5.155   7.033 -0.6691 -0.3870  0.0250
12245SOL    HW241583   7.170   5.106   6.919 -0.6549  0.8700 -0.5406
12246SOL     OW41584   6.796   5.727   6.849  0.3555 -0.4354 -0.1024
12246SOL    HW141585   6.795   5.672   6.927 -1.0252 -1.2058 -0.6283
12246SOL    HW241586   6.806   5.816   6.882  1.3499 -0.8870  0.8452
12247SOL     OW41587   9.389   7.084   7.297  0.0930  0.6387  0.0046
12247SOL    HW141588   9.467   7.057   7.346  0.5173  0.0354 -0.9818
12247SOL    HW241589   9.355   7.004   7.259 -0.2056  1.1007 -0.7239
12248SOL     OW41590   3.452   5.027   5.724 -0.2273 -0.2160 -0.1087
12248SOL    HW141591   3.423   5.013   5.634  0.9735 -1.0255 -0.3890
12248SOL    HW241592   3.506   5.107   5.720 -0.8557  0.2254  0.0626
12249SOL     OW41593   0.024   0.444   1.657  0.1181 -0.5038  0.7739
12249SOL    HW141594  -0.023   0.394   1.591  0.4273 -0.0149  0.1758
12249SOL    HW241595   0.117   0.427   1.638  0.2237 -1.8170  2.2102
12250SOL     OW41596   5.319   4.001   6.451  0.0665 -0.2322 -0.3493
12250SOL    HW141597   5.395   4.054   6.477  0.0679 -0.8872  1.1078
12250SOL    HW241598   5.263   4.000   6.529 -0.1687 -1.9514 -0.5016
12251SOL     OW41599   2.597   6.892   1.420  0.0424  0.4212  0.6296
12251SOL    HW141600   2.574   6.800   1.429 -2.4693  0.7958 -0.7959
12251SOL    HW241601   2.668   6.894   1.356 -0.8886 -0.4742 -0.4694
12252SOL     OW41602   2.374   1.864   0.039 -0.1045  0.5273 -0.1014
12252SOL    HW141603   2.317   1.797   0.001 -0.3034  0.2372  0.6945
12252SOL    HW241604   2.322   1.901   0.111  1.1482 -0.5815  1.4449
12253SOL     OW41605   6.847   5.507   2.080 -0.0863 -0.0983 -0.4128
12253SOL    HW141606   6.836   5.475   2.170  1.9921 -0.9987 -0.4282
12253SOL    HW241607   6.859   5.601   2.089 -1.1524  0.0011  0.1148
12254SOL     OW41608   3.335   0.846   1.467  0.5322  0.2512  0.0305
12254SOL    HW141609   3.267   0.792   1.425 -0.0341  0.5512  0.5589
12254SOL    HW241610   3.417   0.816   1.426  0.1976 -0.7883  0.0786
12255SOL     OW41611   1.619   8.317   3.190 -0.2778 -0.1780  0.1794
12255SOL    HW141612   1.615   8.338   3.284  0.4673  0.0804  0.1627
12255SOL    HW241613   1.703   8.272   3.180  1.0460  2.3255 -0.8269
12256SOL     OW41614   0.673   1.924   2.116 -0.9277  0.3088  0.2349
12256SOL    HW141615   0.744   1.967   2.162 -0.3058 -1.0214  0.5880
12256SOL    HW241616   0.610   1.900   2.184 -1.8154  1.5912 -0.0894
12257SOL     OW41617   1.829   1.161   6.773 -0.4042 -0.2275  0.6847
12257SOL    HW141618   1.841   1.209   6.692  0.3833 -2.0850 -0.3710
12257SOL    HW241619   1.741   1.184   6.802 -1.1285 -0.3300 -1.2899
12258SOL     OW41620   7.855   2.502   9.013  0.0748  0.1425 -0.1567
12258SOL    HW141621   7.850   2.558   9.091  0.4369  1.1706 -0.8566
12258SOL    HW241622   7.766   2.502   8.978  0.2562  1.0627 -0.6672
12259SOL     OW41623   3.861   3.495   7.497 -0.0767  0.0285  0.3178
12259SOL    HW141624   3.812   3.566   7.455 -1.6563 -2.0336 -1.5339
12259SOL    HW241625   3.950   3.505   7.465 -0.8822 -0.4701 -2.2923
12260SOL     OW41626   6.443   3.354   1.536 -0.1729  0.0008 -0.2433
12260SOL    HW141627   6.362   3.339   1.487 -0.5437 -0.1770  0.4248
12260SOL    HW241628   6.498   3.403   1.475  0.0006 -1.6036 -1.4702
12261SOL     OW41629   1.238   8.634   3.325 -0.5688  0.7440  0.0278
12261SOL    HW141630   1.293   8.685   3.265 -1.4471  1.9051  0.1760
12261SOL    HW241631   1.168   8.600   3.270  0.0146 -0.3607 -0.0721
12262SOL     OW41632   3.392   1.279   9.284 -0.7759 -0.2727 -0.5486
12262SOL    HW141633   3.478   1.316   9.303 -2.0812  1.9618  1.4869
12262SOL    HW241634   3.372   1.309   9.196 -0.0291  0.2980 -0.5308
12263SOL     OW41635   5.355   4.439   7.219 -0.1427 -0.3539 -0.0771
12263SOL    HW141636   5.381   4.520   7.176 -1.4380 -0.5921 -1.3990
12263SOL    HW241637   5.259   4.441   7.219 -0.2019 -1.2154  1.2188
12264SOL     OW41638   3.403   0.897   2.795 -0.1733  0.2312 -0.1698
12264SOL    HW141639   3.418   0.858   2.709  0.1929  0.1565 -0.0761
12264SOL    HW241640   3.387   0.990   2.778 -2.0336 -0.1028 -0.4846
12265SOL     OW41641   5.035   5.360   9.384  0.1525  0.5136  0.3406
12265SOL    HW141642   5.101   5.369   9.315  0.5247 -0.1014  0.6144
12265SOL    HW241643   4.973   5.295   9.351  1.5775 -1.5461  1.5134
12266SOL     OW41644   1.176   8.422   9.422  0.4444 -0.1744 -0.2532
12266SOL    HW141645   1.248   8.367   9.454 -1.0023 -1.7606  0.4447
12266SOL    HW241646   1.126   8.364   9.365 -1.4296  0.2123  0.9337
12267SOL     OW41647   8.678   9.431   4.307 -0.1367 -0.3004 -0.3620
12267SOL    HW141648   8.677   9.438   4.211 -0.0998 -0.5238 -0.3792
12267SOL    HW241649   8.587   9.445   4.333  0.3509  3.6007 -0.1416
12268SOL     OW41650   4.422   6.307   3.297  0.5187  0.2958 -0.2175
12268SOL    HW141651   4.493   6.276   3.241  0.4007 -1.7921  0.7130
12268SOL    HW241652   4.380   6.228   3.329 -2.1268  1.4578 -0.5371
12269SOL     OW41653   0.253   6.506   7.469 -0.2507  0.0412  0.1380
12269SOL    HW141654   0.294   6.585   7.434 -1.4870  0.8044  0.3369
12269SOL    HW241655   0.198   6.473   7.398 -1.4752  0.6588  0.7554
12270SOL     OW41656   6.732   0.987   3.979  0.0919  0.7220 -0.3860
12270SOL    HW141657   6.708   0.958   4.066  0.1751  1.0087 -0.2650
12270SOL    HW241658   6.807   0.932   3.954  0.9450  1.5461  0.2826
12271SOL     OW41659   5.766   2.269   8.237 -0.4486 -0.1693 -0.5336
12271SOL    HW141660   5.715   2.188   8.242 -0.9555  0.1918  0.2825
12271SOL    HW241661   5.711   2.335   8.279  1.8161 -0.3519  3.2727
12272SOL     OW41662   0.866   7.628   2.449  0.0990 -0.2205  0.1510
12272SOL    HW141663   0.800   7.693   2.473  1.1968  0.5588  1.1068
12272SOL    HW241664   0.846   7.607   2.357 -0.0815  1.6816 -0.2772
12273SOL     OW41665   5.411   0.155   4.527 -0.0979  0.3651  0.0595
12273SOL    HW141666   5.454   0.137   4.443  0.2587  0.3343  0.2460
12273SOL    HW241667   5.318   0.153   4.507 -0.1171 -1.7934  0.0523
12274SOL     OW41668   1.216   2.449   6.570 -0.1799 -0.1520 -0.0561
12274SOL    HW141669   1.154   2.478   6.637 -0.8115  2.0616 -1.4621
12274SOL    HW241670   1.288   2.512   6.574  1.1928 -1.6705  0.3867
12275SOL     OW41671   4.285   5.255   4.024  0.8298 -0.0762 -0.6875
12275SOL    HW141672   4.195   5.236   4.052  1.1834  0.6598  1.0585
12275SOL    HW241673   4.276   5.322   3.957  0.1318  1.8990  1.2590
12276SOL     OW41674   9.114   3.665   5.380  0.1206 -0.4267 -0.4591
12276SOL    HW141675   9.056   3.695   5.450 -0.2859 -0.1639 -0.8998
12276SOL    HW241676   9.192   3.635   5.425  0.6786  1.5743  0.0014
12277SOL     OW41677   8.014   3.600   7.477 -0.4575 -0.4689 -0.0591
12277SOL    HW141678   7.926   3.568   7.496 -0.7804  0.4004 -0.0299
12277SOL    HW241679   8.002   3.694   7.461  0.5692 -0.1900  0.7292
12278SOL     OW41680   4.584   5.450   4.010 -0.3957  0.9409  0.4721
12278SOL    HW141681   4.556   5.492   4.091 -0.7783 -1.5095  1.6928
12278SOL    HW241682   4.505   5.447   3.956 -0.7929  0.2897  1.0743
12279SOL     OW41683   2.710   7.803   1.544  0.3619 -0.6918 -0.6803
12279SOL    HW141684   2.667   7.854   1.613 -1.1563 -0.5382 -1.6890
12279SOL    HW241685   2.769   7.865   1.502 -0.6943 -0.0385 -1.2226
12280SOL     OW41686   2.120   5.511   8.482 -0.8173  0.0910 -0.6513
12280SOL    HW141687   2.069   5.582   8.442 -0.7888  0.6938  0.3376
12280SOL    HW241688   2.168   5.554   8.553  0.6171 -0.5806 -1.1845
12281SOL     OW41689   1.508   3.650   6.974  0.1989 -0.4636 -0.1683
12281SOL    HW141690   1.595   3.684   6.955  0.0841 -0.5795 -0.9660
12281SOL    HW241691   1.519   3.594   7.051  0.3899  1.3389  1.1558
12282SOL     OW41692   4.707   7.541   0.652  0.0538 -0.9597 -0.5042
12282SOL    HW141693   4.616   7.569   0.660 -0.3908 -2.4511  0.1126
12282SOL    HW241694   4.752   7.615   0.613 -1.2185  0.1990  0.1527
12283SOL     OW41695   2.274   0.830   7.530 -0.2880  0.4121 -0.2958
12283SOL    HW141696   2.264   0.790   7.444 -1.9080 -1.1267  0.5328
12283SOL    HW241697   2.219   0.908   7.526 -0.8835 -0.0073 -0.4750
12284SOL     OW41698   4.163   2.795   6.727 -0.5225  0.4348  0.3471
12284SOL    HW141699   4.239   2.835   6.685 -0.1672 -1.4313 -0.8801
12284SOL    HW241700   4.201   2.733   6.790 -0.9678 -1.2699 -1.0121
12285SOL     OW41701   9.370   0.159   9.369  0.1957 -0.6516  0.0619
12285SOL    HW141702   9.437   0.183   9.433 -0.7151 -0.3026  0.9004
12285SOL    HW241703   9.417   0.103   9.306  2.5680  3.5866 -2.3559
12286SOL     OW41704   0.532   8.466   1.059 -0.2014  0.0901  0.6294
12286SOL    HW141705   0.477   8.388   1.063 -0.4875 -0.0484 -2.7373
12286SOL    HW241706   0.615   8.439   1.099 -0.9696 -1.2441  1.3893
12287SOL     OW41707   2.743   6.205   1.963 -0.1549 -0.1993 -0.2720
12287SOL    HW141708   2.723   6.280   1.907 -1.1338 -0.1033  0.1826
12287SOL    HW241709   2.677   6.208   2.032  1.4026  0.0381  1.2596
12288SOL     OW41710   1.042   8.192   0.193  0.5046  0.1022 -0.4016
12288SOL    HW141711   1.074   8.241   0.117 -0.8970  1.2093 -0.3139
12288SOL    HW241712   0.977   8.132   0.156 -0.9524  1.3637 -0.0105
12289SOL     OW41713   8.690   1.892   0.552 -0.5063 -0.1101 -0.1000
12289SOL    HW141714   8.715   1.820   0.609  1.1635 -0.3948 -1.1376
12289SOL    HW241715   8.706   1.971   0.605 -0.6748 -0.4234  0.4251
12290SOL     OW41716   1.723   2.074   3.060 -0.1479  0.2046  0.3121
12290SOL    HW141717   1.658   2.099   3.126 -0.6698  0.1854 -0.1843
12290SOL    HW241718   1.683   2.098   2.977 -0.0704 -0.9798 -0.0933
12291SOL     OW41719   5.923   2.902   5.922 -0.4893  0.2560  0.1092
12291SOL    HW141720   5.974   2.970   5.878 -1.3711  0.2464 -0.9845
12291SOL    HW241721   5.946   2.821   5.877  1.2629 -0.3750  2.0153
12292SOL     OW41722   4.569   8.813   0.235 -0.1414 -0.1440  0.1538
12292SOL    HW141723   4.599   8.851   0.318 -1.0032  0.4493  0.2157
12292SOL    HW241724   4.517   8.737   0.261  0.0894 -0.3065  0.1327
12293SOL     OW41725   7.208   0.615   0.098 -0.4066 -0.4768  0.0934
12293SOL    HW141726   7.253   0.646   0.019 -1.6723  0.4387 -0.2909
12293SOL    HW241727   7.261   0.651   0.170 -0.2667  0.2307 -0.3484
12294SOL     OW41728   8.962   0.749   2.483  0.5497  0.2624 -0.1251
12294SOL    HW141729   8.890   0.706   2.528  1.0102 -0.2059  0.1784
12294SOL    HW241730   9.021   0.778   2.553  0.9151  0.1656 -0.3846
12295SOL     OW41731   9.065   0.451   0.679 -0.1009 -0.4002 -0.2676
12295SOL    HW141732   9.039   0.530   0.633  0.5821 -0.7854 -1.3328
12295SOL    HW241733   9.022   0.458   0.765 -0.2706  0.9717 -0.4527
12296SOL     OW41734   2.414   8.569   1.987  0.3394 -0.2973  0.0161
12296SOL    HW141735   2.476   8.600   2.053  1.8620 -1.4246 -0.8457
12296SOL    HW241736   2.432   8.622   1.910 -1.0355  0.6073  0.2829
12297SOL     OW41737   6.916   2.470   9.065 -0.0215 -0.2391  0.5477
12297SOL    HW141738   6.925   2.415   9.143  0.8055 -0.4230  0.3291
12297SOL    HW241739   6.951   2.555   9.091 -0.2000 -0.1571  0.5237
12298SOL     OW41740   3.644   7.842   1.223  0.3873 -0.3777 -0.2463
12298SOL    HW141741   3.625   7.934   1.208  1.2267 -0.2821 -0.8123
12298SOL    HW241742   3.715   7.842   1.288  0.8314 -0.5874 -0.7183
12299SOL     OW41743   4.134   9.736   3.810 -0.8281  0.3211 -0.2164
12299SOL    HW141744   4.148   9.691   3.727 -1.5982  0.1230 -0.2439
12299SOL    HW241745   4.216   9.783   3.826  0.8268 -2.6376  0.7878
12300SOL     OW41746   3.518   8.501   5.656  0.1219  0.6964 -0.0614
12300SOL    HW141747   3.580   8.435   5.687  0.4958  0.8241 -0.5181
12300SOL    HW241748   3.474   8.460   5.582 -0.7291  0.4136  0.5919
12301SOL     OW41749   4.493   3.217   9.108  0.1595 -0.0808  0.5643
12301SOL    HW141750   4.476   3.309   9.088 -1.3458 -0.2108  1.1385
12301SOL    HW241751   4.419   3.170   9.072  0.4814 -0.9835  1.0360
12302SOL     OW41752   1.545   1.020   8.996 -0.1296  0.0119 -0.0013
12302SOL    HW141753   1.533   1.111   9.024  1.2544  0.3835 -0.5349
12302SOL    HW241754   1.575   0.975   9.075  0.3313  0.2778 -0.0241
12303SOL     OW41755   7.067   6.412   1.424  0.0337 -0.0957  0.1849
12303SOL    HW141756   7.001   6.455   1.370  0.5949  1.0535  0.3697
12303SOL    HW241757   7.091   6.333   1.376  0.3471  0.7780 -1.1440
12304SOL     OW41758   4.810   8.182   0.588 -0.1392  0.1188 -0.0076
12304SOL    HW141759   4.824   8.090   0.565 -0.1006  0.3361 -0.9175
12304SOL    HW241760   4.756   8.216   0.516 -2.1910  0.2338  1.5066
12305SOL     OW41761   2.702   1.331   9.323  0.2320  0.0477  0.2642
12305SOL    HW141762   2.638   1.293   9.384  0.1485  1.2212  0.9411
12305SOL    HW241763   2.657   1.406   9.285  0.2373 -0.7495 -1.3905
12306SOL     OW41764   2.946   5.440   2.685  0.1317  0.2975 -0.2062
12306SOL    HW141765   2.940   5.504   2.756 -1.7827  0.4308 -0.4132
12306SOL    HW241766   2.995   5.485   2.616  1.8446  0.2335  0.9314
12307SOL     OW41767   8.887   6.781   5.225 -0.4886 -0.9275 -0.3136
12307SOL    HW141768   8.856   6.691   5.220 -1.6913 -0.5493 -0.0129
12307SOL    HW241769   8.899   6.798   5.319 -3.0556  0.0828 -0.0826
12308SOL     OW41770   4.051   0.553   9.718  0.7816 -0.3560  0.7478
12308SOL    HW141771   4.109   0.561   9.643 -0.2986  1.6145  0.0465
12308SOL    HW241772   4.092   0.606   9.786 -0.4051  1.5716  0.0472
12309SOL     OW41773   2.671   0.801   6.649 -0.0416  0.2435 -0.0555
12309SOL    HW141774   2.620   0.855   6.589  1.3383 -0.6129 -2.1112
12309SOL    HW241775   2.706   0.862   6.713 -0.8145  1.3287 -0.6383
12310SOL     OW41776   7.897   8.461   7.605 -0.1250  0.3384  0.2483
12310SOL    HW141777   7.873   8.479   7.696 -0.5778  1.5474 -0.0867
12310SOL    HW241778   7.813   8.449   7.560  0.1028 -4.0967  0.6323
12311SOL     OW41779   7.359   1.888   5.661  0.2262  0.2281  0.1784
12311SOL    HW141780   7.419   1.859   5.730  1.1277  0.7347 -0.3695
12311SOL    HW241781   7.298   1.815   5.649  0.8912 -0.4049  0.5699
12312SOL     OW41782   1.035   3.655   6.293  0.2113  0.5426  0.1582
12312SOL    HW141783   1.012   3.584   6.353  0.2660 -0.8403 -1.3642
12312SOL    HW241784   1.121   3.684   6.322  0.9227 -1.1535 -0.1291
12313SOL     OW41785   3.095   0.735   1.355  0.7550 -0.3302  0.7363
12313SOL    HW141786   3.053   0.729   1.269  2.0412  0.0985  0.0455
12313SOL    HW241787   3.116   0.645   1.377  0.6003 -0.4253  0.5014
12314SOL     OW41788   4.733   2.084   7.767 -0.2732  0.3682  0.0684
12314SOL    HW141789   4.819   2.095   7.807 -0.4417  1.5725  0.1414
12314SOL    HW241790   4.672   2.085   7.841 -0.3475 -0.7258  0.0385
12315SOL     OW41791   9.214   2.994   0.789  0.2570 -0.4735  0.1145
12315SOL    HW141792   9.159   2.954   0.722 -0.8199 -1.6530  1.6346
12315SOL    HW241793   9.223   2.927   0.856  0.8705  0.8311  1.3924
12316SOL     OW41794   0.752   8.001   8.265  0.1451 -0.2783 -0.2739
12316SOL    HW141795   0.713   7.916   8.284 -1.8609  0.6712  0.0710
12316SOL    HW241796   0.773   7.998   8.172 -0.5875 -0.8846 -0.4294
12317SOL     OW41797   5.833   9.448   2.227  0.4147 -0.2491 -0.3341
12317SOL    HW141798   5.817   9.513   2.296  0.4134  1.3006 -1.7293
12317SOL    HW241799   5.928   9.436   2.227  0.7534  1.8266 -1.7734
12318SOL     OW41800   0.320   6.235   1.890 -1.3175  0.2132 -0.0177
12318SOL    HW141801   0.408   6.257   1.919 -2.1408 -0.2099  3.1425
12318SOL    HW241802   0.330   6.151   1.844 -0.0840  0.2806  0.0917
12319SOL     OW41803   2.577   6.241   2.153 -0.0137 -0.2306  0.1192
12319SOL    HW141804   2.531   6.318   2.120  1.2844  0.7896  0.6072
12319SOL    HW241805   2.524   6.212   2.228 -2.2135 -1.7411 -1.8851
12320SOL     OW41806   2.024   9.588   2.279 -0.2251  0.2033  0.2674
12320SOL    HW141807   1.988   9.500   2.266 -2.4862  1.2736 -1.3742
12320SOL    HW241808   2.050   9.590   2.371 -3.9470 -0.9294  1.5285
12321SOL     OW41809   4.038   4.389   8.849 -0.4930 -0.0226 -0.4658
12321SOL    HW141810   3.987   4.332   8.792  1.2157 -1.9864 -0.1748
12321SOL    HW241811   3.999   4.377   8.935 -0.3397 -0.5335 -0.4617
12322SOL     OW41812   3.425   5.272   3.316  0.2956 -0.6275 -0.2398
12322SOL    HW141813   3.459   5.262   3.405  1.8991  0.3178 -0.7112
12322SOL    HW241814   3.481   5.338   3.276  0.0871 -1.5640 -2.1905
12323SOL     OW41815   9.101   0.501   1.632 -0.5500  0.2943 -0.0755
12323SOL    HW141816   9.166   0.536   1.693 -0.1773  2.0699 -1.4217
12323SOL    HW241817   9.132   0.413   1.612  1.4934  1.0952 -0.6934
12324SOL     OW41818   7.737   4.649   4.295  0.1202 -0.3209  0.1122
12324SOL    HW141819   7.809   4.668   4.355  0.1417 -2.1048  0.6946
12324SOL    HW241820   7.768   4.679   4.210  1.5102 -0.9256  0.3782
12325SOL     OW41821   0.212   8.752   3.175 -0.0813 -0.5180 -0.4846
12325SOL    HW141822   0.208   8.847   3.164  0.7150 -0.2908  0.9436
12325SOL    HW241823   0.138   8.732   3.233 -0.8881 -0.9464 -1.6089
12326SOL     OW41824   8.161   5.568   1.341  0.2615  0.8027  0.0446
12326SOL    HW141825   8.235   5.568   1.280 -0.0379 -0.6691 -0.3658
12326SOL    HW241826   8.116   5.485   1.323 -0.6283  0.9897  1.3219
12327SOL     OW41827   8.873   0.161   4.367  0.1407 -0.5876 -0.5029
12327SOL    HW141828   8.817   0.185   4.441 -1.4895 -1.2691 -1.4679
12327SOL    HW241829   8.879   0.242   4.315 -1.8218 -1.0385 -1.5292
12328SOL     OW41830   3.151   8.407   7.840 -0.3880 -0.3203  0.5220
12328SOL    HW141831   3.139   8.316   7.814 -0.9051 -0.8956  2.5855
12328SOL    HW241832   3.086   8.421   7.910  0.8267  1.0962  1.4376
12329SOL     OW41833   4.586   3.082   8.022  0.3801  0.1137  0.7338
12329SOL    HW141834   4.517   3.110   7.961  0.2191  1.0183  1.3256
12329SOL    HW241835   4.541   3.070   8.105 -0.3584 -5.2489 -0.0355
12330SOL     OW41836   1.259   5.970   3.268 -0.0664  0.4572  0.4916
12330SOL    HW141837   1.196   5.994   3.337  1.3052  0.7477  1.6789
12330SOL    HW241838   1.340   6.013   3.293  0.8172 -0.5071 -0.6206
12331SOL     OW41839   2.491   3.120   2.496 -0.2153  0.0590  0.5539
12331SOL    HW141840   2.452   3.188   2.441 -1.1116 -0.3236  0.7039
12331SOL    HW241841   2.505   3.046   2.436  1.4263  0.5852  0.2232
12332SOL     OW41842   2.793   7.077   1.510 -0.1728 -0.8251  0.6727
12332SOL    HW141843   2.816   6.998   1.460  0.7951 -0.6109  0.7609
12332SOL    HW241844   2.769   7.044   1.597  1.8073 -0.9492  1.2374
12333SOL     OW41845   2.061   0.615   6.153  0.5597 -0.0001 -0.3436
12333SOL    HW141846   2.064   0.684   6.219  0.6878 -0.6931  0.3827
12333SOL    HW241847   2.088   0.659   6.072 -0.0705  0.9660 -0.0468
12334SOL     OW41848   1.059   9.066   4.508 -0.6467  0.3280 -0.3757
12334SOL    HW141849   1.043   9.050   4.415 -0.9675  0.2297 -0.3065
12334SOL    HW241850   1.119   8.997   4.535  1.9779  2.1204 -1.2159
12335SOL     OW41851   6.617   1.536   5.894 -0.7504 -0.3612  0.9495
12335SOL    HW141852   6.532   1.496   5.911 -1.2532  1.4262  3.0989
12335SOL    HW241853   6.674   1.504   5.964  0.0441 -0.6221  0.2054
12336SOL     OW41854   7.320   8.534   0.251  0.1204 -0.0649  0.1172
12336SOL    HW141855   7.228   8.544   0.272  0.2975  1.0785  0.3832
12336SOL    HW241856   7.334   8.590   0.175  0.5087 -0.5757 -0.1973
12337SOL     OW41857   0.126   7.937   2.932  0.1885  0.1668  0.2291
12337SOL    HW141858   0.131   7.911   3.024  1.0217  2.1196  0.7825
12337SOL    HW241859   0.041   7.904   2.903 -0.8966  1.0224  2.2212
12338SOL     OW41860   0.033   9.733   0.370  0.2188 -0.1801  0.5643
12338SOL    HW141861   0.064   9.752   0.281 -0.7643 -1.0363  0.0136
12338SOL    HW241862   0.107   9.691   0.412  0.4844 -0.3645 -0.0652
12339SOL     OW41863   0.552   5.257   3.316  0.4567 -0.0334 -0.6133
12339SOL    HW141864   0.606   5.183   3.344  1.4086  0.9600  0.2610
12339SOL    HW241865   0.610   5.310   3.261  0.1376  0.6511 -0.2978
12340SOL     OW41866   8.432   7.762   2.073  0.7637 -0.2646 -0.1246
12340SOL    HW141867   8.337   7.753   2.068  0.6281 -0.1037  1.6551
12340SOL    HW241868   8.465   7.718   1.995 -0.7574 -0.4273 -0.6953
12341SOL     OW41869   7.132   5.156   0.246  0.3523  0.6402 -0.1047
12341SOL    HW141870   7.109   5.093   0.178  0.6671  1.9424 -1.4982
12341SOL    HW241871   7.181   5.106   0.310  0.2586 -0.6046 -0.9715
12342SOL     OW41872   0.351   6.422   9.707 -0.4232  0.4041 -0.1024
12342SOL    HW141873   0.301   6.341   9.706 -1.2703  0.9191 -0.1231
12342SOL    HW241874   0.420   6.407   9.772 -0.0506 -0.6288 -0.7123
12343SOL     OW41875   5.722   3.129   0.052 -0.0239  0.5192  0.2517
12343SOL    HW141876   5.700   3.190   0.122 -0.3094 -0.2949  0.8893
12343SOL    HW241877   5.808   3.096   0.075 -0.2448  0.0251  0.3895
12344SOL     OW41878   0.106   8.165   0.925 -0.2410 -0.2154 -0.4340
12344SOL    HW141879   0.045   8.091   0.925  0.3874 -0.7523 -0.7478
12344SOL    HW241880   0.052   8.241   0.942 -1.0119 -0.6675 -0.8047
12345SOL     OW41881   8.771   4.507   0.558  0.0435  0.7548 -0.1449
12345SOL    HW141882   8.785   4.413   0.565  0.1018  0.7221 -0.6169
12345SOL    HW241883   8.853   4.546   0.586 -0.3494  0.7075  1.1172
12346SOL     OW41884   4.471   0.100   2.119 -0.0514 -0.2827  0.5843
12346SOL    HW141885   4.451   0.137   2.205 -2.6481 -0.4930  0.1482
12346SOL    HW241886   4.391   0.114   2.068  1.2565 -0.5854 -1.6667
12347SOL     OW41887   3.056   2.642   8.634 -0.1381  0.2045 -0.2498
12347SOL    HW141888   3.053   2.613   8.543 -1.1104  1.9849 -0.8301
12347SOL    HW241889   2.988   2.592   8.678 -0.8083  0.5110 -0.9049
12348SOL     OW41890   1.433   5.682   9.534 -0.4385 -0.1699 -0.4624
12348SOL    HW141891   1.451   5.775   9.548 -1.3555  0.1555 -1.3621
12348SOL    HW241892   1.404   5.650   9.620  0.0029  0.3332 -0.1152
12349SOL     OW41893   2.132   2.997   7.801  0.6670  0.4205  0.1261
12349SOL    HW141894   2.134   3.032   7.889 -1.6768 -1.6576  1.1388
12349SOL    HW241895   2.040   3.005   7.773  0.6630 -1.8172 -0.7871
12350SOL     OW41896   2.947   8.580   7.716  0.0318 -0.2032  0.2849
12350SOL    HW141897   3.020   8.518   7.714 -0.3871 -0.6910 -0.4973
12350SOL    HW241898   2.870   8.526   7.739 -0.6275 -0.3321 -1.9772
12351SOL     OW41899   8.370   0.778   4.332 -0.0624  0.6409 -0.0280
12351SOL    HW141900   8.449   0.801   4.380 -0.4251 -2.4307  2.3924
12351SOL    HW241901   8.370   0.682   4.330 -2.6853  0.5775 -1.7842
12352SOL     OW41902   4.862   3.752   7.790 -0.1801 -0.1201 -0.2070
12352SOL    HW141903   4.863   3.835   7.742  0.5437  0.1342  0.2333
12352SOL    HW241904   4.783   3.757   7.845 -0.4019  0.0612 -0.5337
12353SOL     OW41905   0.251   4.258   7.287 -0.3941  0.2713  0.4638
12353SOL    HW141906   0.305   4.184   7.316 -1.3607 -0.2464  1.0067
12353SOL    HW241907   0.224   4.234   7.198 -2.5063 -1.1340  1.4048
12354SOL     OW41908   7.942   4.859   1.575 -0.0115  0.0332 -0.6091
12354SOL    HW141909   7.976   4.921   1.640  1.2196  0.4571 -1.6299
12354SOL    HW241910   8.009   4.856   1.507 -0.2558 -2.0707 -0.8313
12355SOL     OW41911   3.898   3.384   9.746  0.5304 -0.3107  0.6761
12355SOL    HW141912   3.857   3.337   9.674  0.4761 -1.3906  1.3802
12355SOL    HW241913   3.878   3.476   9.730  1.4211 -0.3993 -1.2431
12356SOL     OW41914   5.577   1.799   6.447  0.1019 -0.1447 -0.7369
12356SOL    HW141915   5.635   1.813   6.372 -0.5076  0.7672 -1.0560
12356SOL    HW241916   5.613   1.853   6.517  0.1587 -0.2947 -0.6496
12357SOL     OW41917   8.161   3.478   0.217  0.0335  0.3138  0.3448
12357SOL    HW141918   8.076   3.433   0.220  0.0012  0.4255  1.8457
12357SOL    HW241919   8.139   3.570   0.206  0.0849  0.0727 -2.2876
12358SOL     OW41920   5.345   7.063   8.219 -0.1001  0.3058 -0.3415
12358SOL    HW141921   5.329   7.014   8.300  1.7862 -0.8384 -0.5976
12358SOL    HW241922   5.333   7.155   8.244 -0.0194 -0.0607  1.1228
12359SOL     OW41923   0.949   7.074   5.314 -0.5531 -0.0814  0.1271
12359SOL    HW141924   0.982   6.984   5.306 -0.9231 -0.2545  0.4651
12359SOL    HW241925   0.957   7.094   5.408  2.1852  1.2871 -0.3012
12360SOL     OW41926   5.588   7.971   8.069 -0.1740  0.1152  0.0131
12360SOL    HW141927   5.635   7.986   8.151  0.2549 -1.3692  0.0786
12360SOL    HW241928   5.636   8.024   8.005 -0.6244  1.4322  0.7237
12361SOL     OW41929   4.852   0.676   3.024 -0.4368  0.1644  0.3548
12361SOL    HW141930   4.793   0.620   3.076 -1.0318  0.6452  0.2122
12361SOL    HW241931   4.807   0.686   2.940 -0.2902  0.7857  0.3500
12362SOL     OW41932   8.564   2.562   4.501 -0.0828  0.3980  0.2356
12362SOL    HW141933   8.536   2.649   4.531  0.6268  0.7229  0.0022
12362SOL    HW241934   8.651   2.551   4.539  0.3209  0.3004 -0.6881
12363SOL     OW41935   6.930   7.543   6.109 -0.2280  0.0561  0.2817
12363SOL    HW141936   6.989   7.472   6.131 -1.1339 -0.3398  1.5553
12363SOL    HW241937   6.932   7.601   6.185  0.5724  1.4797 -0.7688
12364SOL     OW41938   5.678   9.027   7.014  0.2182 -0.1121 -0.0777
12364SOL    HW141939   5.701   8.936   6.995  0.3756  0.0781 -0.8479
12364SOL    HW241940   5.727   9.048   7.093  1.3095 -0.2712 -0.6797
12365SOL     OW41941   9.145   7.473   2.389 -0.2474  0.4775 -0.7044
12365SOL    HW141942   9.133   7.528   2.466 -1.6794  0.3008 -0.7716
12365SOL    HW241943   9.062   7.425   2.380  1.0862 -2.0686 -0.3712
12366SOL     OW41944   8.182   9.625   6.109  0.1041  0.0810  0.9053
12366SOL    HW141945   8.178   9.714   6.143 -3.8454  0.2872  0.3665
12366SOL    HW241946   8.174   9.635   6.014  0.1779 -0.8134  0.7896
12367SOL     OW41947   9.508   8.267   6.399 -0.2642 -0.4532  0.0036
12367SOL    HW141948   9.478   8.191   6.450 -0.4608  0.0640  0.6758
12367SOL    HW241949   9.517   8.234   6.310 -0.6599 -1.1892  0.2253
12368SOL     OW41950   4.003   7.470   7.752 -0.3450  0.0557  0.1645
12368SOL    HW141951   3.909   7.477   7.768 -0.0983  1.4441  1.2468
12368SOL    HW241952   4.041   7.458   7.839  0.5427  0.6972 -0.1189
12369SOL     OW41953   0.981   1.066   1.288 -0.1767 -0.2428 -0.0064
12369SOL    HW141954   0.980   0.970   1.291  0.1229 -0.3198 -1.5390
12369SOL    HW241955   1.015   1.092   1.374 -1.6625 -1.4424  0.9948
12370SOL     OW41956   3.115   6.245   9.437  0.0165  0.4759 -0.1583
12370SOL    HW141957   3.098   6.163   9.483  1.1632  0.5978  0.5467
12370SOL    HW241958   3.065   6.239   9.356  0.0666 -0.9095 -0.1053
12371SOL     OW41959   6.788   8.436   3.458 -0.2067  1.1021 -0.3026
12371SOL    HW141960   6.835   8.491   3.396 -1.2401  0.1224 -2.0144
12371SOL    HW241961   6.786   8.350   3.417 -2.2294  0.7833  0.3728
12372SOL     OW41962   3.346   7.682   9.150  0.8685  0.0513  0.1734
12372SOL    HW141963   3.364   7.591   9.172  0.5274  0.2143  1.1819
12372SOL    HW241964   3.253   7.683   9.126  1.1391 -0.0520 -0.8868
12373SOL     OW41965   3.300   2.694   7.705  0.3941  0.4000  0.0507
12373SOL    HW141966   3.280   2.630   7.774  0.2416 -0.7935 -1.0464
12373SOL    HW241967   3.216   2.711   7.663  0.1259  2.6768  1.3983
12374SOL     OW41968   3.562   7.748   1.739  0.2450  0.1880  0.0337
12374SOL    HW141969   3.548   7.707   1.824  1.4005 -0.6531 -0.1577
12374SOL    HW241970   3.593   7.677   1.683  0.6789  0.9781 -0.7492
12375SOL     OW41971   5.291   0.627   6.517 -0.1576 -0.6265 -0.2612
12375SOL    HW141972   5.358   0.621   6.585 -0.2116 -0.0229 -0.1490
12375SOL    HW241973   5.337   0.663   6.441 -0.6882  1.3821  0.3174
12376SOL     OW41974   1.079   7.676   9.554  0.1835 -0.2857  0.3872
12376SOL    HW141975   1.148   7.739   9.573  1.6308 -1.4972 -0.6668
12376SOL    HW241976   1.125   7.594   9.536 -1.4616 -0.9432 -1.1316
12377SOL     OW41977   8.911   7.569   2.700  0.1995  0.2338  0.1360
12377SOL    HW141978   8.853   7.630   2.745  0.4120  0.6332 -0.1302
12377SOL    HW241979   8.937   7.506   2.768  2.1287  1.9939  1.1214
12378SOL     OW41980   4.526   4.763   8.593 -0.0929 -0.1018 -0.3154
12378SOL    HW141981   4.584   4.735   8.664 -1.2998 -1.5775  0.1518
12378SOL    HW241982   4.439   4.761   8.631 -0.8442 -1.5326 -1.9821
12379SOL     OW41983   7.725   7.351   4.339  0.3958  0.0265 -0.6040
12379SOL    HW141984   7.663   7.362   4.267  0.7116  1.3194 -0.7116
12379SOL    HW241985   7.804   7.317   4.297  0.2901 -0.0602 -0.7335
12380SOL     OW41986   2.246   1.466   8.318 -0.0407  0.2870  0.2554
12380SOL    HW141987   2.318   1.431   8.265 -0.2146 -1.1076  0.8972
12380SOL    HW241988   2.176   1.484   8.255  0.6749  1.1989 -0.3089
12381SOL     OW41989   2.269   8.968   9.475  0.0076 -0.8789  0.3462
12381SOL    HW141990   2.349   8.954   9.423 -1.0734 -2.0741 -1.0748
12381SOL    HW241991   2.205   8.908   9.437 -1.8407  0.6558  0.9225
12382SOL     OW41992   2.851   9.604   0.655  0.1556  0.2844  0.6337
12382SOL    HW141993   2.810   9.612   0.741 -0.8203 -0.1770  0.2249
12382SOL    HW241994   2.871   9.511   0.646  1.9702  0.5768  1.1035
12383SOL     OW41995   1.562   4.053   8.946  0.0783  1.0198 -0.1339
12383SOL    HW141996   1.512   4.086   8.872 -0.4053  0.3639 -0.1100
12383SOL    HW241997   1.569   3.959   8.930  3.7126  1.3770 -1.6203
12384SOL     OW41998   5.477   2.451   2.550 -0.6168 -0.1511 -0.4237
12384SOL    HW141999   5.520   2.365   2.552  0.6360  0.4598  0.8194
12384SOL    HW242000   5.406   2.443   2.614 -1.4048 -0.6608 -1.3234
12385SOL     OW42001   4.598   4.256   2.552  0.1458  0.5192 -0.4693
12385SOL    HW142002   4.558   4.295   2.629  0.1494  1.5672 -0.9852
12385SOL    HW242003   4.611   4.329   2.492  0.4773 -0.2215 -1.3209
12386SOL     OW42004   4.156   0.277   9.163  0.1291 -0.5134 -0.0792
12386SOL    HW142005   4.066   0.310   9.165  0.0134 -0.7078 -1.1485
12386SOL    HW242006   4.183   0.273   9.255 -1.0863 -0.8174  0.2869
12387SOL     OW42007   4.563   1.576   3.279  0.1962 -0.2653  0.2618
12387SOL    HW142008   4.571   1.522   3.200  1.7481 -0.9042  0.8094
12387SOL    HW242009   4.627   1.647   3.266 -0.0597  0.0366  0.6275
12388SOL     OW42010   6.801   1.282   3.475  0.4050  0.1699  0.0961
12388SOL    HW142011   6.864   1.352   3.459 -0.2920  0.6408 -0.7391
12388SOL    HW242012   6.739   1.289   3.402 -1.0383  0.2164  1.2655
12389SOL     OW42013   4.271   6.736   9.201 -0.2525 -0.6055 -0.2459
12389SOL    HW142014   4.261   6.793   9.277  1.4975  0.1882 -0.5574
12389SOL    HW242015   4.263   6.648   9.236 -0.3457 -0.2266  0.7143
12390SOL     OW42016   6.474   8.636   4.524 -0.5266  0.2846  0.1280
12390SOL    HW142017   6.525   8.660   4.446 -0.7483  0.1945 -0.0449
12390SOL    HW242018   6.412   8.571   4.492  0.3057 -0.7956  0.6652
12391SOL     OW42019   6.618   4.005   7.676  0.1127 -0.1693 -0.3939
12391SOL    HW142020   6.698   4.013   7.729 -0.1960 -0.0746  0.0645
12391SOL    HW242021   6.632   4.065   7.603  0.5891 -0.3773 -0.4781
12392SOL     OW42022   8.445   1.970   2.932 -0.8293  0.5086  0.3285
12392SOL    HW142023   8.465   2.047   2.985 -1.3868  0.8389  0.0671
12392SOL    HW242024   8.368   1.932   2.973  0.3232 -0.7989  1.3673
12393SOL     OW42025   7.851   5.740   2.028  0.1904 -0.5323 -0.0263
12393SOL    HW142026   7.758   5.726   2.047 -0.6353  1.5541 -1.9656
12393SOL    HW242027   7.895   5.727   2.112 -2.2206  1.1100  1.6474
12394SOL     OW42028   5.015   5.092   0.739 -0.5024  0.6253 -0.1609
12394SOL    HW142029   5.016   5.121   0.648  0.9456 -1.3976 -0.8642
12394SOL    HW242030   5.094   5.130   0.777 -0.4673  0.4956 -0.1030
12395SOL     OW42031   5.840   6.289   8.025  0.3979 -0.0793 -0.0546
12395SOL    HW142032   5.778   6.361   8.035 -0.8812 -1.0764 -0.4517
12395SOL    HW242033   5.919   6.318   8.071 -0.1446  1.4731 -0.0434
12396SOL     OW42034   1.464   9.183   8.490  0.5872 -0.3850  0.1312
12396SOL    HW142035   1.422   9.262   8.524  2.5611  0.4906  0.6461
12396SOL    HW242036   1.418   9.166   8.408  0.7850  1.9138 -0.5257
12397SOL     OW42037   7.571   1.351   0.277  0.5144  0.3685  0.7662
12397SOL    HW142038   7.488   1.367   0.323 -0.0998 -0.0849 -0.1547
12397SOL    HW242039   7.563   1.401   0.196  1.8932  1.7569  1.4513
12398SOL     OW42040   3.061   1.519   7.232  0.0496 -0.2804  0.2660
12398SOL    HW142041   2.976   1.532   7.272 -0.1728 -0.4776 -0.1403
12398SOL    HW242042   3.099   1.606   7.224 -0.4560 -0.1090 -0.3075
12399SOL     OW42043   7.123   2.525   4.717 -0.3449 -0.6076 -0.0659
12399SOL    HW142044   7.168   2.444   4.694 -0.3506 -0.5972 -0.1152
12399SOL    HW242045   7.031   2.499   4.725 -0.1216 -0.9467  1.6222
12400SOL     OW42046   0.921   8.430   4.780 -0.0968 -0.3569 -0.0182
12400SOL    HW142047   0.919   8.415   4.686 -1.7311 -1.3930  0.1243
12400SOL    HW242048   1.001   8.388   4.810  0.3656 -0.1347 -0.9184
12401SOL     OW42049   0.526   2.080   8.307  0.6902 -0.3695 -0.4559
12401SOL    HW142050   0.454   2.017   8.313  0.6706 -0.1992  1.7491
12401SOL    HW242051   0.589   2.050   8.372  1.7254  0.6321 -0.9655
12402SOL     OW42052   0.885   5.250   3.936 -0.3460 -0.8305 -0.0226
12402SOL    HW142053   0.939   5.306   3.881 -0.2322 -0.6373  0.2850
12402SOL    HW242054   0.934   5.168   3.942 -0.4519 -0.9212 -0.3664
12403SOL     OW42055   1.190   2.582   8.439 -0.0134 -0.1231 -0.6547
12403SOL    HW142056   1.244   2.656   8.413 -0.8409 -0.0288 -2.1887
12403SOL    HW242057   1.189   2.525   8.363 -0.9501 -0.7861 -0.1608
12404SOL     OW42058   8.622   3.593   5.656 -0.2879 -0.3635  0.7023
12404SOL    HW142059   8.634   3.688   5.662 -2.4953  0.0627 -0.6122
12404SOL    HW242060   8.622   3.564   5.747 -0.5866  1.0371  1.1788
12405SOL     OW42061   8.545   4.165   7.647 -0.5160 -0.4259  0.4666
12405SOL    HW142062   8.591   4.242   7.614 -0.7468 -0.6835 -0.4953
12405SOL    HW242063   8.601   4.132   7.718 -0.6859  0.9165  1.2585
12406SOL     OW42064   0.465   8.095   6.656 -0.7016  0.8435 -0.0305
12406SOL    HW142065   0.390   8.154   6.651 -0.6206  0.9537  0.0616
12406SOL    HW242066   0.490   8.096   6.749  0.7665  2.4931 -0.4068
12407SOL     OW42067   6.497   5.185   8.290 -0.6292  0.2250 -0.3063
12407SOL    HW142068   6.509   5.120   8.221 -1.7818  2.3670 -2.6863
12407SOL    HW242069   6.584   5.197   8.327  0.5458  0.5931 -2.9771
12408SOL     OW42070   4.213   3.840   3.784 -0.0556 -0.1860 -0.8552
12408SOL    HW142071   4.242   3.875   3.700  1.6854  0.8232  0.1254
12408SOL    HW242072   4.223   3.912   3.846  2.1445 -1.8735  0.9253
12409SOL     OW42073   3.332   0.543   6.744 -0.2286 -0.4259  0.2098
12409SOL    HW142074   3.353   0.632   6.774 -1.6389 -0.3349  1.0028
12409SOL    HW242075   3.288   0.556   6.660 -0.3424 -0.3693  0.2766
12410SOL     OW42076   0.385   4.207   8.758  0.5582  0.3588  0.7324
12410SOL    HW142077   0.309   4.149   8.760  1.3363 -0.8879 -1.8918
12410SOL    HW242078   0.352   4.288   8.718 -0.0625  1.0816  2.5837
12411SOL     OW42079   4.019   8.307   3.591  0.7040 -0.1991 -0.1027
12411SOL    HW142080   3.990   8.394   3.617 -0.4908 -0.7637  0.5401
12411SOL    HW242081   3.946   8.271   3.541  1.6593 -0.4067 -1.4031
12412SOL     OW42082   7.422   9.675   2.345 -0.4256 -0.1465  0.0381
12412SOL    HW142083   7.327   9.686   2.339 -0.2678  2.7678  1.1684
12412SOL    HW242084   7.439   9.663   2.439  0.2448 -2.7098 -0.3346
12413SOL     OW42085   8.443   9.710   4.563  0.1921 -0.3460 -0.1540
12413SOL    HW142086   8.353   9.692   4.588 -1.0459  1.7951 -2.5427
12413SOL    HW242087   8.473   9.629   4.519 -0.6487 -0.9702  0.4092
12414SOL     OW42088   6.418   0.939   0.948  0.1220 -0.2322 -0.7400
12414SOL    HW142089   6.481   1.012   0.943 -1.1517  0.8468 -3.2637
12414SOL    HW242090   6.334   0.981   0.965 -0.6500 -1.0237 -2.3167
12415SOL     OW42091   7.108   1.310   3.288 -0.3421 -0.8476  0.3460
12415SOL    HW142092   7.029   1.306   3.233 -0.3388 -0.1875  0.2855
12415SOL    HW242093   7.123   1.403   3.302  0.5476 -0.9556  0.1891
12416SOL     OW42094   7.172   5.428   2.563 -0.7178  1.0350  0.1602
12416SOL    HW142095   7.111   5.412   2.634 -0.7228 -3.0243 -0.5301
12416SOL    HW242096   7.205   5.341   2.539  0.5013  2.3555 -3.7336
12417SOL     OW42097   4.079   6.162   6.207 -0.2310 -0.3820  0.1262
12417SOL    HW142098   4.092   6.194   6.296 -1.3074  1.7474 -0.4132
12417SOL    HW242099   4.003   6.211   6.175  0.0833 -1.1481 -1.9439
12418SOL     OW42100   5.664   7.115   2.769 -0.2356 -0.1149  0.3803
12418SOL    HW142101   5.655   7.026   2.735 -0.9915 -0.0377  0.3550
12418SOL    HW242102   5.687   7.104   2.861  0.5914 -0.3275  0.1565
12419SOL     OW42103   9.139   1.634   6.876 -0.0562  0.3150  0.2290
12419SOL    HW142104   9.062   1.578   6.871 -2.2316  2.7344  2.8830
12419SOL    HW242105   9.181   1.611   6.958 -0.5688  1.9136  0.9967
12420SOL     OW42106   4.686   9.494   7.641  0.4279 -0.5253 -0.1429
12420SOL    HW142107   4.653   9.518   7.727  0.7129 -1.2220  0.1695
12420SOL    HW242108   4.775   9.463   7.658 -0.0155 -2.0483 -0.4791
12421SOL     OW42109   3.231   9.291   6.670 -0.1096 -0.0602 -0.0912
12421SOL    HW142110   3.176   9.300   6.592  0.6416  0.0758 -0.6192
12421SOL    HW242111   3.243   9.381   6.701  1.5157  0.1595 -1.2066
12422SOL     OW42112   1.500   5.697   5.698  0.8440 -0.5450 -0.0720
12422SOL    HW142113   1.407   5.693   5.720  0.9180 -0.7958  0.2003
12422SOL    HW242114   1.532   5.776   5.742  1.1138 -1.3392  1.2260
12423SOL     OW42115   0.687   7.051   1.597 -0.1418 -0.3208 -0.0272
12423SOL    HW142116   0.604   7.097   1.582  0.7158  1.3530  0.0369
12423SOL    HW242117   0.704   7.061   1.690 -0.3256 -1.4923  0.1388
12424SOL     OW42118   6.032   5.432   4.690 -0.0391 -0.4205 -0.5564
12424SOL    HW142119   6.071   5.384   4.616 -0.6910 -0.1390 -1.0938
12424SOL    HW242120   5.957   5.478   4.652 -0.3544 -0.2282  0.2782
12425SOL     OW42121   5.125   2.019   6.090  0.2132  0.6474 -0.1304
12425SOL    HW142122   5.133   1.967   6.170 -0.7950  0.7791  0.0781
12425SOL    HW242123   5.078   2.098   6.117  0.3132  0.9302 -0.7538
12426SOL     OW42124   0.895   6.615   8.805  0.0129  0.7611 -0.4055
12426SOL    HW142125   0.801   6.598   8.795  0.1471 -0.3092  0.0172
12426SOL    HW242126   0.922   6.649   8.720 -1.0737  2.7336 -0.0196
12427SOL     OW42127   6.536   6.362   7.869  0.0473 -0.5816 -0.0576
12427SOL    HW142128   6.493   6.291   7.820 -2.7522  0.3181  0.8987
12427SOL    HW242129   6.564   6.322   7.950 -0.1013 -0.9415 -0.1820
12428SOL     OW42130   3.403   8.121   7.989  0.2335 -0.4860  0.1505
12428SOL    HW142131   3.455   8.200   8.003  0.6065 -0.1914 -2.4290
12428SOL    HW242132   3.350   8.113   8.068  1.0825  1.6290  1.0138
12429SOL     OW42133   2.444   6.444   4.757  0.2647 -0.2055  0.3465
12429SOL    HW142134   2.465   6.441   4.850  1.3526 -0.7504  0.0955
12429SOL    HW242135   2.414   6.534   4.742  0.1903 -0.0852  1.1984
12430SOL     OW42136   1.745   5.130   1.763 -0.0230 -0.0105 -0.0797
12430SOL    HW142137   1.695   5.049   1.769 -0.0824 -0.0093 -0.5563
12430SOL    HW242138   1.793   5.135   1.846 -1.0053  0.1170  0.4948
12431SOL     OW42139   9.456   0.973   5.902  1.2412 -0.1349 -0.0680
12431SOL    HW142140   9.443   0.953   5.995 -0.2181  0.3533 -0.1415
12431SOL    HW242141   9.520   0.908   5.872 -0.3756 -2.1620  0.6110
12432SOL     OW42142   7.311   6.156   8.270 -0.1995  0.3042  0.7220
12432SOL    HW142143   7.381   6.101   8.305  0.2423  1.0871  1.0991
12432SOL    HW242144   7.291   6.118   8.185  2.3201  1.4189 -0.4531
12433SOL     OW42145   0.005   1.485   8.871  0.1484  0.1152  0.6479
12433SOL    HW142146   0.057   1.474   8.951  2.0618 -0.6388 -0.6321
12433SOL    HW242147  -0.048   1.562   8.888  1.2817  0.5977  2.2648
12434SOL     OW42148   1.407   5.181   7.610  0.6021  0.1497 -0.5389
12434SOL    HW142149   1.489   5.132   7.604 -0.1132 -1.4900  1.5999
12434SOL    HW242150   1.339   5.114   7.602 -0.5048  1.2889 -0.8940
12435SOL     OW42151   0.912   9.722   2.866  0.0476 -0.0382 -0.1957
12435SOL    HW142152   0.988   9.672   2.897 -0.0322  0.2958  0.5668
12435SOL    HW242153   0.842   9.657   2.859  0.4231 -0.3675 -1.0010
12436SOL     OW42154   5.435   1.151   8.058  0.1451 -0.5035  0.1379
12436SOL    HW142155   5.401   1.162   8.147  1.2637 -1.3895  0.7061
12436SOL    HW242156   5.414   1.060   8.035 -0.2578 -0.2444 -0.5787
12437SOL     OW42157   1.133   5.975   7.225  0.1581  0.1096 -0.1209
12437SOL    HW142158   1.045   5.947   7.201  0.6882  0.4055 -2.6601
12437SOL    HW242159   1.188   5.899   7.208  0.5886  0.3718  0.0762
12438SOL     OW42160   0.440   1.070   5.595 -0.5016 -0.1254 -0.0625
12438SOL    HW142161   0.495   1.125   5.651 -1.1260 -0.6665  1.1237
12438SOL    HW242162   0.492   1.058   5.515  1.1797 -0.7287  1.0521
12439SOL     OW42163   0.188   5.193   1.084  0.3239 -0.4599  0.0704
12439SOL    HW142164   0.146   5.165   1.165 -0.0664  0.7785  0.3234
12439SOL    HW242165   0.116   5.196   1.020  0.6082 -1.3185 -0.3016
12440SOL     OW42166   4.730   9.114   3.114  0.0297 -0.4956  0.3593
12440SOL    HW142167   4.808   9.136   3.063 -0.3115  1.1655  0.4898
12440SOL    HW242168   4.673   9.069   3.052  0.1274  0.3965 -0.3951
12441SOL     OW42169   0.279   0.636   1.823 -0.6616 -0.3869 -0.4136
12441SOL    HW142170   0.190   0.665   1.806 -0.1324  2.3022  0.8964
12441SOL    HW242171   0.334   0.702   1.781  0.6524 -0.2059  1.4534
12442SOL     OW42172   1.102   3.179   2.450 -0.2002  0.1752 -0.2643
12442SOL    HW142173   1.162   3.153   2.520 -1.6280 -0.3315  0.7930
12442SOL    HW242174   1.086   3.098   2.401 -1.0430  0.0299  0.2476
12443SOL     OW42175   8.373   7.312   0.042  0.3811 -0.2005  0.6500
12443SOL    HW142176   8.340   7.352  -0.038 -0.4710  0.0596  1.1206
12443SOL    HW242177   8.300   7.260   0.076  0.9900 -0.9484  0.8451
12444SOL     OW42178   6.351   5.354   5.331 -0.0681  0.0915  0.0073
12444SOL    HW142179   6.442   5.327   5.338 -0.1010  0.3385  1.9932
12444SOL    HW242180   6.336   5.408   5.409 -1.8683  0.1809 -0.3582
12445SOL     OW42181   9.345   5.110   2.784  0.0230  0.1411 -0.4506
12445SOL    HW142182   9.414   5.084   2.844 -0.4129  1.0711  0.4823
12445SOL    HW242183   9.265   5.106   2.836 -0.7780 -1.5564 -1.6762
12446SOL     OW42184   6.910   9.515   1.870  0.0910  0.5334  0.1413
12446SOL    HW142185   6.859   9.447   1.826 -0.4584  0.3622  1.0161
12446SOL    HW242186   6.941   9.572   1.799  0.6844 -0.6988 -0.6179
12447SOL     OW42187   5.479   3.549   9.433 -0.1921 -0.1075  0.0621
12447SOL    HW142188   5.454   3.513   9.518 -0.0074  2.2216  1.1524
12447SOL    HW242189   5.521   3.475   9.388  0.6181 -1.1521  2.3491
12448SOL     OW42190   3.859   7.897   3.513  0.3173  0.5251 -0.1890
12448SOL    HW142191   3.853   7.989   3.488  0.7400  0.1639 -1.7293
12448SOL    HW242192   3.817   7.849   3.441  0.5203 -0.5092  0.3586
12449SOL     OW42193   0.516   6.133   6.338 -0.1472 -0.1592  0.1537
12449SOL    HW142194   0.582   6.090   6.393 -0.1253 -1.2717 -0.7107
12449SOL    HW242195   0.450   6.065   6.323  0.5710 -0.4091 -2.3832
12450SOL     OW42196   7.344   6.114   1.209  0.0801 -0.2217 -0.6844
12450SOL    HW142197   7.308   6.108   1.120 -1.9297 -1.5577  0.1425
12450SOL    HW242198   7.409   6.043   1.214 -1.2300 -1.4544 -0.5284
12451SOL     OW42199   6.272   0.033   4.395  0.3869  0.3358  0.1177
12451SOL    HW142200   6.200  -0.029   4.383 -0.4311  1.2854 -0.0147
12451SOL    HW242201   6.248   0.108   4.340  1.4331  0.7102  0.1492
12452SOL     OW42202   7.581   5.143   2.012 -0.0444  0.3392  0.5464
12452SOL    HW142203   7.514   5.139   2.081  0.3872  0.5923  0.9841
12452SOL    HW242204   7.550   5.211   1.953 -1.5497 -1.3330 -0.7372
12453SOL     OW42205   9.370   9.406   2.574  0.1474 -0.1533  0.2330
12453SOL    HW142206   9.389   9.400   2.480  0.3033  1.7920  0.1111
12453SOL    HW242207   9.280   9.373   2.582  0.3949 -1.0489 -0.4667
12454SOL     OW42208   6.297   9.310   6.483  0.0121 -0.1190  0.5605
12454SOL    HW142209   6.222   9.325   6.424 -0.1006  0.2142  0.7860
12454SOL    HW242210   6.339   9.395   6.490  0.4077 -0.3061  0.4447
12455SOL     OW42211   3.653   1.174   9.100  0.1452 -0.0754  0.0661
12455SOL    HW142212   3.609   1.101   9.143  0.1309 -0.7829 -1.1080
12455SOL    HW242213   3.737   1.181   9.144  0.0859 -0.6994  0.2819
12456SOL     OW42214   3.461   2.730   0.370 -0.0847  0.1025 -0.2288
12456SOL    HW142215   3.430   2.798   0.431  2.0940 -0.0276  1.1181
12456SOL    HW242216   3.420   2.650   0.401  0.3418  0.1824  0.5637
12457SOL     OW42217   1.453   8.330   6.666  0.6760 -0.2081 -0.2456
12457SOL    HW142218   1.461   8.395   6.736  0.3171  1.0912 -1.3797
12457SOL    HW242219   1.533   8.338   6.615  1.4672 -1.9649  0.6403
12458SOL     OW42220   3.809   1.151   8.493  0.1111  0.3510  0.0718
12458SOL    HW142221   3.856   1.142   8.410 -0.3816  0.4191 -0.2159
12458SOL    HW242222   3.861   1.214   8.543 -0.8000  2.0784 -1.0599
12459SOL     OW42223   4.287   6.879   0.209  0.1330  0.2709 -0.3638
12459SOL    HW142224   4.225   6.951   0.218  0.6895  0.8956 -1.3902
12459SOL    HW242225   4.249   6.808   0.261 -0.7513  1.0814  0.1213
12460SOL     OW42226   2.826   7.708   8.956 -0.0083 -0.1627 -0.0647
12460SOL    HW142227   2.752   7.650   8.972 -1.2649  1.6904  1.3158
12460SOL    HW242228   2.790   7.778   8.902  1.5321 -0.7275 -1.9223
12461SOL     OW42229   4.908   0.258   9.210 -0.1607  0.4275  0.1787
12461SOL    HW142230   4.881   0.331   9.266 -1.3437 -0.1015  0.3368
12461SOL    HW242231   4.918   0.184   9.270 -0.9664 -0.0236 -0.2128
12462SOL     OW42232   2.330   9.211   4.964  1.3596 -0.1204 -0.1366
12462SOL    HW142233   2.266   9.209   5.035  0.8885  0.4268 -0.5360
12462SOL    HW242234   2.413   9.228   5.007  1.0545  0.3671  0.2793
12463SOL     OW42235   2.320   6.841   3.124 -0.0849  0.0590 -0.2465
12463SOL    HW142236   2.332   6.747   3.108  0.8922  0.3014 -1.0185
12463SOL    HW242237   2.298   6.877   3.038 -1.3532  0.4163  0.2123
12464SOL     OW42238   4.348   6.188   1.704 -0.5839  0.7973  0.2072
12464SOL    HW142239   4.305   6.106   1.731 -1.9110  1.6660  0.8169
12464SOL    HW242240   4.385   6.223   1.785  3.1191 -0.8677 -0.5478
12465SOL     OW42241   7.401   7.857   4.541 -0.2018  0.1651  0.0654
12465SOL    HW142242   7.429   7.948   4.530  1.0069 -0.2552 -0.5700
12465SOL    HW242243   7.331   7.861   4.606  0.5346  1.4407  0.8324
12466SOL     OW42244   7.640   3.821   0.776 -0.0674  0.0512 -0.2885
12466SOL    HW142245   7.661   3.765   0.701 -0.5907 -0.0349 -0.3765
12466SOL    HW242246   7.608   3.759   0.842  0.3348  0.1336 -0.0165
12467SOL     OW42247   4.071   2.330   4.607  0.1406 -0.2049 -0.6385
12467SOL    HW142248   3.984   2.317   4.644  0.8924  0.0030  1.2720
12467SOL    HW242249   4.087   2.423   4.615  1.7863 -0.6363  2.0405
12468SOL     OW42250   3.866   1.334   4.839  0.0072 -0.0033 -0.6325
12468SOL    HW142251   3.957   1.324   4.812 -0.3538 -2.4520 -1.2439
12468SOL    HW242252   3.867   1.324   4.934  0.3012 -0.7904 -0.7154
12469SOL     OW42253   3.933   0.165   7.524 -0.3466  0.1740  0.3534
12469SOL    HW142254   3.984   0.130   7.596  1.6760  1.0183 -0.5682
12469SOL    HW242255   3.969   0.123   7.446  1.0662  2.8822 -0.6207
12470SOL     OW42256   5.299   5.873   7.906  0.3793  0.2677 -0.3701
12470SOL    HW142257   5.328   5.836   7.823  1.5623  2.4506 -1.0055
12470SOL    HW242258   5.270   5.962   7.884 -0.8775  0.3333  1.3052
12471SOL     OW42259   1.174   7.862   4.438 -0.3938 -0.0412 -0.5775
12471SOL    HW142260   1.196   7.860   4.345  2.3912 -1.1405 -0.0192
12471SOL    HW242261   1.210   7.780   4.473  1.1096  1.5063  1.8842
12472SOL     OW42262   9.106   6.649   1.732 -0.2817  0.2845  0.2457
12472SOL    HW142263   9.091   6.705   1.656  0.0760  1.4601  1.0231
12472SOL    HW242264   9.042   6.578   1.722  0.3862 -0.1042 -1.6296
12473SOL     OW42265   6.124   3.224   3.747 -0.0996 -0.0977  0.1458
12473SOL    HW142266   6.080   3.215   3.832 -0.7116 -0.3946 -0.1951
12473SOL    HW242267   6.178   3.145   3.740 -0.9190 -0.6353 -0.2323
12474SOL     OW42268   6.814   3.829   8.958  0.2104 -0.1912  0.2423
12474SOL    HW142269   6.754   3.764   8.920 -1.0577  0.1905  1.5269
12474SOL    HW242270   6.777   3.913   8.932 -0.1466  0.0602  1.5108
12475SOL     OW42271   9.192   0.072   7.225  0.0997 -0.2316 -0.8492
12475SOL    HW142272   9.259   0.094   7.161  1.8920  0.3162  1.0929
12475SOL    HW242273   9.241   0.034   7.298 -1.7992 -0.4157  0.3824
12476SOL     OW42274   4.015   1.379   3.562 -0.1391 -0.0959  0.0753
12476SOL    HW142275   4.014   1.362   3.656 -1.0816 -0.3396  0.0341
12476SOL    HW242276   4.073   1.311   3.526  1.3836  0.8674  0.6087
12477SOL     OW42277   9.138   3.563   1.303 -0.1184  0.5223 -0.4212
12477SOL    HW142278   9.050   3.596   1.284 -0.7552 -1.4337 -1.1966
12477SOL    HW242279   9.124   3.471   1.326  1.7931 -0.0741 -1.4334
12478SOL     OW42280   7.777   3.398   2.832  0.5905 -0.2537  0.5514
12478SOL    HW142281   7.688   3.422   2.857  0.2818 -0.9670  0.1691
12478SOL    HW242282   7.789   3.310   2.867  0.1806 -1.2520 -1.6331
12479SOL     OW42283   8.182   7.416   4.115  0.0461  0.2981 -0.4886
12479SOL    HW142284   8.127   7.339   4.132  0.1688  0.1628 -0.6992
12479SOL    HW242285   8.131   7.490   4.148 -0.0595  0.1224 -0.2577
12480SOL     OW42286   0.759   1.581   7.614  0.0148 -0.4082  0.3921
12480SOL    HW142287   0.717   1.544   7.692  0.2329 -0.3144  0.5536
12480SOL    HW242288   0.826   1.517   7.591  0.1251 -0.3082  0.4360
12481SOL     OW42289   8.815   2.112   7.731  0.6871  0.0507  0.1226
12481SOL    HW142290   8.774   2.196   7.709  2.4039  1.2532  1.2677
12481SOL    HW242291   8.756   2.046   7.693 -0.3703  1.7593 -1.3919
12482SOL     OW42292   9.439   2.930   8.491 -0.4068  0.2423  0.3081
12482SOL    HW142293   9.385   2.904   8.416 -1.2630 -0.5009  1.1581
12482SOL    HW242294   9.444   2.852   8.546 -0.0325  0.8556  1.1744
12483SOL     OW42295   8.735   0.068   7.652  0.1200  0.0141 -0.3776
12483SOL    HW142296   8.729   0.146   7.708  0.4813 -0.0362 -0.2673
12483SOL    HW242297   8.744   0.103   7.564  0.3260  0.0954 -0.3240
12484SOL     OW42298   2.256   1.758   4.922  0.0679  0.2038  0.2681
12484SOL    HW142299   2.313   1.757   4.845  1.0478  0.9620  0.9541
12484SOL    HW242300   2.289   1.831   4.974  1.1146 -1.8581  2.6776
12485SOL     OW42301   8.999   1.691   2.111 -0.2323  0.1826  0.0210
12485SOL    HW142302   8.926   1.722   2.164 -1.0812 -0.6391 -0.6339
12485SOL    HW242303   9.073   1.747   2.136 -0.6946  0.0459  1.7938
12486SOL     OW42304   3.271   9.233   8.216 -0.1748  0.3283  0.0554
12486SOL    HW142305   3.344   9.171   8.216 -0.5583 -0.1475 -0.8740
12486SOL    HW242306   3.210   9.198   8.151 -0.7617  1.2628  0.0837
12487SOL     OW42307   1.920   6.379   7.228 -0.5801  0.4140 -0.0746
12487SOL    HW142308   1.922   6.332   7.312  1.6981  2.1088  0.9103
12487SOL    HW242309   1.996   6.345   7.180 -0.5768  1.0542 -0.5305
12488SOL     OW42310   2.677   7.378   1.523  0.0549  0.0718 -0.2837
12488SOL    HW142311   2.673   7.287   1.553  1.9219  0.7088  2.1497
12488SOL    HW242312   2.602   7.420   1.563 -1.1770 -0.4455 -1.9166
12489SOL     OW42313   4.978   6.200   1.751 -0.3553 -0.0108 -0.0480
12489SOL    HW142314   5.054   6.144   1.762 -0.3775  0.2784  2.0098
12489SOL    HW242315   4.903   6.140   1.752 -0.2905 -0.0892  0.6076
12490SOL     OW42316   8.931   6.589   6.095 -0.0656 -0.0063  0.5097
12490SOL    HW142317   8.916   6.495   6.104  1.2328 -0.0805  2.8045
12490SOL    HW242318   9.011   6.605   6.145 -1.7780  2.7433  2.6737
12491SOL     OW42319   6.414   7.191   9.615  0.3016 -0.0840  0.6214
12491SOL    HW142320   6.441   7.101   9.632 -0.8131 -0.3985  0.8145
12491SOL    HW242321   6.434   7.205   9.523 -1.5252 -1.2918 -0.0027
12492SOL     OW42322   9.642   1.393   5.337  0.3635 -0.1341  0.0426
12492SOL    HW142323   9.682   1.308   5.320  2.4697  1.0067 -1.1244
12492SOL    HW242324   9.621   1.427   5.250 -0.8173  0.3912  0.5164
12493SOL     OW42325   6.040   2.419   9.342  0.2827 -0.2782  0.0629
12493SOL    HW142326   5.986   2.444   9.417 -0.0796 -0.7795 -0.0266
12493SOL    HW242327   6.017   2.482   9.274 -0.0779 -0.3909  0.0762
12494SOL     OW42328   2.985   0.730   0.536 -0.0523 -0.5391 -0.8951
12494SOL    HW142329   3.068   0.750   0.580  0.4451  0.4890 -2.2528
12494SOL    HW242330   2.919   0.775   0.589  0.4951  0.3763 -0.9692
12495SOL     OW42331   0.771   4.080   6.161  0.0896 -0.2872  0.0817
12495SOL    HW142332   0.802   4.170   6.165 -0.3903 -0.0272 -1.4949
12495SOL    HW242333   0.841   4.033   6.116 -1.7410  0.3720 -3.8269
12496SOL     OW42334   5.223   0.918   3.734  0.1269  0.5468  0.2003
12496SOL    HW142335   5.161   0.849   3.710 -0.7913  1.2495  0.5079
12496SOL    HW242336   5.256   0.951   3.650  1.1078 -0.7189  0.0626
12497SOL     OW42337   5.099   4.337   8.146 -0.0328 -0.3914 -0.4533
12497SOL    HW142338   5.186   4.350   8.184 -0.6207 -1.1426  1.2129
12497SOL    HW242339   5.043   4.315   8.220 -2.0297  1.6742 -1.2095
12498SOL     OW42340   0.406   4.717   9.233  0.3648 -0.4263 -0.8844
12498SOL    HW142341   0.321   4.710   9.190 -1.7565  0.4938  2.7513
12498SOL    HW242342   0.420   4.631   9.272  0.6439 -0.2892 -0.6808
12499SOL     OW42343   8.993   6.111   1.286  0.4372 -0.0046  0.4742
12499SOL    HW142344   8.912   6.080   1.246 -0.0326 -0.2491  1.5719
12499SOL    HW242345   8.964   6.176   1.350  1.3275  2.1115 -1.1412
12500SOL     OW42346   0.836   3.969   2.485 -0.6189  0.5787  0.0490
12500SOL    HW142347   0.751   4.007   2.506 -0.1217  1.0316  1.3621
12500SOL    HW242348   0.862   3.923   2.565  0.9624  1.5759  0.1479
12501SOL     OW42349   0.134   5.323   8.641  0.0257 -0.1269 -0.4261
12501SOL    HW142350   0.071   5.365   8.581 -0.5366 -0.0592  0.1949
12501SOL    HW242351   0.086   5.316   8.723  0.8826  0.0353  0.0942
12502SOL     OW42352   1.855   0.247   5.456  0.2224 -0.0804  0.0823
12502SOL    HW142353   1.820   0.268   5.369  0.5687  1.4078  0.2845
12502SOL    HW242354   1.786   0.275   5.517 -0.0440 -1.1718  0.3114
12503SOL     OW42355   6.232   7.356   4.403  0.5596 -0.0193 -0.4983
12503SOL    HW142356   6.175   7.279   4.404  1.4901 -0.7269 -0.7644
12503SOL    HW242357   6.286   7.347   4.482  2.3164 -0.9293 -1.7505
12504SOL     OW42358   0.208   9.189   6.250  0.1923 -0.3928 -0.1192
12504SOL    HW142359   0.115   9.213   6.258  0.3534  0.0972  0.3815
12504SOL    HW242360   0.250   9.234   6.323  0.8908 -0.2996 -0.5725
12505SOL     OW42361   1.971   6.434   9.076 -0.8208 -0.1175  0.1520
12505SOL    HW142362   1.902   6.498   9.057 -0.1758  0.4954 -0.1547
12505SOL    HW242363   1.995   6.451   9.167 -2.0597 -1.2944  0.7398
12506SOL     OW42364   1.738   7.836   3.816  0.1756 -0.3758 -0.3556
12506SOL    HW142365   1.747   7.833   3.911  1.8475  1.2374 -0.4087
12506SOL    HW242366   1.649   7.806   3.799 -0.6635  0.6919  1.8275
12507SOL     OW42367   6.440   6.215   1.301 -1.0001  0.2112  0.0822
12507SOL    HW142368   6.418   6.298   1.344 -1.2435 -0.0658  0.5101
12507SOL    HW242369   6.359   6.188   1.258 -1.1677 -0.2189  0.6540
12508SOL     OW42370   1.458   2.914   1.840  0.0750  0.1918 -0.1687
12508SOL    HW142371   1.394   2.964   1.788  0.5292  0.0495 -0.8818
12508SOL    HW242372   1.408   2.839   1.873 -0.3676  0.5975  0.0908
12509SOL     OW42373   3.606   1.499   9.145 -0.1420  0.1999 -0.1873
12509SOL    HW142374   3.693   1.461   9.133 -0.2114  0.3917 -1.3384
12509SOL    HW242375   3.565   1.493   9.059 -0.8952  1.0495  0.0995
12510SOL     OW42376   5.263   4.214   4.303 -0.4339  0.1401  0.3501
12510SOL    HW142377   5.297   4.204   4.392  0.1008 -0.8711  0.0560
12510SOL    HW242378   5.340   4.209   4.247 -0.8980 -0.7405 -0.2498
12511SOL     OW42379   9.614   0.062   4.013  0.2625 -0.8938 -0.0490
12511SOL    HW142380   9.617   0.157   4.008  1.3452 -0.8603  0.8707
12511SOL    HW242381   9.636   0.032   3.925  1.2317 -0.2874 -0.0256
12512SOL     OW42382   9.515   2.960   4.365 -0.3603 -0.7048  0.2770
12512SOL    HW142383   9.456   2.905   4.314 -1.3818  0.9402 -0.3725
12512SOL    HW242384   9.497   3.049   4.335  2.1930 -0.0990  0.3135
12513SOL     OW42385   0.782   1.232   8.538 -0.7417  0.0102  0.1324
12513SOL    HW142386   0.831   1.175   8.598 -0.5580 -0.8666 -0.8111
12513SOL    HW242387   0.846   1.256   8.471 -1.7272 -1.8789 -1.6105
12514SOL     OW42388   0.757   2.527   2.766 -0.3209 -0.2027 -0.0562
12514SOL    HW142389   0.808   2.550   2.688  0.6005 -2.1184 -0.0692
12514SOL    HW242390   0.684   2.589   2.765 -1.2513 -1.1154 -3.3458
12515SOL     OW42391   0.529   4.549   0.614  0.5507  0.0870 -0.2975
12515SOL    HW142392   0.473   4.479   0.580 -1.4009  0.2904  2.2736
12515SOL    HW242393   0.617   4.511   0.612 -0.3308 -2.1654  0.2646
12516SOL     OW42394   4.160   6.458   9.591  0.1117  0.1931 -0.0852
12516SOL    HW142395   4.075   6.493   9.564 -1.2267 -0.9952  2.2932
12516SOL    HW242396   4.142   6.367   9.614  2.2671 -0.3777 -0.4798
12517SOL     OW42397   7.090   5.066   1.200 -0.6658  0.4556  0.4817
12517SOL    HW142398   7.044   5.002   1.254 -3.3108  0.3628 -1.6810
12517SOL    HW242399   7.085   5.031   1.111  1.9861  1.4401 -0.1443
12518SOL     OW42400   6.438   8.981   6.138  0.2354  0.2358 -0.2476
12518SOL    HW142401   6.348   8.949   6.150  0.3413 -0.0021 -0.1024
12518SOL    HW242402   6.451   8.979   6.043 -0.3121  1.3588 -0.3656
12519SOL     OW42403   9.468   5.126   7.173 -0.6076  0.4393  0.1888
12519SOL    HW142404   9.427   5.205   7.136  0.0370  0.3669 -0.7000
12519SOL    HW242405   9.395   5.065   7.185 -0.6980 -0.0007 -2.1720
12520SOL     OW42406   0.229   3.504   8.008  0.1082  0.4544 -0.6364
12520SOL    HW142407   0.170   3.574   8.036 -0.6634  0.1739 -1.5068
12520SOL    HW242408   0.270   3.473   8.089 -1.5271  0.1243  0.1116
12521SOL     OW42409   8.743   4.003   6.819  0.0693 -0.0523 -0.1418
12521SOL    HW142410   8.688   4.007   6.897  1.5014  3.2021  0.8498
12521SOL    HW242411   8.701   4.063   6.757  0.5345 -0.3499 -0.7568
12522SOL     OW42412   7.879   2.806   0.730 -0.1116  0.6413 -0.1500
12522SOL    HW142413   7.932   2.781   0.654  1.1568  1.6870  0.3655
12522SOL    HW242414   7.917   2.888   0.761 -0.9513  0.5262  1.2995
12523SOL     OW42415   3.974   7.204   8.002 -0.3511 -0.0408  0.1679
12523SOL    HW142416   4.057   7.251   8.013 -0.5059 -0.0285  1.5112
12523SOL    HW242417   3.916   7.268   7.962  0.5363 -0.3551 -1.7143
12524SOL     OW42418   6.391   6.316   4.321  0.2042  0.8192  0.0198
12524SOL    HW142419   6.407   6.400   4.364 -0.1788  0.3595  1.0812
12524SOL    HW242420   6.324   6.274   4.374  1.1178 -0.5989  0.1152
12525SOL     OW42421   2.512   1.208   2.783  0.3713  0.4979 -0.2942
12525SOL    HW142422   2.548   1.272   2.721  2.7945 -0.4247  0.0791
12525SOL    HW242423   2.548   1.124   2.756 -1.6535 -0.5621  0.0703
12526SOL     OW42424   1.075   7.464   3.796  0.2800 -0.3583  0.1806
12526SOL    HW142425   1.097   7.456   3.889  0.9886 -1.1031 -0.0458
12526SOL    HW242426   0.989   7.423   3.788  0.0239  0.0898  0.5768
12527SOL     OW42427   0.868   2.160   2.669 -0.1827 -0.7159 -0.0993
12527SOL    HW142428   0.910   2.242   2.696 -0.0040 -0.8446  0.0143
12527SOL    HW242429   0.777   2.185   2.652 -0.3866 -0.6950  0.9608
12528SOL     OW42430   2.680   2.107   1.609 -0.3486  0.2000 -0.0931
12528SOL    HW142431   2.708   2.159   1.534 -0.1372  0.3303  0.0758
12528SOL    HW242432   2.608   2.158   1.647 -0.1626  0.3553  0.0534
12529SOL     OW42433   7.775   9.593   4.098 -0.1772  0.5004  0.0572
12529SOL    HW142434   7.685   9.574   4.124 -0.9969 -0.7991 -3.2556
12529SOL    HW242435   7.792   9.680   4.135 -3.4322  1.5536 -0.5839
12530SOL     OW42436   4.212   0.610   7.643  0.0624 -0.1181 -0.0033
12530SOL    HW142437   4.184   0.684   7.590  0.8851 -0.0065 -0.2975
12530SOL    HW242438   4.187   0.533   7.592  0.2857 -0.0196 -0.2649
12531SOL     OW42439   8.275   4.746   7.764  0.3749  0.3966  0.0596
12531SOL    HW142440   8.299   4.664   7.720  1.8032  0.5210  0.5440
12531SOL    HW242441   8.333   4.811   7.726  0.9230  0.7035  1.3717
12532SOL     OW42442   7.094   8.915   3.555  0.4863  0.1391  0.2496
12532SOL    HW142443   7.110   8.997   3.603 -0.8321  2.4387 -2.9009
12532SOL    HW242444   7.179   8.871   3.555  2.2459  3.1872 -0.7112
12533SOL     OW42445   7.134   5.977   5.162 -0.2329 -0.0528 -0.2311
12533SOL    HW142446   7.068   5.911   5.141 -0.0329 -0.0789 -0.7874
12533SOL    HW242447   7.149   6.023   5.080 -1.1995  1.4612  0.3879
12534SOL     OW42448   1.810   9.754   0.695 -0.2222 -0.0563 -0.2517
12534SOL    HW142449   1.889   9.712   0.661 -0.1996 -1.7170  1.5974
12534SOL    HW242450   1.840   9.800   0.774 -1.0420 -0.6056  0.4016
12535SOL     OW42451   8.025   0.324   6.282  0.0795 -0.0617 -0.2925
12535SOL    HW142452   8.020   0.315   6.187 -1.0366  0.2647 -0.2750
12535SOL    HW242453   8.082   0.400   6.296 -1.0415  0.8960 -0.7584
12536SOL     OW42454   0.153   8.191   1.718 -0.2446 -0.5886  0.3924
12536SOL    HW142455   0.242   8.196   1.682 -1.2115 -1.4902 -2.4532
12536SOL    HW242456   0.126   8.282   1.729  1.3384 -0.2882  2.3658
12537SOL     OW42457   2.884   3.931   7.560  0.2952  0.2068 -0.1642
12537SOL    HW142458   2.822   3.935   7.487  1.2533  1.8286 -0.9445
12537SOL    HW242459   2.856   4.001   7.619 -1.0586 -1.6958  1.5967
12538SOL     OW42460   8.095   3.901   8.405 -0.0184 -0.7163  0.2607
12538SOL    HW142461   8.042   3.835   8.450  0.7969 -1.1520  0.6056
12538SOL    HW242462   8.033   3.947   8.348 -0.6336 -1.6574  0.1487
12539SOL     OW42463   4.977   2.574   7.612  0.0657 -0.2652 -0.1728
12539SOL    HW142464   4.939   2.497   7.654 -0.2589  0.1383  0.2902
12539SOL    HW242465   5.034   2.539   7.544 -1.3473 -0.8912 -1.0916
12540SOL     OW42466   6.459   0.984   1.919  0.2221 -0.0450  0.1051
12540SOL    HW142467   6.447   1.012   1.828 -0.3773 -1.0150 -0.1262
12540SOL    HW242468   6.531   1.038   1.951 -0.5890  1.4118 -0.4590
12541SOL     OW42469   0.198   0.027   8.094  0.1071  0.4831  0.1490
12541SOL    HW142470   0.205   0.123   8.095 -3.8483  0.9556 -1.3950
12541SOL    HW242471   0.176   0.005   8.004  1.2664 -1.9845  0.3876
12542SOL     OW42472   7.531   1.026   4.736 -0.1114 -0.3230  0.2288
12542SOL    HW142473   7.467   0.969   4.694 -0.7057  1.2211 -1.0871
12542SOL    HW242474   7.479   1.096   4.776  0.6898  1.2844 -1.3589
12543SOL     OW42475   7.541   6.734   0.281 -0.3475 -0.3682 -0.1704
12543SOL    HW142476   7.465   6.777   0.243 -1.1742 -0.2680  1.5051
12543SOL    HW242477   7.608   6.803   0.285 -0.7542  0.0273 -0.0424
12544SOL     OW42478   3.986   9.299   9.473 -0.7366  1.1745  0.0371
12544SOL    HW142479   3.920   9.357   9.435 -1.6606  0.9434  1.2338
12544SOL    HW242480   3.965   9.296   9.567  1.0538  1.1967  0.4874
12545SOL     OW42481   2.977   2.339   1.503  0.2155 -0.9873 -0.0515
12545SOL    HW142482   2.945   2.365   1.590  1.2447 -0.0613  0.0740
12545SOL    HW242483   2.898   2.336   1.448 -0.1972  0.5863  0.3939
12546SOL     OW42484   5.013   7.564   5.962  0.2253  0.3635 -0.0034
12546SOL    HW142485   4.965   7.582   6.044 -0.4327  0.0950 -0.3215
12546SOL    HW242486   5.068   7.489   5.983 -0.8586 -0.5011 -0.1419
12547SOL     OW42487   0.572   3.094   6.972 -0.2443 -0.3942  0.2616
12547SOL    HW142488   0.498   3.153   6.983 -0.6590 -1.0779  1.2852
12547SOL    HW242489   0.533   3.007   6.968  0.4124 -0.6699 -0.5820
12548SOL     OW42490   7.043   8.684   6.164 -0.2945  0.3814  0.0246
12548SOL    HW142491   7.121   8.631   6.148  0.5807  0.9637  2.1083
12548SOL    HW242492   7.061   8.766   6.118  0.9707  1.0174  1.5625
12549SOL     OW42493   8.324   0.018   8.605 -0.0738 -0.4061  0.3155
12549SOL    HW142494   8.398  -0.039   8.586  0.1151  0.3590 -1.4565
12549SOL    HW242495   8.364   0.103   8.626 -0.4202  0.0980 -0.9650
12550SOL     OW42496   1.802   1.610   2.820 -0.0837  0.3599  0.3583
12550SOL    HW142497   1.874   1.647   2.769  0.7648 -0.8745  0.6143
12550SOL    HW242498   1.749   1.686   2.844  0.5962  1.1883 -0.6515
12551SOL     OW42499   0.821   3.690   9.366 -0.0180 -0.2610 -0.0305
12551SOL    HW142500   0.908   3.727   9.355  0.2015 -0.6728  0.2721
12551SOL    HW242501   0.823   3.608   9.318  0.0385 -0.6821  0.6722
12552SOL     OW42502   6.890   4.291   1.283  0.3005 -0.3444  0.1624
12552SOL    HW142503   6.849   4.260   1.202  0.2373 -0.3215  0.1848
12552SOL    HW242504   6.838   4.250   1.352 -0.0761  0.1794  0.1978
12553SOL     OW42505   9.122   5.873   1.615  0.2949 -0.1924  0.1055
12553SOL    HW142506   9.107   5.884   1.709 -0.7837 -0.3531 -0.0342
12553SOL    HW242507   9.152   5.782   1.606  2.1982  0.3621  0.4748
12554SOL     OW42508   7.193   3.061   3.258 -0.1949 -0.3602 -0.5184
12554SOL    HW142509   7.130   3.129   3.284 -0.3368 -0.3149 -0.9761
12554SOL    HW242510   7.221   3.023   3.341  0.8825  1.1201 -0.1612
12555SOL     OW42511   5.075   8.781   8.346  0.0049 -0.3713  0.0252
12555SOL    HW142512   5.042   8.698   8.379 -2.3262  0.2433 -0.5147
12555SOL    HW242513   5.115   8.759   8.261  0.3082 -1.0622  0.3413
12556SOL     OW42514   7.508   0.236   5.720  0.3394  0.0084 -0.1921
12556SOL    HW142515   7.541   0.238   5.630 -1.6086 -0.9141 -1.0044
12556SOL    HW242516   7.437   0.300   5.721  0.3266 -0.0099  0.6714
12557SOL     OW42517   3.566   4.504   1.699  0.3387  0.0062  0.4621
12557SOL    HW142518   3.481   4.510   1.654 -1.5714  2.0618  3.9374
12557SOL    HW242519   3.628   4.545   1.638 -0.7313 -2.6597 -2.7375
12558SOL     OW42520   2.302   1.890   8.496 -0.3357 -0.2504 -0.2814
12558SOL    HW142521   2.250   1.959   8.457 -0.1493  0.6324  0.9512
12558SOL    HW242522   2.272   1.809   8.454 -1.2554  0.4688 -1.0350
12559SOL     OW42523   9.057   8.984   5.534  1.2663  0.4259 -0.4923
12559SOL    HW142524   9.120   8.917   5.508  0.3609  0.1221 -1.9824
12559SOL    HW242525   8.986   8.976   5.471  0.7607  2.2540 -0.1987
12560SOL     OW42526   9.119   2.828   6.580  0.6994  0.2831 -0.0039
12560SOL    HW142527   9.078   2.826   6.493  4.0598 -0.6519 -1.7725
12560SOL    HW242528   9.118   2.920   6.605 -1.2479  0.4388 -0.5217
12561SOL     OW42529   7.387   8.087   8.144  0.2114 -0.4330  0.0769
12561SOL    HW142530   7.387   8.182   8.157 -2.5856 -0.4247  0.7291
12561SOL    HW242531   7.402   8.075   8.050 -3.3947  0.9852 -0.8263
12562SOL     OW42532   6.415   4.599   7.916 -0.4535  0.4137 -0.3058
12562SOL    HW142533   6.454   4.671   7.865 -0.2264  0.1127 -0.5624
12562SOL    HW242534   6.424   4.523   7.860 -0.0151  0.0323  0.2721
12563SOL     OW42535   3.255   9.354   8.843 -0.0366  0.0786  0.2156
12563SOL    HW142536   3.326   9.415   8.822 -2.0258  2.2850 -0.4437
12563SOL    HW242537   3.263   9.284   8.778  0.1424  1.4977 -1.3427
12564SOL     OW42538   8.864   9.178   1.299 -0.2580  0.1603  0.2048
12564SOL    HW142539   8.813   9.185   1.380  0.8979 -0.2187  0.9755
12564SOL    HW242540   8.815   9.232   1.236 -0.9309  0.8337  1.2666
12565SOL     OW42541   3.473   6.517   7.119  0.6320  0.5013  0.1829
12565SOL    HW142542   3.531   6.457   7.166  0.3152  0.1308  0.1008
12565SOL    HW242543   3.385   6.495   7.151  0.6442  1.9569  1.3229
12566SOL     OW42544   7.444   7.296   1.058  0.1167  0.3256 -0.5930
12566SOL    HW142545   7.427   7.306   0.964  0.2063 -1.5420 -0.8544
12566SOL    HW242546   7.415   7.207   1.078 -0.1301  0.7762  1.2225
12567SOL     OW42547   1.296   9.625   5.317  0.0827 -0.3414  0.2919
12567SOL    HW142548   1.288   9.540   5.273  0.2360  0.5849 -1.6531
12567SOL    HW242549   1.349   9.677   5.257 -0.8189  1.4386  0.9715
12568SOL     OW42550   0.593   1.556   5.056  0.0814  0.2468  0.3343
12568SOL    HW142551   0.566   1.505   5.132  1.7748  0.5482  1.1928
12568SOL    HW242552   0.563   1.645   5.074  0.0369  0.2136  0.4222
12569SOL     OW42553   8.344   4.430   0.343  0.6012 -0.4094  0.1192
12569SOL    HW142554   8.299   4.404   0.262  0.5860  0.6177 -0.2257
12569SOL    HW242555   8.398   4.505   0.317 -0.8559  1.1796  1.4305
12570SOL     OW42556   6.152   4.693   1.260 -0.2632 -0.3529  0.1544
12570SOL    HW142557   6.078   4.730   1.211 -0.3154  1.2419  1.3594
12570SOL    HW242558   6.228   4.740   1.227  0.0216 -0.9110  0.0037
12571SOL     OW42559   3.640   2.751   5.200 -0.1228 -0.4193 -0.4174
12571SOL    HW142560   3.559   2.798   5.181 -0.4497 -0.8574 -0.1390
12571SOL    HW242561   3.696   2.815   5.244 -0.8113 -0.4602  0.5526
12572SOL     OW42562   6.806   0.589   2.582  0.4946 -0.3432  0.2651
12572SOL    HW142563   6.749   0.649   2.629  0.2844 -1.3189  1.3084
12572SOL    HW242564   6.776   0.593   2.491  1.5525  2.3162 -0.0454
12573SOL     OW42565   2.548   7.813   4.506  0.7503  0.1325  0.3492
12573SOL    HW142566   2.607   7.753   4.462  0.9821  0.8764 -0.3639
12573SOL    HW242567   2.490   7.846   4.437  1.9622  2.3341  0.2681
12574SOL     OW42568   8.261   6.195   0.563  0.2504 -0.0347  0.5839
12574SOL    HW142569   8.287   6.213   0.653 -0.4548 -1.7142  1.1593
12574SOL    HW242570   8.214   6.274   0.535  0.2162  0.3857  1.7868
12575SOL     OW42571   7.883   5.957   3.047  0.0071 -0.3106  0.7878
12575SOL    HW142572   7.806   6.010   3.029 -1.2399 -2.5733 -1.2022
12575SOL    HW242573   7.883   5.945   3.142 -1.0046  1.2270  1.0166
12576SOL     OW42574   5.029   9.205   5.062 -0.3850 -0.6794 -0.4501
12576SOL    HW142575   4.978   9.147   5.006  0.1041 -1.6728  0.1070
12576SOL    HW242576   4.970   9.226   5.135 -0.8416  0.2004 -1.0499
12577SOL     OW42577   3.969   4.901   7.757 -0.2769 -0.5324 -0.3766
12577SOL    HW142578   3.881   4.868   7.778 -0.3129 -0.6572 -0.7273
12577SOL    HW242579   3.954   4.976   7.700 -0.2077  0.3277  0.7013
12578SOL     OW42580   0.844   5.072   0.029  0.0284  0.0719  0.0343
12578SOL    HW142581   0.866   4.979   0.016 -0.1479  0.1430 -0.8189
12578SOL    HW242582   0.759   5.082  -0.012 -0.3041  0.4586  0.7923
12579SOL     OW42583   3.421   0.899   6.699  0.2036 -0.7006 -0.3147
12579SOL    HW142584   3.480   0.970   6.728 -0.2229 -0.3001 -0.4094
12579SOL    HW242585   3.400   0.852   6.780  0.1352 -0.4438 -0.1794
12580SOL     OW42586   2.947   7.008   3.440 -0.6653 -0.1146 -0.5113
12580SOL    HW142587   2.887   6.956   3.495 -1.1509 -0.9436 -1.7600
12580SOL    HW242588   3.034   6.974   3.460 -0.5005  1.4308  1.6801
12581SOL     OW42589   9.289   1.244   1.689 -0.2836 -0.2825 -0.1224
12581SOL    HW142590   9.204   1.272   1.723  0.4126 -0.0870  1.5705
12581SOL    HW242591   9.274   1.228   1.596 -2.1529 -0.2093  0.1339
12582SOL     OW42592   1.814   0.849   6.011  0.1262  0.1485  0.0441
12582SOL    HW142593   1.852   0.763   5.992  0.7722  0.6476 -1.0614
12582SOL    HW242594   1.791   0.846   6.104 -0.2027 -1.3375 -0.0731
12583SOL     OW42595   3.315   1.158   0.430 -0.4335  0.7444 -0.3923
12583SOL    HW142596   3.319   1.079   0.376 -0.7973  1.2956 -1.2485
12583SOL    HW242597   3.273   1.129   0.511 -2.0126  0.3714 -1.2998
12584SOL     OW42598   1.305   6.996   5.958 -0.3517  0.0728  0.4869
12584SOL    HW142599   1.378   6.955   5.912  1.0478  1.3604  1.4482
12584SOL    HW242600   1.241   6.926   5.971  1.5216 -1.5856  1.2655
12585SOL     OW42601   5.631   7.417   1.451 -0.4816 -0.4339  0.0238
12585SOL    HW142602   5.658   7.447   1.538  2.6451 -0.6365 -0.7639
12585SOL    HW242603   5.589   7.333   1.467 -2.2664  0.6537  1.5104
12586SOL     OW42604   1.491   7.650   5.990 -0.6473  0.5459  0.6038
12586SOL    HW142605   1.529   7.696   5.915  1.4197 -0.0599  1.2075
12586SOL    HW242606   1.563   7.597   6.025 -2.7588 -2.9658  0.1524
12587SOL     OW42607   7.604   1.002   8.872  0.2552 -0.6125  1.0289
12587SOL    HW142608   7.620   1.087   8.831 -0.7141 -1.2399 -0.7618
12587SOL    HW242609   7.691   0.966   8.889  0.6662  0.4041  1.1326
12588SOL     OW42610   9.379   6.040   1.772  0.1419 -0.1894 -0.0712
12588SOL    HW142611   9.377   5.946   1.754 -0.8903  0.1257 -1.7748
12588SOL    HW242612   9.422   6.078   1.695 -0.4530  0.8344  0.0990
12589SOL     OW42613   2.436   8.551   7.321  0.0285 -0.4700  0.3731
12589SOL    HW142614   2.412   8.591   7.238 -1.2401 -1.9027  0.0122
12589SOL    HW242615   2.518   8.505   7.303 -0.0223 -0.4219  0.0242
12590SOL     OW42616   8.078   4.075   2.868  0.4492  0.3069 -0.9221
12590SOL    HW142617   8.135   3.997   2.865  1.4433  0.9722 -0.0206
12590SOL    HW242618   8.097   4.115   2.952 -0.6321  1.1219 -1.0451
12591SOL     OW42619   9.017   6.287   6.528  0.3085  0.3396 -0.1077
12591SOL    HW142620   8.976   6.202   6.508  0.1907 -0.2200  2.1742
12591SOL    HW242621   8.990   6.305   6.618  1.8879  1.8883  0.1008
12592SOL     OW42622   4.820   1.876   6.797 -0.0283 -0.3378 -0.1940
12592SOL    HW142623   4.805   1.933   6.722  0.0595  0.1343  0.1468
12592SOL    HW242624   4.886   1.814   6.767  1.0758  0.7484 -0.0400
12593SOL     OW42625   4.576   2.178   6.488  0.2225  0.2755  0.3037
12593SOL    HW142626   4.567   2.272   6.498 -0.3229  0.4195 -1.2660
12593SOL    HW242627   4.492   2.142   6.517 -0.7998  0.5724 -2.0414
12594SOL     OW42628   5.656   8.581   6.200 -0.1430 -0.4518 -0.0499
12594SOL    HW142629   5.624   8.513   6.259  0.6902 -1.0394 -0.2716
12594SOL    HW242630   5.627   8.553   6.113  2.1627 -1.7803 -0.4715
12595SOL     OW42631   0.289   2.279   8.289  0.7019  0.1664 -0.4855
12595SOL    HW142632   0.284   2.271   8.194  0.0833 -1.5047 -0.3451
12595SOL    HW242633   0.335   2.200   8.317 -0.2544 -0.0005  0.6913
12596SOL     OW42634   0.760   8.456   9.507 -0.6677 -0.6316 -0.5498
12596SOL    HW142635   0.743   8.362   9.517 -1.4759 -0.4029  0.4842
12596SOL    HW242636   0.721   8.479   9.423 -0.6773 -1.1808 -0.6997
12597SOL     OW42637   1.870   8.095   1.330  0.2745 -0.4275  0.5062
12597SOL    HW142638   1.867   8.048   1.246 -0.8232 -0.7089  0.6874
12597SOL    HW242639   1.955   8.071   1.367  1.0851  0.2504 -0.8235
12598SOL     OW42640   4.760   7.291   8.137 -0.1756 -0.8130 -0.0095
12598SOL    HW142641   4.718   7.235   8.071 -2.0528 -0.1140  0.5381
12598SOL    HW242642   4.833   7.239   8.169 -1.1920 -2.5201 -0.3220
12599SOL     OW42643   9.734   2.698   9.053 -0.6768  0.1318  0.0856
12599SOL    HW142644   9.746   2.614   9.009 -0.2656  0.2075  0.0514
12599SOL    HW242645   9.806   2.703   9.115 -1.6760 -0.3271  1.3286
12600SOL     OW42646   4.058   0.876   7.004  0.1782 -0.1907 -0.3067
12600SOL    HW142647   3.990   0.941   7.022  1.9056  1.0715  2.4445
12600SOL    HW242648   4.089   0.896   6.916 -1.4895  0.6139 -0.7393
12601SOL     OW42649   7.044   8.116   6.479 -0.0202 -0.0901 -0.5978
12601SOL    HW142650   7.130   8.089   6.511 -0.3820 -0.9608 -0.3208
12601SOL    HW242651   7.031   8.066   6.399  0.7168  1.7979 -1.9826
12602SOL     OW42652   9.669   6.758   9.572 -0.4696  0.3495 -0.1763
12602SOL    HW142653   9.600   6.737   9.635  0.3578  1.5778  1.2006
12602SOL    HW242654   9.737   6.691   9.588 -0.2183  0.7184  0.3236
12603SOL     OW42655   7.568   0.594   3.529  0.1743  0.4783 -0.0598
12603SOL    HW142656   7.579   0.684   3.498 -1.9312  0.7857 -0.0642
12603SOL    HW242657   7.566   0.601   3.624 -0.5773  0.5492 -0.0706
12604SOL     OW42658   8.391   7.438   3.124  0.2126 -0.2799  0.2127
12604SOL    HW142659   8.450   7.396   3.187 -2.0718 -1.0133  1.9992
12604SOL    HW242660   8.342   7.366   3.086  0.5363  0.3010 -1.3867
12605SOL     OW42661   3.588   9.305   1.971 -0.1795  0.4330 -0.2022
12605SOL    HW142662   3.616   9.391   2.003 -1.4124  0.2257  1.6236
12605SOL    HW242663   3.648   9.284   1.900  1.7606  1.6928  0.9843
12606SOL     OW42664   9.293   7.012   4.707  0.2453  0.4773 -0.0296
12606SOL    HW142665   9.370   7.065   4.728 -1.0507  2.0180  1.1191
12606SOL    HW242666   9.257   6.987   4.792 -0.7722  0.1799 -0.5308
12607SOL     OW42667   0.404   1.370   7.312  0.1511 -0.2319  0.2859
12607SOL    HW142668   0.356   1.298   7.270 -1.0028  1.7026 -1.9643
12607SOL    HW242669   0.462   1.403   7.243  0.8426  0.8507  1.3493
12608SOL     OW42670   9.263   6.866   0.041 -0.5082  0.4742  0.0002
12608SOL    HW142671   9.185   6.820   0.012 -1.1866  0.8578  1.1635
12608SOL    HW242672   9.231   6.954   0.065  0.3944  0.8592 -0.1690
12609SOL     OW42673   7.578   1.367   7.758  0.0913  0.1963 -0.2791
12609SOL    HW142674   7.581   1.283   7.804  1.9070  0.5315  0.2653
12609SOL    HW242675   7.585   1.344   7.666 -1.2059 -0.3366 -0.2654
12610SOL     OW42676   1.028   5.161   7.728 -0.0064 -0.2723  0.0341
12610SOL    HW142677   1.014   5.113   7.809  1.1952  0.9691  1.0320
12610SOL    HW242678   0.966   5.233   7.731 -1.1493 -1.1724 -1.0057
12611SOL     OW42679   0.519   8.045   2.697  0.2642  0.1374 -0.2720
12611SOL    HW142680   0.482   7.980   2.758 -0.7701  0.5088 -0.4796
12611SOL    HW242681   0.481   8.128   2.726  2.0064  0.7613  0.3333
12612SOL     OW42682   6.238   7.011   4.941  0.7535  0.0137  0.3464
12612SOL    HW142683   6.318   7.047   4.904  0.2195 -0.2144 -1.0824
12612SOL    HW242684   6.232   6.922   4.905  0.0088 -0.0802  0.6720
12613SOL     OW42685   3.748   6.390   0.985  0.0576 -0.5450  0.0491
12613SOL    HW142686   3.693   6.423   0.913  2.4507  0.9953 -1.2080
12613SOL    HW242687   3.792   6.468   1.019  1.2212 -1.6607  1.2123
12614SOL     OW42688   9.341   5.213   0.568 -0.1231 -0.0278  0.1994
12614SOL    HW142689   9.406   5.215   0.498 -0.6760  0.6705 -0.3018
12614SOL    HW242690   9.327   5.120   0.586 -0.2938 -0.2278 -0.9181
12615SOL     OW42691   0.698   9.333   5.296  0.3095 -0.2162 -0.3084
12615SOL    HW142692   0.718   9.335   5.390  0.6502 -1.0858 -0.3609
12615SOL    HW242693   0.633   9.264   5.287  0.2218 -0.0816 -0.7066
12616SOL     OW42694   2.809   0.768   8.036 -0.2313  0.4971  0.2133
12616SOL    HW142695   2.850   0.749   7.952 -0.1103  0.5104  0.2677
12616SOL    HW242696   2.862   0.720   8.100  1.4534  2.7068  0.6031
12617SOL     OW42697   0.285   5.487   7.741 -0.4348 -0.1081 -0.1038
12617SOL    HW142698   0.262   5.577   7.763  1.3327  0.1923  0.6597
12617SOL    HW242699   0.265   5.480   7.647  0.5802  1.5133 -0.4948
12618SOL     OW42700   1.661   3.030   5.029 -0.0014 -0.2480 -0.4707
12618SOL    HW142701   1.719   3.002   5.100  0.9303 -1.0839 -1.5276
12618SOL    HW242702   1.573   3.020   5.064  0.4556  1.4918  1.3470
12619SOL     OW42703   7.791   4.176   1.821 -0.1451  0.2869 -0.3885
12619SOL    HW142704   7.730   4.247   1.800  1.5193  1.5266 -1.3438
12619SOL    HW242705   7.867   4.221   1.859  1.3835 -0.8404 -1.9622
12620SOL     OW42706   1.950   9.459   6.101  0.1375 -0.4406  0.8774
12620SOL    HW142707   1.951   9.393   6.032 -0.0916  1.3455 -0.9342
12620SOL    HW242708   1.877   9.433   6.157  0.6242 -2.2062  0.7509
12621SOL     OW42709   7.746   0.454   2.399  0.2377 -0.0175 -0.4031
12621SOL    HW142710   7.741   0.361   2.380 -1.0182 -0.5784  2.2216
12621SOL    HW242711   7.833   0.466   2.437  1.2037  0.3610 -2.5558
12622SOL     OW42712   4.022   4.939   2.692 -0.1739  0.7052  0.0130
12622SOL    HW142713   3.975   4.890   2.624 -0.4118  0.9313  0.0132
12622SOL    HW242714   3.956   4.997   2.730 -0.0873  0.4539  0.5595
12623SOL     OW42715   9.740   6.056   9.257  0.1285 -0.1383  0.0033
12623SOL    HW142716   9.706   5.980   9.305 -1.1257  0.4451  0.0937
12623SOL    HW242717   9.688   6.058   9.177  0.1487  0.6179  0.0068
12624SOL     OW42718   5.469   3.063   3.971  0.0494  0.9183  0.2615
12624SOL    HW142719   5.428   3.149   3.984 -2.1523  0.1571 -1.0035
12624SOL    HW242720   5.455   3.017   4.054  0.3503  1.4431  0.6061
12625SOL     OW42721   0.168   9.677   3.456 -0.2499 -0.2526 -0.2194
12625SOL    HW142722   0.083   9.698   3.495 -0.4005 -0.0898 -0.6340
12625SOL    HW242723   0.181   9.584   3.476 -0.5664 -0.2985 -0.2238
12626SOL     OW42724   9.388   8.773   4.956  0.4287  0.3440 -0.4078
12626SOL    HW142725   9.343   8.692   4.979  2.2770  0.2325  3.6774
12626SOL    HW242726   9.468   8.744   4.911  0.1797  0.0489 -0.6650
12627SOL     OW42727   4.143   2.017   3.532 -0.1897 -0.4848  0.0560
12627SOL    HW142728   4.200   1.948   3.497 -0.0170 -0.7477  0.8240
12627SOL    HW242729   4.060   1.973   3.548  0.2260 -0.8026  1.5289
12628SOL     OW42730   3.049   4.372   3.370  0.0527  0.1762 -0.6590
12628SOL    HW142731   3.130   4.324   3.388 -0.2777  0.5312  2.1601
12628SOL    HW242732   3.077   4.444   3.313  1.5464 -0.2091 -0.4565
12629SOL     OW42733   6.900   2.152   8.963 -0.1488  0.1837 -0.2134
12629SOL    HW142734   6.864   2.063   8.969 -0.9214  0.4504 -0.6326
12629SOL    HW242735   6.824   2.209   8.976  0.6020  0.8202  1.6470
12630SOL     OW42736   7.685   0.567   5.567 -0.1494  0.2580  0.4275
12630SOL    HW142737   7.645   0.643   5.609 -0.7478  0.0070  0.3366
12630SOL    HW242738   7.653   0.571   5.477 -1.0668 -0.6878  0.6938
12631SOL     OW42739   1.229   1.453   5.123  0.9707 -0.1476  0.3673
12631SOL    HW142740   1.194   1.364   5.123  0.2200  0.0578 -2.2679
12631SOL    HW242741   1.155   1.508   5.149  1.3458 -0.2260  1.6744
12632SOL     OW42742   6.729   0.046   2.246  0.2200 -0.4861  0.3255
12632SOL    HW142743   6.779  -0.016   2.193 -0.1569 -2.3469  1.9965
12632SOL    HW242744   6.793   0.112   2.273  0.3141  0.7927 -2.7090
12633SOL     OW42745   9.511   6.628   6.618 -0.5984  0.2688  0.1229
12633SOL    HW142746   9.534   6.564   6.550 -0.0314 -1.2564  1.6730
12633SOL    HW242747   9.441   6.680   6.579 -1.7786 -1.9473 -0.8660
12634SOL     OW42748   2.027   7.725   1.347 -0.4131  0.3755  0.0916
12634SOL    HW142749   1.982   7.785   1.407  1.0486  1.3039  0.3122
12634SOL    HW242750   2.035   7.774   1.265 -1.2157 -0.3959 -0.4697
12635SOL     OW42751   4.029   4.502   9.324  0.1112 -0.6665 -0.3144
12635SOL    HW142752   3.994   4.414   9.318 -1.0592 -0.2372 -0.0943
12635SOL    HW242753   4.018   4.539   9.237 -1.6791  0.0598  0.1771
12636SOL     OW42754   8.652   7.307   8.259  0.1153  0.4862  0.0978
12636SOL    HW142755   8.644   7.396   8.292 -0.0688  0.4390  0.1805
12636SOL    HW242756   8.745   7.287   8.266  0.2378  0.8518 -0.3908
12637SOL     OW42757   7.636   2.972   4.890 -0.1397 -0.2405 -0.6391
12637SOL    HW142758   7.707   2.933   4.841  0.5446  0.0128  0.1233
12637SOL    HW242759   7.665   2.970   4.981 -0.3272  1.4918 -0.5017
12638SOL     OW42760   6.309   1.796   8.655 -0.5906 -0.2361 -0.1845
12638SOL    HW142761   6.389   1.842   8.629 -1.3259  1.0463 -0.2915
12638SOL    HW242762   6.253   1.799   8.578 -1.2680  0.1278  0.3024
12639SOL     OW42763   1.812   8.348   1.710  0.0875 -0.4053  0.4904
12639SOL    HW142764   1.775   8.386   1.790  1.0722 -0.5937  1.0524
12639SOL    HW242765   1.906   8.349   1.725  0.4023  0.8068 -1.2312
12640SOL     OW42766   5.237   6.576   3.613 -0.0037  0.2074 -0.0057
12640SOL    HW142767   5.160   6.591   3.557  0.8317  0.9720 -0.9786
12640SOL    HW242768   5.200   6.568   3.702 -1.2070  0.5289 -0.4514
12641SOL     OW42769   2.830   4.417   7.226  0.2996 -0.5777 -0.5806
12641SOL    HW142770   2.872   4.361   7.162  0.0146  0.7896 -2.0293
12641SOL    HW242771   2.786   4.485   7.174  3.1484  2.8333  1.0206
12642SOL     OW42772   2.879   3.253   2.677  0.2849 -0.2727 -0.1829
12642SOL    HW142773   2.902   3.302   2.598 -0.8829 -0.4553 -0.6550
12642SOL    HW242774   2.823   3.182   2.645 -0.3479 -0.2425  0.8301
12643SOL     OW42775   9.305   0.787   0.421  0.6407 -0.2184  0.0490
12643SOL    HW142776   9.263   0.707   0.390 -0.1104  0.7681 -1.6163
12643SOL    HW242777   9.388   0.790   0.374  1.8737 -1.2862  2.0457
12644SOL     OW42778   5.638   7.959   6.509  0.0064 -0.3526  0.1890
12644SOL    HW142779   5.720   7.950   6.558  0.2070 -1.4906 -0.3383
12644SOL    HW242780   5.664   7.955   6.417 -0.3706  1.7543 -0.0670
12645SOL     OW42781   6.111   1.338   6.179  0.5278  0.3230  0.7049
12645SOL    HW142782   6.141   1.365   6.265 -1.1153  0.3254  1.3090
12645SOL    HW242783   6.024   1.301   6.194  1.0306 -1.5819 -0.6563
12646SOL     OW42784   2.456   5.510   3.525  0.3171  0.1680 -0.3818
12646SOL    HW142785   2.474   5.569   3.598  1.1672 -0.5077 -0.0327
12646SOL    HW242786   2.472   5.563   3.447 -0.4271  0.8443 -0.0858
12647SOL     OW42787   6.439   0.436   6.082 -0.1158 -0.2158 -0.0955
12647SOL    HW142788   6.488   0.370   6.131 -1.1501 -1.2129 -0.3593
12647SOL    HW242789   6.424   0.507   6.145  0.9502 -0.2509  0.2113
12648SOL     OW42790   8.697   7.803   3.780 -0.1944  0.1258 -0.1905
12648SOL    HW142791   8.748   7.725   3.801  0.6996  0.7553  0.0387
12648SOL    HW242792   8.617   7.794   3.831 -0.9849 -1.5628 -1.6306
12649SOL     OW42793   4.653   4.160   5.318 -0.1451 -0.1975 -0.3381
12649SOL    HW142794   4.744   4.142   5.291 -0.2331 -1.3157  0.0403
12649SOL    HW242795   4.601   4.142   5.240 -0.0136  0.8090 -0.6640
12650SOL     OW42796   2.537   5.319   2.502  0.0164  0.3379  0.3416
12650SOL    HW142797   2.572   5.252   2.561  2.4795 -0.1686 -1.5182
12650SOL    HW242798   2.451   5.286   2.477 -0.9800  0.4209  3.2673
12651SOL     OW42799   1.619   2.176   5.130  0.1203  0.4103 -0.2059
12651SOL    HW142800   1.642   2.209   5.217 -0.4656  1.6547 -0.5079
12651SOL    HW242801   1.528   2.201   5.118 -0.0094 -0.3511 -0.9194
12652SOL     OW42802   8.781   7.663   4.856  0.1419  0.4058  0.5825
12652SOL    HW142803   8.787   7.568   4.854  0.4337  0.4206 -1.6751
12652SOL    HW242804   8.852   7.693   4.799 -0.4285  1.9366  0.6206
12653SOL     OW42805   3.292   9.512   6.271  0.8751 -0.1678  0.1298
12653SOL    HW142806   3.340   9.534   6.191  0.6290 -1.3883 -0.3865
12653SOL    HW242807   3.207   9.556   6.261  1.8937  2.1996  1.1597
12654SOL     OW42808   1.761   7.676   7.080  0.7935 -0.0573  0.1785
12654SOL    HW142809   1.683   7.654   7.029 -2.7612 -1.1470  5.3185
12654SOL    HW242810   1.823   7.605   7.061 -1.0562 -1.4382 -1.0723
12655SOL     OW42811   8.479   8.814   0.916 -0.1568 -0.5949  0.0308
12655SOL    HW142812   8.527   8.895   0.895  0.8140 -0.7051  1.6212
12655SOL    HW242813   8.391   8.844   0.939 -0.2450 -0.1570 -0.8404
12656SOL     OW42814   6.858   6.707   1.657  0.3164 -0.0640  0.4842
12656SOL    HW142815   6.840   6.798   1.633 -0.6432 -0.0084  1.3398
12656SOL    HW242816   6.942   6.710   1.702 -0.7408  0.7989  2.5367
12657SOL     OW42817   5.793   1.458   6.840 -0.3672 -0.3907 -0.6134
12657SOL    HW142818   5.787   1.475   6.934  0.7797 -0.4063 -0.5211
12657SOL    HW242819   5.727   1.391   6.824 -1.2388  0.2849 -0.0075
12658SOL     OW42820   1.681   9.191   8.268  0.3608  0.1348 -0.0613
12658SOL    HW142821   1.725   9.107   8.278 -0.4188 -0.4717 -1.4209
12658SOL    HW242822   1.622   9.179   8.193 -1.1024  1.3391  0.8244
12659SOL     OW42823   9.384   6.056   7.237 -0.0499  0.1676 -0.2067
12659SOL    HW142824   9.436   6.136   7.227  0.4318 -0.2703 -1.4553
12659SOL    HW242825   9.364   6.029   7.147  0.6520 -1.6581  0.1405
12660SOL     OW42826   6.595   0.133   7.392  0.0229  0.0346 -0.5367
12660SOL    HW142827   6.604   0.212   7.446 -0.0953  0.9018 -1.7469
12660SOL    HW242828   6.678   0.128   7.344 -0.1863 -0.2706 -0.8648
12661SOL     OW42829   7.846   8.015   9.318 -0.0470 -0.3069  0.1852
12661SOL    HW142830   7.805   7.955   9.381  1.4937 -1.7157 -0.0840
12661SOL    HW242831   7.808   7.992   9.234 -1.5322  1.0571  0.4233
12662SOL     OW42832   3.637   2.478   5.915 -0.0999  0.0018  0.1124
12662SOL    HW142833   3.613   2.392   5.879  0.5318  0.7727 -2.3672
12662SOL    HW242834   3.580   2.539   5.868  0.9188  1.1189  0.2997
12663SOL     OW42835   3.886   8.918   3.717 -0.0112 -0.3533  0.6407
12663SOL    HW142836   3.960   8.914   3.778 -0.3939 -0.9248  1.0864
12663SOL    HW242837   3.840   8.998   3.741  0.5396  0.0733  0.2724
12664SOL     OW42838   3.877   7.470   3.903  0.5073  0.3960 -0.1605
12664SOL    HW142839   3.852   7.559   3.880  0.3734  0.9793  2.0562
12664SOL    HW242840   3.807   7.440   3.961  0.4141 -1.2712 -1.0599
12665SOL     OW42841   9.279   6.338   1.479 -0.1679  0.0841 -0.7629
12665SOL    HW142842   9.237   6.422   1.464  0.4526  0.3437 -1.0653
12665SOL    HW242843   9.232   6.301   1.554 -1.6435 -0.1124 -1.7366
12666SOL     OW42844   6.026   7.409   7.595  0.2026 -0.5029 -0.0965
12666SOL    HW142845   5.953   7.402   7.657  2.1402  2.0087  2.7524
12666SOL    HW242846   6.051   7.318   7.578 -2.5074 -1.3730  0.0785
12667SOL     OW42847   0.109   1.968   0.002 -0.7351 -0.2944 -0.2285
12667SOL    HW142848   0.056   1.947   0.079  0.3970 -1.6603  0.2230
12667SOL    HW242849   0.047   1.966  -0.071 -1.6152 -0.1263  0.4932
12668SOL     OW42850   9.280   3.375   2.762 -0.1712  0.1112 -0.2803
12668SOL    HW142851   9.206   3.397   2.706 -1.4588 -0.8207  0.9802
12668SOL    HW242852   9.250   3.299   2.813  1.5044 -0.0367  0.5561
12669SOL     OW42853   7.765   1.610   1.739 -0.8466  0.0263 -0.0824
12669SOL    HW142854   7.770   1.526   1.692 -1.9746 -0.0650 -0.0678
12669SOL    HW242855   7.857   1.634   1.754 -0.4743 -0.4992 -1.3289
12670SOL     OW42856   8.335   6.952   1.771  0.2246  0.0971 -0.3973
12670SOL    HW142857   8.378   6.870   1.794 -0.9399 -0.3400  0.3096
12670SOL    HW242858   8.389   7.019   1.813  0.1618 -0.4533  0.6106
12671SOL     OW42859   0.656   6.103   1.162  0.0926 -0.0825  0.3884
12671SOL    HW142860   0.702   6.081   1.243 -0.6620  0.1328  0.8901
12671SOL    HW242861   0.604   6.025   1.142  1.3134 -0.6502 -0.6507
12672SOL     OW42862   0.498   9.589   1.775 -0.1898  0.6822  0.1113
12672SOL    HW142863   0.474   9.673   1.736 -0.4041  0.2894 -0.6113
12672SOL    HW242864   0.576   9.609   1.827 -0.5766  1.4485  0.4260
12673SOL     OW42865   4.114   7.941   9.122 -0.1962  0.1685  0.2999
12673SOL    HW142866   4.109   7.931   9.217 -0.6880 -0.6845  0.1825
12673SOL    HW242867   4.044   7.887   9.087 -0.1642  0.6498 -0.5488
12674SOL     OW42868   4.875   1.845   1.582  0.4449  0.0164 -0.0813
12674SOL    HW142869   4.803   1.805   1.533  0.7808  0.4845 -0.9727
12674SOL    HW242870   4.882   1.792   1.661 -1.7127  0.7096  0.6627
12675SOL     OW42871   8.464   4.925   4.682  0.5296 -0.3004  0.4624
12675SOL    HW142872   8.496   4.990   4.620 -2.9050  2.4277  1.2427
12675SOL    HW242873   8.459   4.973   4.765 -1.5213 -1.7395  1.2260
12676SOL     OW42874   3.175   0.494   1.446 -0.1507  0.0145 -0.0069
12676SOL    HW142875   3.219   0.423   1.493 -0.3915 -2.0760 -2.6760
12676SOL    HW242876   3.217   0.494   1.360 -0.9771  2.4071 -0.4825
12677SOL     OW42877   7.448   0.106   6.334 -0.0047  0.3896 -0.1763
12677SOL    HW142878   7.415   0.141   6.417  0.1869  1.9602 -0.7164
12677SOL    HW242879   7.543   0.111   6.342  0.0688 -1.0935  0.1461
12678SOL     OW42880   1.730   1.575   7.984 -0.4599  0.1945  0.5342
12678SOL    HW142881   1.706   1.503   7.926 -1.5085  0.6558  0.3646
12678SOL    HW242882   1.684   1.651   7.947  0.9543  1.0409  0.4632
12679SOL     OW42883   9.061   3.840   3.489 -0.1611  0.2054  0.5325
12679SOL    HW142884   8.977   3.829   3.533 -0.0370 -0.3649  0.6313
12679SOL    HW242885   9.079   3.755   3.449 -0.6932  0.9346 -1.3820
12680SOL     OW42886   0.600   2.636   5.862  0.0171 -0.3051 -0.0452
12680SOL    HW142887   0.578   2.587   5.941  0.8812  0.1808  0.5178
12680SOL    HW242888   0.665   2.700   5.891 -0.7056  0.8293 -0.8662
12681SOL     OW42889   6.642   6.936   5.269  0.5842 -0.1058 -0.0187
12681SOL    HW142890   6.706   6.999   5.236  0.9109 -1.1538 -1.4707
12681SOL    HW242891   6.634   6.871   5.200  0.1719 -1.6158  1.3818
12682SOL     OW42892   8.653   3.344   1.020  0.0187  0.1530 -0.4713
12682SOL    HW142893   8.743   3.366   0.996  0.6395 -0.2637  1.3310
12682SOL    HW242894   8.619   3.422   1.064 -0.2245  0.0267 -0.4315
12683SOL     OW42895   7.664   3.484   4.608  0.4143 -0.1221  0.2139
12683SOL    HW142896   7.610   3.407   4.592 -1.6382  0.7805  2.1971
12683SOL    HW242897   7.725   3.457   4.677 -0.2751 -0.0234  0.8775
12684SOL     OW42898   7.984   6.078   2.802  0.4109  0.4506  0.7740
12684SOL    HW142899   7.926   6.150   2.776 -0.2782 -0.3794 -0.0642
12684SOL    HW242900   7.955   6.054   2.890 -0.2701  0.3233  0.5271
12685SOL     OW42901   6.591   6.548   3.934 -0.1162 -0.3051 -0.0191
12685SOL    HW142902   6.503   6.579   3.954  1.2990  2.8786  1.9877
12685SOL    HW242903   6.605   6.474   3.993 -0.9579  0.0893  0.6937
12686SOL     OW42904   1.746   1.301   5.663  0.6481 -0.9401 -0.0012
12686SOL    HW142905   1.664   1.283   5.617 -1.1132 -0.0795  2.5961
12686SOL    HW242906   1.788   1.368   5.609 -1.4099  0.1758 -0.3432
12687SOL     OW42907   3.756   8.123   5.248  0.2653  0.0242  0.0684
12687SOL    HW142908   3.787   8.033   5.242 -0.0366  0.0135 -1.5554
12687SOL    HW242909   3.664   8.119   5.224  0.5715  0.9382 -1.3823
12688SOL     OW42910   5.122   2.749   8.043 -0.4521  0.0987 -0.6784
12688SOL    HW142911   5.127   2.743   7.947  0.0635  0.2257 -0.6599
12688SOL    HW242912   5.200   2.703   8.074 -2.3276 -3.0345 -0.1854
12689SOL     OW42913   6.845   7.021   7.430  0.0528 -0.2710 -0.1352
12689SOL    HW142914   6.845   7.053   7.520 -0.2445 -1.7566  0.4178
12689SOL    HW242915   6.766   7.058   7.392  1.5712  2.7159 -0.7278
12690SOL     OW42916   4.088   6.445   1.843 -0.0400  0.1189  0.1219
12690SOL    HW142917   4.167   6.448   1.789 -0.7761  2.0190 -0.9479
12690SOL    HW242918   4.050   6.359   1.825  0.6587  0.0381 -1.0506
12691SOL     OW42919   9.051   8.805   6.670 -0.0532  0.0104  0.1919
12691SOL    HW142920   9.005   8.831   6.749  1.2872  2.5399  0.2429
12691SOL    HW242921   8.993   8.831   6.598 -1.0393 -1.8097  0.2847
12692SOL     OW42922   7.559   6.373   9.396  0.1629  0.2255 -0.4572
12692SOL    HW142923   7.629   6.410   9.343 -0.0079  0.7446 -0.3323
12692SOL    HW242924   7.581   6.398   9.486 -0.6885  1.2442 -0.5153
12693SOL     OW42925   4.620   8.587   9.083 -0.2802 -0.3553  0.1575
12693SOL    HW142926   4.568   8.644   9.027 -1.6994 -1.6480  0.0811
12693SOL    HW242927   4.573   8.585   9.166  1.0265  0.4030  0.9481
12694SOL     OW42928   1.718   6.106   7.178 -0.0703  0.1544 -0.2062
12694SOL    HW142929   1.773   6.074   7.106  1.2165  1.8212 -0.0133
12694SOL    HW242930   1.760   6.187   7.206 -1.6273  0.5246  1.1824
12695SOL     OW42931   8.631   9.112   9.140  0.0931  0.4082 -0.0196
12695SOL    HW142932   8.625   9.106   9.235 -0.4353 -2.2125 -0.1322
12695SOL    HW242933   8.542   9.133   9.112 -0.3427 -1.1692  0.0299
12696SOL     OW42934   6.418   7.356   4.622 -0.0782  0.3310  0.8786
12696SOL    HW142935   6.431   7.449   4.602 -2.3364  0.7665  1.1479
12696SOL    HW242936   6.378   7.356   4.709 -1.1741 -0.8148  0.4003
12697SOL     OW42937   7.543   9.055   5.012  0.2467  0.9909  0.3181
12697SOL    HW142938   7.507   8.968   4.991  1.1647  0.1641  1.9582
12697SOL    HW242939   7.494   9.084   5.089  1.1009  1.1385  0.8220
12698SOL     OW42940   2.334   6.643   1.209 -0.0586 -0.2079 -0.1470
12698SOL    HW142941   2.263   6.586   1.180 -0.9055  0.2117  1.0296
12698SOL    HW242942   2.311   6.666   1.299  1.5659 -0.0449  0.2539
12699SOL     OW42943   4.134   6.262   8.054  0.2155 -0.4026 -0.2253
12699SOL    HW142944   4.139   6.287   8.146  2.1790  0.0294 -0.3907
12699SOL    HW242945   4.201   6.316   8.011 -1.2089  0.0061 -2.0659
12700SOL     OW42946   6.274   0.993   0.369  0.1749  0.1100 -0.6881
12700SOL    HW142947   6.300   1.066   0.425  0.2771 -0.9458  0.6710
12700SOL    HW242948   6.253   1.035   0.285  3.5323  1.3357 -1.0614
12701SOL     OW42949   2.948   7.944   0.870  0.3058  0.1786 -0.5542
12701SOL    HW142950   2.897   7.886   0.926 -0.5044  0.6524 -0.7883
12701SOL    HW242951   3.005   7.886   0.821  1.6023 -0.1986  1.2970
12702SOL     OW42952   0.991   0.235   6.487 -0.1965 -0.2425  0.0826
12702SOL    HW142953   1.066   0.176   6.490 -0.1094 -0.1818 -0.6326
12702SOL    HW242954   0.988   0.265   6.396  0.4321  1.7153  0.6618
12703SOL     OW42955   5.394   7.940   7.118  0.2462 -0.2027 -0.2321
12703SOL    HW142956   5.330   7.951   7.048  0.7881 -1.4061 -0.9390
12703SOL    HW242957   5.342   7.935   7.198 -0.3092  2.7534 -0.3013
12704SOL     OW42958   1.939   5.744   7.695 -0.1470  0.4509 -0.1475
12704SOL    HW142959   1.875   5.674   7.703 -0.3347  0.5499 -0.7575
12704SOL    HW242960   1.992   5.737   7.775 -0.5256 -0.0151  0.0690
12705SOL     OW42961   3.791   3.730   4.076 -0.3638  0.0485 -0.5349
12705SOL    HW142962   3.863   3.666   4.070 -0.5419 -0.0642 -1.7620
12705SOL    HW242963   3.737   3.698   4.149  0.2101 -0.5138 -0.3427
12706SOL     OW42964   0.195   8.431   8.251 -0.6941 -0.0317  0.0553
12706SOL    HW142965   0.261   8.390   8.196 -1.2335 -0.6588 -0.1350
12706SOL    HW242966   0.121   8.446   8.192 -1.5633 -1.3797  0.7472
12707SOL     OW42967   8.318   0.407   0.585 -0.0814  0.4104 -0.0679
12707SOL    HW142968   8.319   0.464   0.508  1.0273 -0.4589 -0.7377
12707SOL    HW242969   8.411   0.389   0.602 -0.3375 -3.6303 -1.7957
12708SOL     OW42970   2.914   2.011   9.228  0.1489  0.1583  0.5737
12708SOL    HW142971   2.980   2.029   9.295 -0.6415  2.3493  0.8321
12708SOL    HW242972   2.837   1.982   9.276 -0.2037  1.0859  0.5906
12709SOL     OW42973   2.810   2.881   6.836  0.3540  0.0123 -0.2181
12709SOL    HW142974   2.842   2.820   6.903 -0.0608 -0.9434 -0.8649
12709SOL    HW242975   2.803   2.965   6.881  1.4730 -0.2920  0.5465
12710SOL     OW42976   8.887   3.419   3.990 -0.2942  0.0699 -0.4288
12710SOL    HW142977   8.970   3.393   4.029 -0.5460  0.2824  0.2812
12710SOL    HW242978   8.905   3.504   3.950  0.3264 -0.7937 -2.0519
12711SOL     OW42979   7.733   4.354   2.949 -0.0980  0.2479 -0.1022
12711SOL    HW142980   7.672   4.382   2.880 -0.7130 -1.4153 -0.2706
12711SOL    HW242981   7.755   4.264   2.926  0.0088 -0.2016  1.6598
12712SOL     OW42982   4.954   3.165   8.680 -0.0704  0.5966 -0.4763
12712SOL    HW142983   4.896   3.092   8.657 -1.2435  0.9864  1.0538
12712SOL    HW242984   5.024   3.124   8.732  0.5270  0.2587 -1.5270
12713SOL     OW42985   1.140   7.297   6.457  0.2013  0.1587 -0.2262
12713SOL    HW142986   1.105   7.216   6.418  1.3818 -0.5743  0.1757
12713SOL    HW242987   1.099   7.301   6.543  1.7325 -1.1942  0.6176
12714SOL     OW42988   8.242   7.161   7.625 -0.1891  0.2258 -0.1334
12714SOL    HW142989   8.243   7.200   7.537  1.8817 -0.9863 -0.7395
12714SOL    HW242990   8.155   7.122   7.633  0.1505 -1.2601 -2.4761
12715SOL     OW42991   0.919   5.368   0.415 -0.7716  0.6829 -0.4937
12715SOL    HW142992   0.884   5.362   0.326 -0.6225  0.1353 -0.5153
12715SOL    HW242993   0.979   5.444   0.412 -1.1556  0.9789 -0.7227
12716SOL     OW42994   4.776   2.233   0.272  0.0045 -0.1935  0.3620
12716SOL    HW142995   4.741   2.172   0.336  0.9765  0.2821  1.3749
12716SOL    HW242996   4.797   2.312   0.322  2.2607 -0.3656 -0.1901
12717SOL     OW42997   2.596   2.571   1.530 -0.4817 -0.1444 -0.1600
12717SOL    HW142998   2.611   2.639   1.595 -0.5700 -0.5505  0.2860
12717SOL    HW242999   2.651   2.498   1.558 -2.4353 -1.2890  0.9205
12718SOL     OW43000   2.957   4.958   1.941  0.1609 -0.3513 -0.0966
12718SOL    HW143001   2.957   5.012   1.862  0.9759 -0.3309 -0.0883
12718SOL    HW243002   2.937   5.020   2.012  1.0552 -0.0577 -0.0919
12719SOL     OW43003   3.159   5.162   8.970 -0.3889  0.0285 -0.1846
12719SOL    HW143004   3.143   5.090   9.032  0.5699  2.1036  2.6819
12719SOL    HW243005   3.254   5.173   8.969 -0.4927  1.0277 -0.8453
12720SOL     OW43006   3.964   9.489   6.169  0.1328 -0.4438 -0.0313
12720SOL    HW143007   3.870   9.487   6.156  0.0510 -1.5878  0.5718
12720SOL    HW243008   3.978   9.562   6.229 -0.0266  1.5313 -2.2823
12721SOL     OW43009   0.864   4.818   3.041  0.3812  0.5955  0.4586
12721SOL    HW143010   0.802   4.881   3.003 -0.8181 -0.3110  0.8564
12721SOL    HW243011   0.810   4.743   3.066  1.7774 -0.6189 -0.0223
12722SOL     OW43012   9.030   9.179   1.826 -0.3741  0.3863  0.8266
12722SOL    HW143013   8.952   9.161   1.878  0.0206 -0.9928  0.9908
12722SOL    HW243014   9.029   9.114   1.756  0.5976  0.3665  0.8079
12723SOL     OW43015   5.535   2.119   5.835  0.1998 -0.6140  0.6101
12723SOL    HW143016   5.575   2.132   5.921 -1.6275 -2.0020  1.7330
12723SOL    HW243017   5.533   2.024   5.823  0.4463 -0.4508 -1.0067
12724SOL     OW43018   6.009   0.793   3.501  0.1255 -0.4606 -0.4017
12724SOL    HW143019   5.961   0.857   3.448 -1.3187 -1.3652 -0.2242
12724SOL    HW243020   5.996   0.710   3.456  1.7070 -0.7153 -0.4449
12725SOL     OW43021   3.545   3.133   5.773 -0.5218  0.6455  0.5223
12725SOL    HW143022   3.452   3.143   5.793 -0.5227 -0.4152  1.1522
12725SOL    HW243023   3.588   3.204   5.819 -1.0041  1.0561  0.3451
12726SOL     OW43024   7.624   8.067   5.645  0.0536  0.2580 -0.6063
12726SOL    HW143025   7.545   8.014   5.659  2.1723 -3.4054 -1.1567
12726SOL    HW243026   7.674   8.057   5.727  1.5307 -0.6122 -1.5708
12727SOL     OW43027   3.833   0.245   5.022  0.0002 -0.0541 -0.7110
12727SOL    HW143028   3.811   0.332   4.988 -1.7057 -0.7168 -1.4097
12727SOL    HW243029   3.759   0.223   5.079  0.1522 -1.2581 -0.9534
12728SOL     OW43030   8.758   4.893   9.455 -0.0475  0.0807  0.2952
12728SOL    HW143031   8.834   4.862   9.405 -1.2201 -1.0445 -0.9084
12728SOL    HW243032   8.784   4.978   9.490  1.6889 -0.2022 -0.2271
12729SOL     OW43033   2.972   8.595   8.949  0.1986 -0.6195 -0.1361
12729SOL    HW143034   2.990   8.688   8.963  0.8736 -0.8066  0.2894
12729SOL    HW243035   2.879   8.585   8.969 -0.2503  0.2448 -1.6902
12730SOL     OW43036   1.106   0.052   0.728  0.1627  0.0669 -0.2637
12730SOL    HW143037   1.124   0.037   0.821 -0.3793  3.1658  0.4365
12730SOL    HW243038   1.028  -0.001   0.710  1.4515 -2.2050  0.4171
12731SOL     OW43039   8.824   4.061   2.423  0.3790  0.1859  0.4186
12731SOL    HW143040   8.796   4.056   2.331  0.5327 -0.3547  0.3928
12731SOL    HW243041   8.911   4.020   2.423  0.5889  0.6268  0.7246
12732SOL     OW43042   3.167   6.229   5.893 -0.5247 -0.5443  0.3426
12732SOL    HW143043   3.191   6.273   5.811 -2.1827 -0.4887 -0.1544
12732SOL    HW243044   3.250   6.212   5.937  0.3265  0.4644 -0.8186
12733SOL     OW43045   6.300   9.673   9.318 -0.1697 -0.1549  0.0439
12733SOL    HW143046   6.355   9.608   9.361  2.2143  1.3291 -0.6184
12733SOL    HW243047   6.361   9.735   9.279 -2.3156  2.3657  0.4044
12734SOL     OW43048   9.376   9.528   8.390  0.2249  0.2629  0.4558
12734SOL    HW143049   9.438   9.531   8.464  1.6674  0.0590 -0.6947
12734SOL    HW243050   9.312   9.596   8.411  0.7826  0.4359  1.7408
12735SOL     OW43051   2.525   6.488   1.037  0.0184  0.1864 -0.0820
12735SOL    HW143052   2.466   6.538   1.093  0.5094 -0.4195  1.0056
12735SOL    HW243053   2.613   6.509   1.071  0.1774 -3.4228  2.2469
12736SOL     OW43054   1.667   1.207   2.555  0.0360 -0.6411  0.6593
12736SOL    HW143055   1.719   1.203   2.475  0.2310  2.2177  0.5239
12736SOL    HW243056   1.698   1.134   2.608  0.8723 -1.7709 -1.2988
12737SOL     OW43057   6.060   4.078   5.024  0.4904 -0.4669 -0.0139
12737SOL    HW143058   6.021   4.055   5.109  1.3856 -0.0953  0.5095
12737SOL    HW243059   5.995   4.049   4.960 -0.9419  0.6812  0.8486
12738SOL     OW43060   6.850   6.748   6.736  0.4405  0.2329 -0.0936
12738SOL    HW143061   6.775   6.767   6.679  0.8834  0.2876 -0.6678
12738SOL    HW243062   6.811   6.734   6.822 -0.0646  2.2328  0.0634
12739SOL     OW43063   7.027   6.686   2.485  0.3564 -0.0506  0.2036
12739SOL    HW143064   7.072   6.717   2.563 -0.3821 -1.0168  1.0449
12739SOL    HW243065   7.025   6.590   2.496 -1.7718 -0.0464  0.1466
12740SOL     OW43066   9.569   6.100   6.021  0.1330  0.0804 -0.0067
12740SOL    HW143067   9.613   6.018   5.998 -0.0932  0.1613 -0.7826
12740SOL    HW243068   9.611   6.166   5.964 -0.2346  0.3524  0.0331
12741SOL     OW43069   1.385   5.852   8.597  0.0133  0.2091 -0.3435
12741SOL    HW143070   1.359   5.771   8.640 -0.0078  0.1547 -0.4602
12741SOL    HW243071   1.420   5.906   8.668 -1.4648  0.7337  0.0327
12742SOL     OW43072   0.160   2.795   5.660 -0.4898  0.7328 -0.8556
12742SOL    HW143073   0.150   2.848   5.581  2.1980  1.1367 -1.0142
12742SOL    HW243074   0.200   2.854   5.724 -1.3267  0.0243  0.3660
12743SOL     OW43075   6.835   7.171   8.961 -0.2001  0.7036  0.6649
12743SOL    HW143076   6.866   7.219   8.884  1.3272  4.2123  3.1989
12743SOL    HW243077   6.902   7.105   8.977  0.3235  1.0480 -0.0463
12744SOL     OW43078   5.059   9.040   4.457 -0.3559 -0.2642 -0.6184
12744SOL    HW143079   4.987   9.025   4.395  0.5645  2.1361 -2.4515
12744SOL    HW243080   5.033   9.118   4.506  0.7581  0.4080 -1.0384
12745SOL     OW43081   8.785   7.534   8.725 -0.1315 -0.4423 -0.0347
12745SOL    HW143082   8.786   7.628   8.744  0.7863 -0.6710  1.1533
12745SOL    HW243083   8.699   7.519   8.684 -0.1070  0.9735 -0.6790
12746SOL     OW43084   7.706   6.524   8.148  0.4158  0.2624  0.1727
12746SOL    HW143085   7.684   6.454   8.209 -1.6840  0.6665 -0.0424
12746SOL    HW243086   7.761   6.583   8.199 -1.5128  0.7423  1.8674
12747SOL     OW43087   7.654   3.293   9.261 -0.0329 -0.4024  0.0372
12747SOL    HW143088   7.698   3.226   9.312  2.7351  0.4752 -1.0031
12747SOL    HW243089   7.681   3.376   9.301 -0.2765  0.1892 -0.9701
12748SOL     OW43090   4.142   4.972   4.865 -0.2360  0.1635  0.3027
12748SOL    HW143091   4.085   4.991   4.939 -0.8606  0.8229 -0.3380
12748SOL    HW243092   4.144   4.876   4.861 -1.8661  0.1070 -0.0689
12749SOL     OW43093   5.045   5.886   2.488  0.5115 -0.1472  0.0178
12749SOL    HW143094   4.982   5.864   2.419  1.7543  0.0896 -1.2294
12749SOL    HW243095   5.106   5.813   2.488  0.7106  0.0103  0.6782
12750SOL     OW43096   0.078   9.401   7.158  0.1960 -0.2459  0.3240
12750SOL    HW143097   0.116   9.353   7.232  0.9061  0.2240  0.2738
12750SOL    HW243098   0.144   9.467   7.136 -0.3523  0.1275 -0.2246
12751SOL     OW43099   7.840   7.195   7.397 -0.1367  0.2040 -0.1356
12751SOL    HW143100   7.748   7.169   7.389  0.0520 -0.5293 -0.0362
12751SOL    HW243101   7.840   7.289   7.378 -0.6277 -0.1490 -2.1244
12752SOL     OW43102   1.834   1.138   4.896  0.2992  0.3176  0.2365
12752SOL    HW143103   1.873   1.224   4.908 -2.1884  1.5780 -0.1832
12752SOL    HW243104   1.858   1.113   4.807  0.9575  0.5871  0.3306
12753SOL     OW43105   2.644   9.135   5.646 -0.2281 -0.2819  0.4193
12753SOL    HW143106   2.550   9.139   5.662 -0.2523 -0.4608  0.3226
12753SOL    HW243107   2.683   9.116   5.731 -0.3721 -1.4692  0.2376
12754SOL     OW43108   9.147   4.987   3.173 -0.6287 -0.5535  0.3428
12754SOL    HW143109   9.191   4.982   3.258  2.5498 -1.2493 -1.2027
12754SOL    HW243110   9.142   5.080   3.154  1.0686 -0.4739  0.1847
12755SOL     OW43111   7.621   1.703   0.758  0.3339 -0.3436  0.1774
12755SOL    HW143112   7.586   1.625   0.801  0.3753 -0.8839 -0.7455
12755SOL    HW243113   7.660   1.670   0.677  0.5205  0.6173 -0.1349
12756SOL     OW43114   0.089   9.558   0.699  0.0550 -0.4009  0.3121
12756SOL    HW143115   0.116   9.498   0.629  1.2906 -0.5302  0.8789
12756SOL    HW243116   0.017   9.512   0.743 -0.0840 -0.7470 -0.2611
12757SOL     OW43117   1.712   3.675   9.085 -0.1054  0.2118 -0.0597
12757SOL    HW143118   1.772   3.638   9.151 -1.3163  0.2745  1.1293
12757SOL    HW243119   1.769   3.723   9.025  1.2780 -1.6206 -0.3058
12758SOL     OW43120   8.733   3.116   6.567  0.0598 -0.0203  0.5670
12758SOL    HW143121   8.703   3.206   6.578 -0.4347 -0.1689  0.4942
12758SOL    HW243122   8.659   3.063   6.597  0.8594 -0.4024  1.9625
12759SOL     OW43123   7.782   1.690   1.232  0.0576 -0.4019 -1.0216
12759SOL    HW143124   7.749   1.613   1.186  1.6720 -3.9655  3.0454
12759SOL    HW243125   7.875   1.694   1.210  0.6264 -1.5593  0.8861
12760SOL     OW43126   8.610   7.850   5.095 -0.1734  0.0540 -0.1198
12760SOL    HW143127   8.653   7.789   5.155 -1.9775 -1.0508  0.1311
12760SOL    HW243128   8.652   7.934   5.111 -0.1900 -0.3303  2.2841
12761SOL     OW43129   1.808   0.926   3.951 -0.0557  0.1507  0.0865
12761SOL    HW143130   1.778   0.879   3.873 -0.2172  1.0169 -0.3866
12761SOL    HW243131   1.783   0.870   4.024 -1.8863  0.3415 -0.3597
12762SOL     OW43132   8.079   1.338   9.705 -0.1518  0.3988 -0.4160
12762SOL    HW143133   8.168   1.303   9.700 -0.6871 -1.2914  0.9260
12762SOL    HW243134   8.043   1.325   9.617  0.8303  0.8796 -0.9028
12763SOL     OW43135   5.826   2.927   3.342 -0.3106  0.3256 -0.0301
12763SOL    HW143136   5.768   2.916   3.417 -1.1246  2.1519 -0.3285
12763SOL    HW243137   5.777   2.982   3.281  1.6127  1.7420 -0.4204
12764SOL     OW43138   4.486   5.665   2.353  0.2072  0.2034  0.4562
12764SOL    HW143139   4.418   5.712   2.401 -0.3827  1.3573 -1.4386
12764SOL    HW243140   4.510   5.593   2.411 -3.5774 -1.1167  0.6594
12765SOL     OW43141   5.132   8.256   9.697  0.9741 -0.2831  0.2103
12765SOL    HW143142   5.181   8.317   9.642 -0.3893  1.6097  1.0192
12765SOL    HW243143   5.180   8.254   9.780 -0.0146  1.2775  0.8687
12766SOL     OW43144   9.542   3.134   3.952  0.5772  0.2970  0.0011
12766SOL    HW143145   9.638   3.131   3.953  0.5794 -0.4736  1.7506
12766SOL    HW243146   9.515   3.043   3.963 -0.3436  0.6185  0.5118
12767SOL     OW43147   1.493   9.650   3.287 -0.3881  0.2143 -0.2263
12767SOL    HW143148   1.573   9.597   3.291 -0.8626 -0.5963 -1.0366
12767SOL    HW243149   1.520   9.736   3.317  0.9423  0.1089 -1.0253
12768SOL     OW43150   8.946   1.297   2.970  0.2326 -0.9268 -0.2785
12768SOL    HW143151   9.030   1.326   3.005  1.0694 -1.9144 -1.3761
12768SOL    HW243152   8.954   1.308   2.875 -1.2398 -0.1526 -0.3496
12769SOL     OW43153   7.094   4.477   1.241 -0.0939  0.1497 -0.3998
12769SOL    HW143154   7.028   4.408   1.251 -0.1902  0.2690 -0.2072
12769SOL    HW243155   7.176   4.435   1.268 -0.2456  0.2783  0.2842
12770SOL     OW43156   6.988   9.366   7.147  0.1605  0.5855 -0.4988
12770SOL    HW143157   7.021   9.397   7.231  2.5202 -1.0431 -0.7302
12770SOL    HW243158   6.929   9.295   7.169  0.6305  0.2832 -0.2035
12771SOL     OW43159   0.975   8.819   4.770  0.5640 -0.0772  0.1790
12771SOL    HW143160   0.952   8.912   4.767  3.1197  0.6244 -0.0433
12771SOL    HW243161   1.065   8.818   4.801  0.4127 -2.5509  0.7321
12772SOL     OW43162   9.053   2.555   6.362 -0.2014 -0.7265  0.2770
12772SOL    HW143163   9.019   2.641   6.387 -0.0927 -0.5392 -0.2102
12772SOL    HW243164   9.005   2.533   6.282 -0.5153 -1.2977  0.6115
12773SOL     OW43165   6.308   3.134   6.759  0.2679 -0.1745 -0.2985
12773SOL    HW143166   6.220   3.098   6.748  0.4584 -0.8557  0.3214
12773SOL    HW243167   6.355   3.066   6.807  1.2307  0.0374 -0.9233
12774SOL     OW43168   2.747   4.029   5.170 -0.7464  0.7830  0.8008
12774SOL    HW143169   2.725   4.103   5.226 -0.5066 -0.1232  2.1170
12774SOL    HW243170   2.669   4.017   5.115 -0.3561  2.7256 -0.2929
12775SOL     OW43171   6.663   7.959   8.197 -0.3180 -0.1010  0.2208
12775SOL    HW143172   6.696   7.911   8.272  0.3740 -0.6995 -0.4521
12775SOL    HW243173   6.607   8.027   8.234 -0.2527 -0.6018  1.2491
12776SOL     OW43174   3.286   2.882   8.084 -0.4282 -0.3330  0.0711
12776SOL    HW143175   3.371   2.904   8.044 -0.0689 -0.3685  0.8012
12776SOL    HW243176   3.306   2.812   8.145 -0.5823  1.1035  1.8602
12777SOL     OW43177   5.264   3.575   5.296  0.0471 -0.2453  0.5532
12777SOL    HW143178   5.283   3.608   5.383 -0.6014  1.5553  0.0520
12777SOL    HW243179   5.294   3.484   5.298  5.7551  1.2523  0.8329
12778SOL     OW43180   0.969   4.102   2.297 -0.3208 -0.0056  0.0882
12778SOL    HW143181   0.943   4.096   2.389 -1.3033 -0.7184 -0.2230
12778SOL    HW243182   0.903   4.160   2.258  0.6136  1.0390  0.0005
12779SOL     OW43183   2.177   2.167   6.459  0.1145 -0.2939  0.5458
12779SOL    HW143184   2.085   2.175   6.434  0.5476  0.4129 -0.9340
12779SOL    HW243185   2.178   2.099   6.527 -1.5210 -0.1078  0.7774
12780SOL     OW43186   1.599   8.637   4.314 -0.1978 -0.9068 -0.2529
12780SOL    HW143187   1.660   8.636   4.240 -1.0557  1.7767 -1.1026
12780SOL    HW243188   1.655   8.622   4.390  0.7848 -3.1636 -1.3231
12781SOL     OW43189   1.947   6.934   7.718  0.4242  0.4408  0.3834
12781SOL    HW143190   1.878   6.977   7.667  0.5641  0.5858  0.3136
12781SOL    HW243191   2.018   6.999   7.721  0.6633  0.1923  0.2233
12782SOL     OW43192   5.763   6.130   7.021  0.2627  0.1112  0.3149
12782SOL    HW143193   5.787   6.220   7.044  0.1080  0.1825  0.1980
12782SOL    HW243194   5.779   6.125   6.926  0.3401 -0.0071  0.3341
12783SOL     OW43195   1.211   9.299   3.308  0.0918 -0.1933 -0.2108
12783SOL    HW143196   1.159   9.253   3.242 -0.8360 -0.2273  0.5095
12783SOL    HW243197   1.283   9.240   3.327 -0.6625 -1.0289  0.1453
12784SOL     OW43198   2.091   5.239   0.712 -0.2940 -0.5124  0.4231
12784SOL    HW143199   2.051   5.196   0.788  0.6164  0.0487  1.2453
12784SOL    HW243200   2.049   5.325   0.708 -0.0767 -0.3992  0.5280
12785SOL     OW43201   8.519   7.141   0.638  0.3642  0.2566 -0.0958
12785SOL    HW143202   8.427   7.162   0.655  0.4381 -0.5605  1.5767
12785SOL    HW243203   8.518   7.092   0.556 -0.9128 -1.0363  0.6548
12786SOL     OW43204   6.502   8.494   7.942  0.3040 -0.9175  0.1476
12786SOL    HW143205   6.456   8.412   7.958  1.4434 -1.1690  2.6573
12786SOL    HW243206   6.591   8.477   7.972  0.0910  1.7665  2.6721
12787SOL     OW43207   5.991   3.730   7.212 -0.3390 -0.4797  0.0123
12787SOL    HW143208   5.980   3.800   7.148 -1.4643 -0.1161  0.5704
12787SOL    HW243209   5.911   3.733   7.265  0.6452 -0.6180  1.5744
12788SOL     OW43210   6.752   2.804   8.457 -0.0097 -0.3037  0.5181
12788SOL    HW143211   6.759   2.899   8.445 -1.2194 -0.1863  0.5818
12788SOL    HW243212   6.748   2.770   8.368  1.0658 -0.3636  0.4832
12789SOL     OW43213   6.127   2.693   4.148 -0.2019 -0.3392  0.3266
12789SOL    HW143214   6.173   2.618   4.186 -0.5771 -1.0574 -0.5998
12789SOL    HW243215   6.142   2.764   4.210  0.1498 -1.1794  1.2278
12790SOL     OW43216   6.298   8.516   7.049  0.2189 -0.2713 -0.2694
12790SOL    HW143217   6.269   8.458   7.120 -0.9430 -1.4844 -1.6828
12790SOL    HW243218   6.387   8.542   7.075 -0.1714 -0.6587  1.6238
12791SOL     OW43219   3.639   0.280   2.696  0.1328 -0.5189 -0.2214
12791SOL    HW143220   3.630   0.374   2.678  0.6515 -0.7496 -1.8664
12791SOL    HW243221   3.648   0.275   2.791  0.2825  1.1108 -0.1129
12792SOL     OW43222   7.686   6.039   1.353 -0.1564  0.5491 -0.0904
12792SOL    HW143223   7.702   5.986   1.432  0.3047  0.8909  0.0502
12792SOL    HW243224   7.726   5.989   1.282 -0.2993  0.3923 -0.0619
12793SOL     OW43225   9.208   8.064   9.664 -0.2776 -0.4715  0.0103
12793SOL    HW143226   9.242   8.012   9.737  0.0006  0.8071  0.8346
12793SOL    HW243227   9.268   8.138   9.658 -1.8843  0.9254  0.3643
12794SOL     OW43228   9.254   0.912   1.527 -0.0778  0.2890  0.3142
12794SOL    HW143229   9.195   0.985   1.544 -1.4378 -0.6961 -0.0764
12794SOL    HW243230   9.199   0.844   1.489  1.4617 -0.3739 -0.8322
12795SOL     OW43231   8.031   0.923   3.018 -0.4040  0.6394 -0.1540
12795SOL    HW143232   8.112   0.912   2.968 -1.5480  0.4104 -2.0769
12795SOL    HW243233   8.056   0.976   3.093  1.4202  1.0853 -1.0181
12796SOL     OW43234   6.254   1.194   1.456 -0.4426  0.0573  0.4077
12796SOL    HW143235   6.233   1.259   1.523  2.6579  0.4476  1.1712
12796SOL    HW243236   6.268   1.113   1.505  2.7869  0.5540  0.5346
12797SOL     OW43237   8.169   8.754   3.107  0.0777 -0.0183 -0.1094
12797SOL    HW143238   8.185   8.801   3.189 -0.1905  1.0378 -0.6424
12797SOL    HW243239   8.255   8.725   3.078  0.1411 -0.6964  0.6962
12798SOL     OW43240   7.636   1.707   4.771 -0.1849  0.2525  0.0302
12798SOL    HW143241   7.685   1.625   4.780 -0.1525  0.0727 -1.5351
12798SOL    HW243242   7.688   1.772   4.818  0.2841 -0.4210  0.4534
12799SOL     OW43243   3.027   7.600   2.130  0.5701  0.3233 -0.0662
12799SOL    HW143244   3.077   7.598   2.211  1.8096  1.0260 -0.7958
12799SOL    HW243245   2.966   7.673   2.141  0.8840  0.5560  0.1424
12800SOL     OW43246   2.319   7.243   5.998 -0.0737  0.6677 -0.8796
12800SOL    HW143247   2.296   7.298   6.073  1.2226 -0.7609  0.6426
12800SOL    HW243248   2.282   7.288   5.923  0.6553  3.4336  0.3119
12801SOL     OW43249   4.957   7.129   4.183 -0.6205  0.8511 -0.4213
12801SOL    HW143250   4.971   7.041   4.220 -0.7213  0.6790 -0.7885
12801SOL    HW243251   4.937   7.113   4.091  1.7188  1.3703 -1.1022
12802SOL     OW43252   9.548   3.857   0.361 -0.4905 -0.1621  0.0824
12802SOL    HW143253   9.518   3.946   0.378  2.6954  1.3070 -1.0719
12802SOL    HW243254   9.502   3.831   0.281 -0.8324  0.7792 -0.0386
12803SOL     OW43255   2.935   7.414   9.253 -0.2213 -0.3026 -0.1350
12803SOL    HW143256   2.946   7.345   9.187  3.0172  0.0614 -0.1329
12803SOL    HW243257   2.949   7.369   9.336  0.2663  0.0636 -0.0190
12804SOL     OW43258   7.677   6.982   0.287 -0.0229  0.3169  0.2490
12804SOL    HW143259   7.615   7.020   0.349  0.7318  0.9182  0.6659
12804SOL    HW243260   7.762   6.992   0.330  0.5288  0.8372 -0.9220
12805SOL     OW43261   5.073   3.231   9.463 -0.0923 -0.2604  0.5063
12805SOL    HW143262   5.113   3.259   9.546  0.4725  0.7921 -0.1028
12805SOL    HW243263   5.138   3.171   9.425  1.0802  1.6121 -0.5826
12806SOL     OW43264   4.662   4.000   0.626  0.1625 -0.1634  0.1656
12806SOL    HW143265   4.743   3.991   0.675  0.1054 -1.0320  0.1161
12806SOL    HW243266   4.597   4.024   0.692  0.0938 -1.2853  0.5298
12807SOL     OW43267   8.876   8.171   0.408  0.0961  0.4496  0.2323
12807SOL    HW143268   8.812   8.102   0.426  1.2534 -0.2286  2.0808
12807SOL    HW243269   8.940   8.130   0.351  0.3750  0.2106  0.7082
12808SOL     OW43270   2.174   7.684   6.063  0.2933  0.7613  0.3233
12808SOL    HW143271   2.107   7.695   5.996  1.8635 -0.3389 -1.5148
12808SOL    HW243272   2.139   7.730   6.139 -2.1064  1.0059 -0.8446
12809SOL     OW43273   8.928   5.667   1.318 -0.0102 -0.2023 -0.3071
12809SOL    HW143274   9.022   5.681   1.301 -0.8781  3.0835 -3.5926
12809SOL    HW243275   8.886   5.682   1.234 -3.5277 -2.4211  0.8621
12810SOL     OW43276   0.675   1.529   8.655  0.3740 -0.0317  0.1282
12810SOL    HW143277   0.691   1.561   8.566 -0.3051 -0.6527 -0.2223
12810SOL    HW243278   0.743   1.463   8.669 -0.0947 -0.6112 -0.2879
12811SOL     OW43279   0.739   5.678   0.797 -0.0284 -0.0527  0.2956
12811SOL    HW143280   0.702   5.592   0.778 -0.8891  0.0842  1.2388
12811SOL    HW243281   0.822   5.680   0.749  0.1782 -1.5436  0.5412
12812SOL     OW43282   8.889   3.521   0.566  0.0328  0.0829 -0.0458
12812SOL    HW143283   8.940   3.454   0.612  1.3964 -0.1118 -1.7024
12812SOL    HW243284   8.924   3.519   0.477 -1.7718  1.1472 -0.8255
12813SOL     OW43285   8.564   2.041   7.525  0.5576  0.3511 -0.6388
12813SOL    HW143286   8.567   1.991   7.607  2.0376  1.6220  0.1446
12813SOL    HW243287   8.479   2.019   7.486  0.7925 -2.0859  0.0627
12814SOL     OW43288   6.985   1.588   1.842 -0.1786  0.1568 -0.6818
12814SOL    HW143289   7.007   1.590   1.935 -0.5955 -1.0060 -0.5344
12814SOL    HW243290   7.050   1.529   1.803 -0.0339  0.6013 -1.1190
12815SOL     OW43291   2.273   4.083   6.901  0.0538 -0.3099 -0.3413
12815SOL    HW143292   2.222   4.117   6.974 -0.6223  0.8101 -1.2944
12815SOL    HW243293   2.241   3.994   6.887 -0.3741 -0.2444  0.2173
12816SOL     OW43294   2.341   4.271   7.980  0.5414 -0.3788 -0.3149
12816SOL    HW143295   2.425   4.304   7.950  0.2507 -0.4713 -1.2691
12816SOL    HW243296   2.281   4.288   7.907  0.0719 -1.6682 -0.2598
12817SOL     OW43297   3.377   0.546   2.382  0.0347  0.4477  0.0824
12817SOL    HW143298   3.301   0.596   2.353  0.1145  0.6221  0.1740
12817SOL    HW243299   3.408   0.502   2.303  0.1791  0.8267 -0.0779
12818SOL     OW43300   5.596   1.344   7.487 -0.4098  0.0273 -0.7652
12818SOL    HW143301   5.688   1.365   7.468  0.5144 -0.4554  2.5059
12818SOL    HW243302   5.597   1.250   7.508 -1.2361  0.3776  1.0584
12819SOL     OW43303   1.516   8.340   6.235  0.4149  0.4404  0.1610
12819SOL    HW143304   1.496   8.369   6.146  0.6441 -0.1554 -0.0921
12819SOL    HW243305   1.432   8.339   6.280  0.1982  0.0703 -0.2507
12820SOL     OW43306   2.694   6.526   6.879  0.7510 -0.1448 -0.0003
12820SOL    HW143307   2.698   6.622   6.873 -0.5188  0.0165  1.2534
12820SOL    HW243308   2.613   6.504   6.833  0.0971 -0.4409  1.2744
12821SOL     OW43309   8.803   5.251   8.328  0.3733  0.4993 -0.1052
12821SOL    HW143310   8.722   5.223   8.286 -0.6558  2.0378  0.7400
12821SOL    HW243311   8.835   5.323   8.273  1.1710 -0.0681 -0.4101
12822SOL     OW43312   4.209   9.100   1.384 -0.0483 -0.1106 -0.0090
12822SOL    HW143313   4.267   9.026   1.403 -0.3399 -0.6370 -1.0731
12822SOL    HW243314   4.126   9.076   1.425 -0.3013 -0.6490 -0.8006
12823SOL     OW43315   4.470   7.796   1.452  0.1937  0.7241 -0.0422
12823SOL    HW143316   4.468   7.853   1.375  1.6145  2.3486  1.0505
12823SOL    HW243317   4.387   7.815   1.497 -0.6537 -0.2476 -1.1209
12824SOL     OW43318   6.865   8.250   6.635  0.7685  0.3147 -0.0891
12824SOL    HW143319   6.958   8.244   6.612  0.3102  0.7820 -2.2754
12824SOL    HW243320   6.826   8.169   6.601  0.5618 -0.5732  2.0947
12825SOL     OW43321   1.312   7.292   4.924 -0.1451  0.6591 -0.1573
12825SOL    HW143322   1.373   7.362   4.946 -1.2058  1.8935 -0.9769
12825SOL    HW243323   1.228   7.337   4.911 -1.4623 -1.0478  1.7070
12826SOL     OW43324   8.971   3.836   1.577  0.1753  0.0603 -0.9269
12826SOL    HW143325   8.890   3.884   1.558  0.3424 -0.0794 -2.0862
12826SOL    HW243326   9.027   3.899   1.622  0.2498  0.8625 -2.1039
12827SOL     OW43327   9.455   4.902   5.288 -0.2804 -0.5711  0.3518
12827SOL    HW143328   9.518   4.954   5.238  2.0973 -0.8531  2.8020
12827SOL    HW243329   9.454   4.817   5.244 -0.9719  0.2004 -1.2063
12828SOL     OW43330   6.296   1.578   5.468 -0.5044  0.1450 -0.8402
12828SOL    HW143331   6.292   1.482   5.474 -1.8801  0.2853  1.4624
12828SOL    HW243332   6.372   1.602   5.521  0.1343  0.3276 -1.8190
12829SOL     OW43333   8.517   4.487   5.684  0.3512 -0.1192 -0.4642
12829SOL    HW143334   8.525   4.395   5.709  0.4068 -0.3742 -1.3870
12829SOL    HW243335   8.423   4.502   5.677  0.3601 -0.2730 -0.9124
12830SOL     OW43336   7.008   2.792   3.268 -1.0320  0.1237 -0.1651
12830SOL    HW143337   6.943   2.862   3.270  1.5917  2.8725 -1.9919
12830SOL    HW243338   7.063   2.812   3.193  0.3075 -3.6346 -0.3923
12831SOL     OW43339   9.200   8.019   2.599 -0.2843 -1.0589 -0.3603
12831SOL    HW143340   9.191   8.004   2.505 -1.2797  0.6335 -0.5750
12831SOL    HW243341   9.198   8.114   2.609  2.7840 -1.0095  1.1246
12832SOL     OW43342   5.105   3.403   3.265 -0.1030  0.0152  0.0756
12832SOL    HW143343   5.014   3.378   3.281 -0.3535  0.7158 -0.2292
12832SOL    HW243344   5.139   3.423   3.353 -0.6409  1.0558  0.0605
12833SOL     OW43345   4.084   0.445   3.397  0.0634 -0.0754 -0.0018
12833SOL    HW143346   3.998   0.476   3.424 -0.0910  0.0680 -0.6399
12833SOL    HW243347   4.068   0.400   3.314  0.4702 -0.8104  0.3097
12834SOL     OW43348   2.129   7.027   6.030 -0.2656  0.7863 -0.2045
12834SOL    HW143349   2.203   6.975   5.999 -0.4065  1.1518 -1.1987
12834SOL    HW243350   2.168   7.109   6.061 -0.2431  0.9233 -0.5966
12835SOL     OW43351   2.639   0.462   2.381  0.1931 -0.0255  0.0824
12835SOL    HW143352   2.569   0.400   2.361  0.7744 -1.5907  2.4947
12835SOL    HW243353   2.706   0.445   2.315  0.7049 -2.6764  1.1629
12836SOL     OW43354   6.544   0.398   8.235 -0.4132 -0.0904 -0.0461
12836SOL    HW143355   6.603   0.356   8.298  1.2475  2.2464  0.1008
12836SOL    HW243356   6.495   0.461   8.287 -0.0650  0.8462 -0.8225
12837SOL     OW43357   9.560   7.896   1.748 -0.0573  0.6428  0.1461
12837SOL    HW143358   9.614   7.974   1.737  0.9513 -0.3099 -2.6574
12837SOL    HW243359   9.504   7.894   1.671 -1.8393 -0.1452  1.3841
12838SOL     OW43360   8.868   3.482   4.543 -0.3317  0.0582  0.1245
12838SOL    HW143361   8.952   3.527   4.530 -0.7680  1.2494  1.2093
12838SOL    HW243362   8.843   3.453   4.455  1.3665 -0.6377 -0.1707
12839SOL     OW43363   8.741   0.296   4.726 -0.5837 -0.3975  0.1230
12839SOL    HW143364   8.831   0.322   4.704 -0.1254 -0.9173  1.2782
12839SOL    HW243365   8.721   0.345   4.805 -0.9629 -0.9833  0.3985
12840SOL     OW43366   6.684   6.757   6.977 -0.0928 -0.4598  0.1985
12840SOL    HW143367   6.731   6.692   7.029 -1.8306 -2.8177 -0.9526
12840SOL    HW243368   6.646   6.817   7.041  0.7957 -1.1046  1.3652
12841SOL     OW43369   1.159   7.404   5.651  0.2382  0.0045 -0.5334
12841SOL    HW143370   1.162   7.328   5.708  0.5225  0.0193 -0.5238
12841SOL    HW243371   1.228   7.462   5.685  0.5474 -0.0769 -1.0121
12842SOL     OW43372   2.205   1.917   1.133 -0.3177 -0.4720 -0.5490
12842SOL    HW143373   2.193   1.990   1.072 -0.0435  0.7885  0.8548
12842SOL    HW243374   2.122   1.870   1.131 -1.0397  0.7558 -0.3762
12843SOL     OW43375   6.089   8.726   2.714 -0.1731 -1.7544 -0.1222
12843SOL    HW143376   6.054   8.647   2.674 -1.5282 -1.1815 -0.1400
12843SOL    HW243377   6.020   8.792   2.702  1.4120 -0.1995 -1.2305
12844SOL     OW43378   7.931   8.958   3.245  0.1907  0.0969 -0.0318
12844SOL    HW143379   7.877   9.034   3.265 -0.2954 -0.4503  0.7777
12844SOL    HW243380   8.010   8.995   3.204 -0.6047  0.9253 -0.8587
12845SOL     OW43381   4.187   0.313   5.551 -0.1277  0.0825  0.3173
12845SOL    HW143382   4.124   0.313   5.478  0.5913  1.2920 -0.3255
12845SOL    HW243383   4.132   0.308   5.629 -1.0582  1.3892 -0.2215
12846SOL     OW43384   4.463   4.221   7.594  0.5643  0.1526 -0.2207
12846SOL    HW143385   4.476   4.296   7.652 -0.8513 -0.5678  1.0946
12846SOL    HW243386   4.531   4.159   7.621  0.0125 -0.1162  0.6136
12847SOL     OW43387   4.289   9.357   9.496  0.1329  1.0554  0.6045
12847SOL    HW143388   4.195   9.362   9.477  0.6813 -1.0894 -3.9523
12847SOL    HW243389   4.302   9.266   9.523  1.2371  0.0722 -2.7601
12848SOL     OW43390   7.053   2.556   6.747  0.2223 -0.3493  0.0516
12848SOL    HW143391   7.099   2.544   6.830  1.4773 -0.6863 -0.6565
12848SOL    HW243392   6.964   2.526   6.764  1.1057 -2.9060  0.6208
12849SOL     OW43393   2.270   8.878   3.592 -0.0892 -0.1551  0.6610
12849SOL    HW143394   2.298   8.927   3.515 -0.1129  2.1539  2.0286
12849SOL    HW243395   2.272   8.787   3.564 -1.1944  0.6359 -2.4031
12850SOL     OW43396   1.750   3.002   6.200  0.1918 -0.1508 -0.7028
12850SOL    HW143397   1.677   2.990   6.260  1.6995 -0.3858  1.1638
12850SOL    HW243398   1.797   3.078   6.233  0.8499 -0.0395 -1.8386
12851SOL     OW43399   9.376   4.729   6.012  1.0282 -0.5372 -0.7269
12851SOL    HW143400   9.457   4.713   6.060  0.4223 -1.2443  0.0853
12851SOL    HW243401   9.404   4.734   5.920  2.0696 -0.1444 -0.4054
12852SOL     OW43402   9.732   7.137   2.826  0.1495 -0.0705 -0.2544
12852SOL    HW143403   9.688   7.114   2.744 -0.5229 -0.2066  0.1411
12852SOL    HW243404   9.701   7.225   2.846 -1.2081 -0.7495  0.8406
12853SOL     OW43405   7.233   6.765   1.145 -0.7567  0.4005  0.0891
12853SOL    HW143406   7.158   6.712   1.120 -0.9888  0.6099  0.3276
12853SOL    HW243407   7.303   6.739   1.085 -0.8511 -0.2102  0.2392
12854SOL     OW43408   3.881   1.310   5.105  0.1518 -0.2005 -0.5326
12854SOL    HW143409   3.793   1.294   5.137 -0.6378 -0.3722 -2.6470
12854SOL    HW243410   3.932   1.234   5.133 -0.1099  0.3101  1.4547
12855SOL     OW43411   3.828   1.398   9.010 -0.0580  0.2441 -0.1834
12855SOL    HW143412   3.872   1.391   8.926  0.1748 -1.0004  0.0364
12855SOL    HW243413   3.862   1.326   9.062 -0.6110  0.6655  0.7944
12856SOL     OW43414   4.994   3.065   4.994 -0.1900 -0.4134 -0.7248
12856SOL    HW143415   4.950   3.146   5.022 -1.2465 -1.1766 -0.0671
12856SOL    HW243416   5.086   3.080   5.014 -0.5102  0.2443  0.3966
12857SOL     OW43417   4.986   2.837   6.209 -0.2808 -0.0612  0.0622
12857SOL    HW143418   5.072   2.878   6.219 -1.0748  1.3021  1.9673
12857SOL    HW243419   5.001   2.745   6.229  0.8630 -0.0034 -0.4287
12858SOL     OW43420   0.731   8.642   5.293  0.1663  0.0996 -0.2895
12858SOL    HW143421   0.811   8.670   5.337  1.3479 -1.9528 -1.0274
12858SOL    HW243422   0.761   8.595   5.216 -1.5862 -3.7295  1.1312
12859SOL     OW43423   7.524   9.354   8.699  0.6621 -0.1495 -0.4943
12859SOL    HW143424   7.575   9.414   8.645 -1.6916  0.9105 -1.6719
12859SOL    HW243425   7.538   9.268   8.659 -0.5602  0.5269 -2.5064
12860SOL     OW43426   1.476   0.289   0.146 -0.3021  0.5898  0.3611
12860SOL    HW143427   1.503   0.259   0.059 -1.9979 -2.6052  0.7905
12860SOL    HW243428   1.394   0.336   0.130 -1.8422 -1.9252  0.3012
12861SOL     OW43429   1.523   5.545   2.138 -0.6465  0.5970  0.2987
12861SOL    HW143430   1.490   5.573   2.224  0.6451 -0.7624  1.2939
12861SOL    HW243431   1.444   5.539   2.084 -1.6505  0.4576  1.7026
12862SOL     OW43432   9.309   2.283   7.783  0.1657 -0.0052  0.0302
12862SOL    HW143433   9.388   2.228   7.787  0.2161  0.0326 -0.4865
12862SOL    HW243434   9.341   2.368   7.753  0.1161  0.3741  0.9960
12863SOL     OW43435   7.035   9.254   9.027 -0.3840  0.1871 -0.2735
12863SOL    HW143436   7.043   9.197   9.103  0.5722  0.4758 -0.1467
12863SOL    HW243437   7.124   9.261   8.992 -0.8826 -0.3739 -1.7434
12864SOL     OW43438   4.753   8.529   2.338 -0.1834  0.5776 -0.3545
12864SOL    HW143439   4.827   8.576   2.300 -1.8629  1.7589 -2.3044
12864SOL    HW243440   4.707   8.594   2.390 -1.0670  0.4128 -0.9205
12865SOL     OW43441   5.217   9.103   9.335  0.0665  0.1094  0.6616
12865SOL    HW143442   5.196   9.073   9.246  0.3713 -1.7665  1.1685
12865SOL    HW243443   5.292   9.161   9.323  0.5731 -0.6968 -0.2672
12866SOL     OW43444   2.819   1.357   3.712  0.1777  0.9758 -0.0125
12866SOL    HW143445   2.768   1.307   3.649 -0.0303  1.1667  0.0038
12866SOL    HW243446   2.837   1.296   3.783 -0.1224  0.9448  0.0341
12867SOL     OW43447   1.176   5.813   2.278 -0.3882  0.2056  0.2680
12867SOL    HW143448   1.084   5.825   2.256 -0.0065  2.2385 -0.4143
12867SOL    HW243449   1.216   5.899   2.266  0.8828  0.3870  4.1438
12868SOL     OW43450   4.720   9.218   6.397  0.4297  0.8364  0.5089
12868SOL    HW143451   4.675   9.156   6.455  0.3100  0.5895  0.1570
12868SOL    HW243452   4.744   9.291   6.454  0.5387  0.4855  0.9228
12869SOL     OW43453   4.893   1.138   9.516  0.0475  0.3094 -0.0607
12869SOL    HW143454   4.968   1.081   9.534 -0.6122 -0.5296  0.0743
12869SOL    HW243455   4.930   1.210   9.465  0.5729 -1.2450 -2.0269
12870SOL     OW43456   4.942   6.091   6.581  0.6131  0.0548  0.4536
12870SOL    HW143457   4.981   6.052   6.660  0.3913 -2.0771 -0.4280
12870SOL    HW243458   4.999   6.064   6.510  0.6618  1.7412 -0.1949
12871SOL     OW43459   7.439   1.468   1.856  0.1524  0.1650  0.6705
12871SOL    HW143460   7.511   1.423   1.900 -0.1860 -1.0936 -0.0011
12871SOL    HW243461   7.461   1.560   1.861  1.3208 -0.1367  1.3297
12872SOL     OW43462   5.106   5.059   9.001  0.4166 -0.8953 -0.2350
12872SOL    HW143463   5.200   5.052   8.986  0.1071 -1.2997 -2.1888
12872SOL    HW243464   5.075   5.118   8.933 -0.6976 -0.3669  0.6874
12873SOL     OW43465   0.575   7.546   0.040  0.7950  0.1296  0.6394
12873SOL    HW143466   0.523   7.468   0.020 -1.4360  1.1550  2.0719
12873SOL    HW243467   0.558   7.564   0.132  3.6092  0.6912  1.1535
12874SOL     OW43468   1.978   7.257   2.171 -0.4714  0.5275  0.7485
12874SOL    HW143469   2.058   7.291   2.211  0.3426 -0.9629  0.4421
12874SOL    HW243470   1.912   7.262   2.240  0.3565  0.0596  1.5791
12875SOL     OW43471   2.611   4.258   2.246  0.1809 -0.3528 -0.3317
12875SOL    HW143472   2.707   4.265   2.254  0.2631 -1.5706 -0.1054
12875SOL    HW243473   2.589   4.179   2.295 -1.0608  0.4405  0.4222
12876SOL     OW43474   3.029   6.456   5.196 -0.0914  0.1478 -0.3768
12876SOL    HW143475   3.058   6.481   5.108 -1.1897  0.2754 -0.7222
12876SOL    HW243476   2.937   6.431   5.184 -0.0949 -0.3638  0.6429
12877SOL     OW43477   3.191   7.302   0.157  0.1055 -0.1796  0.1899
12877SOL    HW143478   3.210   7.268   0.070 -0.6847 -0.7499  0.2194
12877SOL    HW243479   3.095   7.299   0.163 -0.0045  2.1271  0.1877
12878SOL     OW43480   4.980   4.113   6.531 -0.4448 -0.4003 -0.0139
12878SOL    HW143481   4.977   4.018   6.534  1.4627 -0.6345 -2.4412
12878SOL    HW243482   5.045   4.138   6.596 -1.0206 -0.7002  0.6999
12879SOL     OW43483   0.407   8.619   7.445  0.1933 -0.7417  0.2388
12879SOL    HW143484   0.420   8.712   7.461 -2.7930 -0.0467 -0.8624
12879SOL    HW243485   0.332   8.614   7.386 -1.5124 -3.9245  2.3880
12880SOL     OW43486   4.871   3.041   8.145 -0.2198 -0.6084  0.6362
12880SOL    HW143487   4.782   3.034   8.112 -0.7403  2.1669  1.2334
12880SOL    HW243488   4.869   3.116   8.205  2.5981 -0.1833  0.3354
12881SOL     OW43489   1.903   3.278   0.720 -0.0132  0.5592 -0.4601
12881SOL    HW143490   1.824   3.317   0.758 -0.2366  0.0677 -0.4089
12881SOL    HW243491   1.962   3.266   0.794  2.4694  6.0941 -1.0910
12882SOL     OW43492   0.028   5.139   7.821  0.2092  0.1271 -0.2496
12882SOL    HW143493  -0.013   5.173   7.741 -1.1215  1.1355  0.7985
12882SOL    HW243494   0.004   5.202   7.889 -0.4100 -1.7249  1.3584
12883SOL     OW43495   8.294   1.757   7.760 -0.3930 -0.3889  0.0885
12883SOL    HW143496   8.203   1.771   7.786 -0.6053 -0.6805 -0.4955
12883SOL    HW243497   8.293   1.676   7.709  0.2181 -0.4721  0.2015
12884SOL     OW43498   3.899   8.499   7.674 -0.2255  0.0185 -0.0209
12884SOL    HW143499   3.968   8.521   7.737  0.0815  0.8731 -0.6421
12884SOL    HW243500   3.821   8.542   7.708 -0.1509  0.1471 -0.0119
12885SOL     OW43501   8.994   0.257   6.778 -0.6355  0.3339 -0.4507
12885SOL    HW143502   8.989   0.304   6.861 -1.1229  0.5043 -0.5727
12885SOL    HW243503   9.087   0.260   6.754 -0.3219 -0.5408  0.5570
12886SOL     OW43504   9.436   9.339   1.142  0.5951  0.1482  0.2265
12886SOL    HW143505   9.513   9.284   1.128  0.3324 -0.3382  0.6846
12886SOL    HW243506   9.361   9.281   1.128  0.2854  0.7759 -0.8955
12887SOL     OW43507   0.002   2.116   5.830  0.3941  0.4064 -0.2132
12887SOL    HW143508  -0.001   2.061   5.752 -0.0482  0.2833 -0.1090
12887SOL    HW243509  -0.084   2.157   5.834 -0.1634 -0.8529  1.1322
12888SOL     OW43510   6.580   6.358   2.718 -0.0938  0.2160 -0.0222
12888SOL    HW143511   6.570   6.283   2.777 -1.5707  1.0652  0.8546
12888SOL    HW243512   6.546   6.328   2.634 -0.6444 -0.1078  0.3136
12889SOL     OW43513   4.041   6.021   5.212 -0.5797  0.3626 -0.1567
12889SOL    HW143514   4.015   5.938   5.252  0.4278 -0.4946 -1.1988
12889SOL    HW243515   4.118   6.048   5.263 -0.6778  0.4480 -0.0558
12890SOL     OW43516   3.226   5.244   1.745  0.3270  0.2754 -0.5213
12890SOL    HW143517   3.172   5.188   1.689  0.9638 -0.3620 -0.5138
12890SOL    HW243518   3.164   5.300   1.790 -0.2168  0.6753 -1.7196
12891SOL     OW43519   4.593   6.029   0.013  0.2306 -0.0291  0.0049
12891SOL    HW143520   4.523   6.043  -0.051  1.1091  0.7607 -0.8015
12891SOL    HW243521   4.668   6.077  -0.021  0.7580  0.3581  1.5940
12892SOL     OW43522   4.899   8.591   8.152 -0.3666 -0.1079  0.1055
12892SOL    HW143523   4.962   8.605   8.222 -1.0648  1.5914  0.4417
12892SOL    HW243524   4.953   8.568   8.076  0.7467  1.7983  0.2492
12893SOL     OW43525   2.760   6.835   3.530 -0.2638 -0.1725 -0.4210
12893SOL    HW143526   2.772   6.764   3.467  0.6668 -2.0249  1.6623
12893SOL    HW243527   2.665   6.848   3.535 -0.4906 -1.6720 -0.4728
12894SOL     OW43528   8.705   5.192   7.771 -0.1232 -0.3838 -0.0948
12894SOL    HW143529   8.670   5.122   7.717  1.0212 -1.4208  0.4783
12894SOL    HW243530   8.734   5.149   7.851 -0.7190  0.9529  0.8807
12895SOL     OW43531   8.475   2.172   4.355 -0.4695  0.2383 -0.9175
12895SOL    HW143532   8.566   2.145   4.370 -1.4090 -2.0018  1.3288
12895SOL    HW243533   8.477   2.215   4.269  2.2940 -1.8695 -2.0521
12896SOL     OW43534   3.047   1.661   2.637  0.5833  0.0863  0.2893
12896SOL    HW143535   3.039   1.737   2.694 -1.2087  0.2369 -0.0765
12896SOL    HW243536   3.072   1.589   2.695  1.2729  0.7375  0.8125
12897SOL     OW43537   0.474   1.451   0.874  0.5548 -0.1854  0.1376
12897SOL    HW143538   0.533   1.385   0.910  2.1331  0.6016 -0.8746
12897SOL    HW243539   0.440   1.497   0.951  1.5177 -0.4698  0.7548
12898SOL     OW43540   3.234   0.991   0.243  0.1704  1.1058 -0.1180
12898SOL    HW143541   3.143   1.003   0.213 -0.2515 -0.8423  0.2452
12898SOL    HW243542   3.283   0.977   0.162 -0.2775 -0.0979 -0.2121
12899SOL     OW43543   7.372   0.254   7.351 -0.2286  0.0569  0.1697
12899SOL    HW143544   7.354   0.186   7.417 -0.2491 -2.4033 -2.1902
12899SOL    HW243545   7.287   0.269   7.309  0.2285 -0.2344 -0.8887
12900SOL     OW43546   5.803   9.731   1.889  0.9006  0.5486  0.3327
12900SOL    HW143547   5.876   9.781   1.852  0.4988  1.0069  0.1621
12900SOL    HW243548   5.838   9.697   1.972  1.8079 -0.5063 -0.4592
12901SOL     OW43549   4.210   7.310   7.304  0.1416  0.4215  0.3361
12901SOL    HW143550   4.190   7.276   7.217  1.1819 -0.8140  0.5484
12901SOL    HW243551   4.149   7.264   7.362 -0.3951  1.0756  0.3051
12902SOL     OW43552   3.352   5.076   3.554 -0.1113  0.5795  0.4442
12902SOL    HW143553   3.321   5.033   3.633  1.3625  2.2901  2.0607
12902SOL    HW243554   3.288   5.146   3.538 -0.7400 -0.1382 -0.2796
12903SOL     OW43555   6.415   6.539   4.471 -0.2211  0.3597  0.1777
12903SOL    HW143556   6.418   6.511   4.563  1.8129  0.5886  0.2440
12903SOL    HW243557   6.414   6.635   4.476  1.0564  0.4016 -0.0005
12904SOL     OW43558   5.969   7.411   1.557 -0.0089 -0.2037 -0.5076
12904SOL    HW143559   5.969   7.503   1.585  1.4309 -0.1020 -0.7560
12904SOL    HW243560   6.029   7.409   1.482  0.4525 -1.4487 -0.1303
12905SOL     OW43561   2.714   6.011   3.495 -0.5683  0.1145 -0.3830
12905SOL    HW143562   2.619   6.013   3.485 -0.3775  0.6825 -2.6871
12905SOL    HW243563   2.729   6.004   3.590 -2.8792 -0.0924  0.0084
12906SOL     OW43564   8.297   7.130   7.196  0.0296 -0.5850 -0.2062
12906SOL    HW143565   8.236   7.172   7.256 -1.9524 -1.5513 -1.4061
12906SOL    HW243566   8.267   7.039   7.193  0.6908 -0.7802 -1.8651
12907SOL     OW43567   4.097   7.563   7.094 -0.2481  0.4080 -0.3687
12907SOL    HW143568   4.045   7.641   7.115 -1.0302  0.4399 -2.3057
12907SOL    HW243569   4.034   7.492   7.086  0.1852  0.0950 -1.1020
12908SOL     OW43570   7.102   8.920   8.246  0.2207  0.0695 -0.3280
12908SOL    HW143571   7.123   8.990   8.184 -0.0663  0.6450  0.2053
12908SOL    HW243572   7.187   8.888   8.276  0.3568  0.5648 -0.1710
12909SOL     OW43573   9.245   7.230   6.145  0.0863 -0.2993  0.0218
12909SOL    HW143574   9.288   7.171   6.206  0.2656 -1.3682 -1.1076
12909SOL    HW243575   9.165   7.258   6.191  0.6490 -0.3700  1.0746
12910SOL     OW43576   2.840   4.031   5.483  0.1289 -0.1893  0.0290
12910SOL    HW143577   2.888   4.075   5.413  1.7838 -2.8334 -0.6392
12910SOL    HW243578   2.821   4.100   5.546  0.4654  1.8756 -2.0043
12911SOL     OW43579   4.066   9.019   6.806  0.2322  0.0648 -0.2663
12911SOL    HW143580   4.146   8.983   6.768  1.1272  1.1499  0.5076
12911SOL    HW243581   4.000   8.952   6.792  1.1543 -0.6371 -1.3995
12912SOL     OW43582   0.409   3.774   7.511 -0.0631  0.2100 -0.5148
12912SOL    HW143583   0.375   3.796   7.598 -0.1003  0.6087 -0.6241
12912SOL    HW243584   0.407   3.858   7.464  0.6060  0.1394 -0.6790
12913SOL     OW43585   9.603   1.644   5.631  0.4078  0.2206 -0.8877
12913SOL    HW143586   9.685   1.613   5.670  0.3042  0.6361 -0.3358
12913SOL    HW243587   9.631   1.704   5.562  0.5912 -0.5492 -1.4930
12914SOL     OW43588   6.662   2.107   8.092  0.1066 -0.4471 -0.2539
12914SOL    HW143589   6.593   2.164   8.057  1.3098  2.1205  1.2197
12914SOL    HW243590   6.629   2.077   8.176  0.2688 -0.2275 -0.1095
12915SOL     OW43591   1.286   3.683   3.117  0.3121  0.3983  0.0857
12915SOL    HW143592   1.343   3.616   3.154 -0.1813 -0.7889 -1.2298
12915SOL    HW243593   1.198   3.653   3.137  0.0872  1.1511  0.2733
12916SOL     OW43594   3.658   6.696   8.991 -0.0934 -0.0335 -0.2946
12916SOL    HW143595   3.673   6.632   9.061 -0.4574  0.4285  0.2229
12916SOL    HW243596   3.563   6.708   8.990 -0.0672  0.1399 -0.7155
12917SOL     OW43597   4.417   7.187   5.273 -0.2861  0.1988 -0.3374
12917SOL    HW143598   4.511   7.181   5.260 -0.2908 -0.4842 -0.1030
12917SOL    HW243599   4.404   7.164   5.365 -0.5789  1.3970 -0.0643
12918SOL     OW43600   7.751   9.443   8.292 -0.4110  0.6798  1.1384
12918SOL    HW143601   7.837   9.401   8.292  0.5943  2.5918  0.5461
12918SOL    HW243602   7.689   9.371   8.289  1.1800 -0.7538  0.9768
12919SOL     OW43603   2.052   8.447   2.403  0.6268 -0.5771  0.9797
12919SOL    HW143604   2.008   8.452   2.487  0.0013  1.1253  0.5863
12919SOL    HW243605   2.135   8.404   2.422  1.8662  2.4450  3.0664
12920SOL     OW43606   5.361   8.697   7.495 -0.0240 -0.6166  0.4878
12920SOL    HW143607   5.279   8.648   7.484 -1.3116  1.5390  0.0081
12920SOL    HW243608   5.346   8.780   7.450  2.0044  0.3355  1.4363
12921SOL     OW43609   9.028   0.905   0.433 -0.1025  0.0736  0.4399
12921SOL    HW143610   9.086   0.858   0.373 -1.3923 -0.0967 -0.7395
12921SOL    HW243611   9.049   0.997   0.421  1.4412 -0.0646  1.6991
12922SOL     OW43612   9.479   0.892   2.942  0.4158  0.5398  0.3235
12922SOL    HW143613   9.390   0.872   2.914  1.4241 -0.4882 -2.4731
12922SOL    HW243614   9.516   0.807   2.965  1.2213  0.7009 -0.3492
12923SOL     OW43615   1.892   3.346   1.903  0.1739 -0.1544 -0.0913
12923SOL    HW143616   1.924   3.357   1.992  0.5370  0.2403 -0.2702
12923SOL    HW243617   1.884   3.435   1.868  0.2305 -0.3133 -0.5238
12924SOL     OW43618   2.626   2.708   4.145  0.4703 -0.1226  0.2249
12924SOL    HW143619   2.608   2.653   4.069  0.3133  0.5839 -0.2555
12924SOL    HW243620   2.691   2.659   4.195  0.4605 -0.6643 -0.2864
12925SOL     OW43621   3.252   4.519   1.974 -0.0123 -0.1655  0.0342
12925SOL    HW143622   3.346   4.501   1.978  0.2427  0.9932 -0.4838
12925SOL    HW243623   3.222   4.511   2.064  0.6698 -0.0913  0.2714
12926SOL     OW43624   3.472   7.558   4.354 -0.6305 -0.5492  0.0221
12926SOL    HW143625   3.564   7.551   4.380  0.0415  1.1033 -1.6764
12926SOL    HW243626   3.430   7.605   4.427  0.4773  1.0375 -0.3196
12927SOL     OW43627   3.736   3.975   3.237 -0.3783  0.2473  0.1533
12927SOL    HW143628   3.797   3.907   3.264 -0.1144  0.1067 -0.7628
12927SOL    HW243629   3.762   4.052   3.287  0.5768  0.1934 -0.2442
12928SOL     OW43630   7.836   5.676   0.901  0.1470  0.3770 -0.2831
12928SOL    HW143631   7.791   5.747   0.947 -1.1913  2.2140 -3.9438
12928SOL    HW243632   7.768   5.611   0.885  0.0974  0.6137 -1.1146
12929SOL     OW43633   5.592   7.336   3.128  0.0060 -0.2750 -0.2055
12929SOL    HW143634   5.546   7.400   3.073  0.0153 -1.8544 -2.1572
12929SOL    HW243635   5.526   7.309   3.192 -0.6111  0.1966 -0.6247
12930SOL     OW43636   0.921   3.843   2.748  0.2335 -0.4396 -0.4488
12930SOL    HW143637   0.891   3.880   2.831  1.8493  0.3888 -0.1893
12930SOL    HW243638   1.016   3.859   2.748  0.4041 -1.3077 -2.0130
12931SOL     OW43639   9.657   9.303   9.552 -0.1828 -0.1499  0.5275
12931SOL    HW143640   9.616   9.264   9.475  2.1425 -0.2134 -0.7795
12931SOL    HW243641   9.681   9.228   9.607 -0.8000 -0.1708  0.7798
12932SOL     OW43642   9.151   0.249   1.520  0.6334 -0.0989  0.1696
12932SOL    HW143643   9.141   0.153   1.517 -0.9249  0.0198  0.6463
12932SOL    HW243644   9.159   0.275   1.428 -0.8155 -0.5474 -0.1136
12933SOL     OW43645   8.626   3.187   2.679 -0.0472  0.4246 -0.1100
12933SOL    HW143646   8.596   3.097   2.692 -0.3904  0.7719  1.7842
12933SOL    HW243647   8.562   3.240   2.725  0.9521  1.5260  0.0457
12934SOL     OW43648   9.360   2.993   0.323  0.7663  0.9980 -0.0240
12934SOL    HW143649   9.373   2.935   0.398 -2.4848 -3.4165 -2.3498
12934SOL    HW243650   9.438   2.980   0.269  0.2635 -1.2034 -0.3270
12935SOL     OW43651   5.059   8.682   5.697 -0.0834 -0.6677 -0.3750
12935SOL    HW143652   4.971   8.660   5.668 -0.5575 -3.0131  2.3446
12935SOL    HW243653   5.078   8.619   5.767  2.2665  2.1423  1.8227
12936SOL     OW43654   2.897   1.022   5.879  0.1263  0.0797 -0.1884
12936SOL    HW143655   2.904   1.028   5.974  0.0212  0.2594 -0.1923
12936SOL    HW243656   2.802   1.020   5.862  0.0758 -2.9580 -0.0897
12937SOL     OW43657   2.444   5.671   3.290 -0.1989  0.1511 -0.3027
12937SOL    HW143658   2.354   5.654   3.319  0.2338 -0.6946  0.5869
12937SOL    HW243659   2.439   5.758   3.250 -1.2347  0.5067  0.5373
12938SOL     OW43660   8.683   5.768   3.521  0.0058 -0.0102  0.7952
12938SOL    HW143661   8.596   5.804   3.540 -0.1136  0.5576 -0.6686
12938SOL    HW243662   8.665   5.682   3.483 -0.1072  0.8801 -1.3698
12939SOL     OW43663   5.088   3.802   5.321  0.0147  0.5963 -0.1132
12939SOL    HW143664   5.157   3.735   5.326 -1.3830 -0.8457  1.2917
12939SOL    HW243665   5.075   3.830   5.412 -1.3266  0.6991 -0.3096
12940SOL     OW43666   5.765   5.957   2.596 -0.3631 -0.2362 -0.5054
12940SOL    HW143667   5.714   6.019   2.545 -1.5763  1.3107  2.3271
12940SOL    HW243668   5.701   5.894   2.630  0.0768 -0.1488  0.5392
12941SOL     OW43669   1.124   6.313   1.120 -0.6569 -0.2784  0.6441
12941SOL    HW143670   1.077   6.238   1.082 -0.5922  0.1850 -0.4071
12941SOL    HW243671   1.056   6.379   1.135 -0.5524 -0.1249  0.4579
12942SOL     OW43672   7.978   9.131   5.667  0.4407 -0.0312  0.2239
12942SOL    HW143673   7.959   9.158   5.577  0.5993 -0.0626  0.1809
12942SOL    HW243674   8.018   9.045   5.658 -1.8924 -1.2216  0.4702
12943SOL     OW43675   4.443   9.418   1.500 -0.3321 -0.3542 -0.1797
12943SOL    HW143676   4.366   9.425   1.443  0.8617  0.3301 -1.7917
12943SOL    HW243677   4.412   9.447   1.586 -1.7320  0.5460 -0.9419
12944SOL     OW43678   6.610   7.942   0.188 -0.2488  0.2779 -0.3438
12944SOL    HW143679   6.543   7.874   0.198  0.7874 -0.6480  0.5947
12944SOL    HW243680   6.651   7.949   0.274  0.8912  0.7993 -0.8964
12945SOL     OW43681   6.794   9.431   0.495  0.3554  0.2490  0.0237
12945SOL    HW143682   6.785   9.369   0.567 -0.6420 -0.6263 -0.8222
12945SOL    HW243683   6.852   9.500   0.529  1.2199 -0.9675  1.0798
12946SOL     OW43684   6.781   7.359   5.629 -0.4406 -0.2270 -0.1758
12946SOL    HW143685   6.866   7.402   5.627 -0.7843  0.4542 -0.9179
12946SOL    HW243686   6.790   7.286   5.568 -0.3880 -0.1437 -0.2695
12947SOL     OW43687   7.620   4.300   8.497 -0.0041  0.1083 -0.3513
12947SOL    HW143688   7.700   4.345   8.472  0.6376 -1.3473 -1.0133
12947SOL    HW243689   7.552   4.367   8.493  0.9164  1.0021 -1.3183
12948SOL     OW43690   6.397   7.068   0.811 -0.4663 -0.2484 -0.1479
12948SOL    HW143691   6.351   6.984   0.806 -0.4018 -0.2355 -0.9528
12948SOL    HW243692   6.340   7.129   0.765  0.8870 -0.4682 -2.2136
12949SOL     OW43693   0.970   3.125   1.648 -0.1113  0.2969 -0.6868
12949SOL    HW143694   0.881   3.091   1.652  0.1907 -0.3934  1.3937
12949SOL    HW243695   0.979   3.179   1.726  1.5306 -0.3292 -0.3932
12950SOL     OW43696   0.184   0.029   0.138  0.4306  0.1209  0.1688
12950SOL    HW143697   0.267  -0.002   0.174  0.8915  0.9594 -0.1671
12950SOL    HW243698   0.167   0.111   0.184 -0.2140 -0.0394  0.2273
12951SOL     OW43699   0.850   0.799   7.219 -0.0479 -0.1795 -0.2620
12951SOL    HW143700   0.887   0.879   7.182 -1.2074 -0.2433 -1.6336
12951SOL    HW243701   0.924   0.738   7.222  0.3155  0.1610 -1.5581
12952SOL     OW43702   5.992   8.897   9.683 -0.0648  0.2529 -0.4583
12952SOL    HW143703   5.999   8.804   9.705  0.8317  0.8533  2.2256
12952SOL    HW243704   6.082   8.929   9.690 -0.7125  1.8275  1.5586
12953SOL     OW43705   1.496   9.745   5.197 -0.9324  0.0948  0.6616
12953SOL    HW143706   1.572   9.743   5.256 -0.6468 -1.2955  0.2738
12953SOL    HW243707   1.532   9.771   5.112 -1.0590  0.3873  0.6957
12954SOL     OW43708   5.908   9.377   0.136  0.1005 -0.1361 -0.3001
12954SOL    HW143709   5.832   9.330   0.171  0.2428  0.9558  1.6343
12954SOL    HW243710   5.904   9.463   0.178  1.7489  0.3596 -1.0823
12955SOL     OW43711   1.432   5.046   2.281 -0.0470  0.0548  0.0943
12955SOL    HW143712   1.449   5.054   2.374 -2.8089  0.9388  0.6164
12955SOL    HW243713   1.518   5.057   2.240  0.8452  3.1266  2.3627
12956SOL     OW43714   7.862   0.237   9.351 -0.6196  0.2889  0.4455
12956SOL    HW143715   7.897   0.167   9.295  0.9996 -0.2456  2.0387
12956SOL    HW243716   7.776   0.257   9.313 -0.2341 -1.0990 -1.2970
12957SOL     OW43717   4.666   3.682   8.499 -0.7508 -0.0252 -0.0672
12957SOL    HW143718   4.645   3.620   8.430 -1.3080  0.2822 -0.1852
12957SOL    HW243719   4.696   3.761   8.453  1.1512 -0.6011  0.1057
12958SOL     OW43720   3.101   3.567   4.287 -0.5165  0.1069  0.6949
12958SOL    HW143721   3.141   3.576   4.200  0.7289 -1.0212  1.1092
12958SOL    HW243722   3.056   3.483   4.283 -0.5860  0.1279  1.0850
12959SOL     OW43723   6.113   5.980   6.598 -0.5647 -0.2289 -0.3925
12959SOL    HW143724   6.151   6.019   6.519 -0.8761 -0.4095 -0.6296
12959SOL    HW243725   6.031   6.028   6.611 -0.7034 -0.4684 -0.3979
12960SOL     OW43726   0.375   2.433   2.713  0.3011  0.4212 -0.0870
12960SOL    HW143727   0.291   2.474   2.693  0.0341 -0.9973 -2.0964
12960SOL    HW243728   0.419   2.497   2.770 -2.2804  0.9756  1.4411
12961SOL     OW43729   1.889   5.592   6.819 -0.3715 -0.1076 -0.5824
12961SOL    HW143730   1.925   5.676   6.848 -0.4604 -1.3104  3.5946
12961SOL    HW243731   1.795   5.600   6.831 -0.4626 -0.5116 -1.0123
12962SOL     OW43732   7.182   8.111   4.000 -0.5773 -0.2751 -0.0201
12962SOL    HW143733   7.183   8.055   3.923  4.1358  1.3332 -1.4476
12962SOL    HW243734   7.135   8.189   3.972 -1.8655 -1.0396 -0.0487
12963SOL     OW43735   4.332   9.387   0.100  0.1700 -0.5954  0.1198
12963SOL    HW143736   4.280   9.400   0.021 -0.7410  1.8597  1.0227
12963SOL    HW243737   4.420   9.413   0.075 -0.4206  1.7392  0.2301
12964SOL     OW43738   9.626   4.232   3.387 -0.6653 -0.5536 -0.1697
12964SOL    HW143739   9.679   4.178   3.327 -1.3575 -0.7180 -0.6531
12964SOL    HW243740   9.573   4.286   3.328 -0.1198  0.5313  0.3108
12965SOL     OW43741   2.988   0.654   3.689  0.0336 -0.2193 -0.0578
12965SOL    HW143742   2.906   0.632   3.644  0.6249  1.3983 -2.0377
12965SOL    HW243743   3.052   0.667   3.619  0.7148  3.6031  1.0724
12966SOL     OW43744   0.223   5.562   7.462 -0.1118 -0.4118 -1.2494
12966SOL    HW143745   0.293   5.501   7.438  0.5533 -0.9827  1.7419
12966SOL    HW243746   0.268   5.645   7.479 -0.6830  0.2393 -2.7099
12967SOL     OW43747   7.580   4.250   3.821  0.7009 -0.4681 -0.4128
12967SOL    HW143748   7.511   4.270   3.759 -0.0479  0.3778  0.6565
12967SOL    HW243749   7.536   4.243   3.906  1.6872 -1.6194  0.0469
12968SOL     OW43750   2.304   5.179   7.040 -0.2354  0.4049 -0.0499
12968SOL    HW143751   2.357   5.126   7.100  0.8737 -0.5319 -1.7888
12968SOL    HW243752   2.367   5.235   6.996 -0.7809 -0.0677 -1.4863
12969SOL     OW43753   5.394   7.913   3.278  0.3776 -0.2719  0.1893
12969SOL    HW143754   5.376   7.821   3.265  2.3053 -0.6758  0.0147
12969SOL    HW243755   5.438   7.941   3.198  1.8064  0.1880  1.0739
12970SOL     OW43756   5.599   1.914   2.360 -0.3152  0.0706 -0.5913
12970SOL    HW143757   5.552   1.878   2.285  2.2763 -0.6859 -1.9742
12970SOL    HW243758   5.659   1.845   2.387  0.8765  1.3905  0.2990
12971SOL     OW43759   5.146   8.711   1.144  0.0627  0.3564 -0.0902
12971SOL    HW143760   5.083   8.665   1.200  0.3990 -1.6703 -1.2545
12971SOL    HW243761   5.228   8.707   1.192 -0.2042  1.0072  0.4332
12972SOL     OW43762   0.315   3.689   4.651  0.1388  0.7870  0.1315
12972SOL    HW143763   0.231   3.733   4.659 -0.8854 -0.6495 -1.8793
12972SOL    HW243764   0.346   3.712   4.563  1.0480 -0.0146  0.2230
12973SOL     OW43765   9.343   8.536   3.405 -0.2267  0.6592  0.7976
12973SOL    HW143766   9.311   8.617   3.364 -0.7667  0.7246  1.3310
12973SOL    HW243767   9.313   8.542   3.496 -0.6779 -0.3486  0.7310
12974SOL     OW43768   1.944   0.221   0.381 -0.0251  0.0693 -0.0650
12974SOL    HW143769   2.007   0.191   0.447 -0.2425  1.0636  0.6232
12974SOL    HW243770   1.867   0.166   0.395  0.3060 -0.4349 -0.1991
12975SOL     OW43771   3.559   8.607   3.426  1.2680 -0.6171 -0.1700
12975SOL    HW143772   3.562   8.698   3.456  1.1728 -0.7161  0.1518
12975SOL    HW243773   3.482   8.603   3.369  1.6371 -0.3477 -0.6954
12976SOL     OW43774   7.395   2.568   0.423  0.1819 -0.1508  0.0429
12976SOL    HW143775   7.367   2.639   0.365  1.2033 -1.0795 -1.6635
12976SOL    HW243776   7.331   2.499   0.409 -0.8178  0.3507  1.7140
12977SOL     OW43777   4.245   9.022   4.878 -0.0024  0.0275  0.2280
12977SOL    HW143778   4.243   8.941   4.827 -1.8848 -0.0640  0.3797
12977SOL    HW243779   4.334   9.025   4.914 -0.5052 -3.3243  2.2649
12978SOL     OW43780   2.488   2.955   4.142 -0.2961  0.0999  0.1303
12978SOL    HW143781   2.550   2.885   4.120 -1.0869 -0.7964  0.6796
12978SOL    HW243782   2.402   2.914   4.135 -0.7230  0.6084  1.8448
12979SOL     OW43783   2.031   0.090   8.108 -0.0230 -0.8526  0.1235
12979SOL    HW143784   2.036   0.103   8.013 -3.2813  1.0015  0.0852
12979SOL    HW243785   2.122   0.077   8.135  1.0947 -0.6397 -3.1228
12980SOL     OW43786   6.663   3.509   1.379 -0.2859  0.0330 -0.0098
12980SOL    HW143787   6.595   3.575   1.389  0.2153  0.5527  0.0745
12980SOL    HW243788   6.697   3.522   1.290  0.9111  0.9980  0.5471
12981SOL     OW43789   7.119   8.087   5.530 -0.1556  0.0738  0.3778
12981SOL    HW143790   7.082   8.170   5.500 -1.8933 -0.8430 -0.1840
12981SOL    HW243791   7.109   8.088   5.625 -2.9454 -0.6526  0.1771
12982SOL     OW43792   5.450   1.513   2.333  0.6728  0.3494  0.2968
12982SOL    HW143793   5.371   1.541   2.379  0.1337  0.5360 -0.7211
12982SOL    HW243794   5.501   1.466   2.399 -0.0215  0.7227  1.1127
12983SOL     OW43795   2.107   1.497   1.864 -0.1258  0.3927 -0.4026
12983SOL    HW143796   2.064   1.482   1.949 -0.8536  2.4625 -0.3375
12983SOL    HW243797   2.158   1.577   1.877 -1.6692  1.8011 -2.3736
12984SOL     OW43798   8.384   3.122   8.184 -0.3531 -0.1265  0.3794
12984SOL    HW143799   8.332   3.189   8.228 -1.9205 -0.0607 -1.4498
12984SOL    HW243800   8.341   3.109   8.100  0.9167 -2.2230 -0.0269
12985SOL     OW43801   9.009   0.076   0.347  0.6621  0.1011 -0.3870
12985SOL    HW143802   8.996   0.155   0.399  1.5582  0.3392 -0.5142
12985SOL    HW243803   9.073   0.024   0.396 -1.5769 -1.6541  0.8870
12986SOL     OW43804   4.211   7.066   0.954 -0.1205 -0.1167  0.1393
12986SOL    HW143805   4.249   6.978   0.948  0.0127 -0.0921  0.5778
12986SOL    HW243806   4.148   7.070   0.882  0.6334 -0.1983 -0.5441
12987SOL     OW43807   3.125   2.123   3.864  0.0533  0.7783  0.4529
12987SOL    HW143808   3.036   2.092   3.877  0.1927 -0.3122 -0.8836
12987SOL    HW243809   3.153   2.081   3.782  1.9841  0.6515  1.1279
12988SOL     OW43810   7.987   8.987   5.425 -0.3485 -0.6909 -0.3223
12988SOL    HW143811   7.973   8.967   5.333  0.6072  2.1549 -1.1800
12988SOL    HW243812   8.078   9.015   5.431 -0.6337  0.0168  1.3284
12989SOL     OW43813   2.118   0.739   9.387  0.0907  0.2851 -0.4231
12989SOL    HW143814   2.121   0.655   9.433 -1.5015  0.2799 -0.2896
12989SOL    HW243815   2.088   0.802   9.452  0.2220  0.7620 -0.8096
12990SOL     OW43816   9.115   7.058   8.801  0.1816 -0.0220 -0.2481
12990SOL    HW143817   9.126   6.964   8.815 -1.1924 -0.2635 -0.6266
12990SOL    HW243818   9.160   7.076   8.719  0.5529 -0.3246 -0.1121
12991SOL     OW43819   1.814   1.970   3.705 -0.0986 -0.2972  0.2952
12991SOL    HW143820   1.728   1.940   3.677 -0.1731 -0.0133  0.2068
12991SOL    HW243821   1.797   2.026   3.781  0.0364 -0.4864  0.4653
12992SOL     OW43822   2.510   8.110   3.896 -0.1119  0.3535  0.2575
12992SOL    HW143823   2.549   8.037   3.847 -0.8981 -0.0472  0.2097
12992SOL    HW243824   2.585   8.160   3.928  0.5680 -1.7687  2.3014
12993SOL     OW43825   5.103   2.500   8.306  0.3609 -0.1894 -0.7492
12993SOL    HW143826   5.090   2.424   8.250  0.6634  0.1616 -1.3056
12993SOL    HW243827   5.150   2.466   8.383 -1.1722 -0.9112 -0.0893
12994SOL     OW43828   8.318   7.042   4.455  0.1782  0.3080 -0.1929
12994SOL    HW143829   8.313   7.068   4.547  0.5868  2.6404 -0.7700
12994SOL    HW243830   8.411   7.043   4.435  0.0316  0.9028 -0.8974
12995SOL     OW43831   8.617   4.273   2.501 -0.2683 -0.5779 -0.1576
12995SOL    HW143832   8.677   4.311   2.437  0.2118 -2.2295 -0.7342
12995SOL    HW243833   8.530   4.293   2.467 -0.0186 -0.6483 -0.8468
12996SOL     OW43834   4.629   1.140   7.777 -0.4577  0.6787 -0.3282
12996SOL    HW143835   4.670   1.141   7.690  0.1704 -0.9460 -0.0725
12996SOL    HW243836   4.550   1.088   7.765  0.4301 -0.8961  0.3826
12997SOL     OW43837   9.043   8.334   2.408 -0.0351 -0.1032  0.1084
12997SOL    HW143838   8.991   8.257   2.432  0.2747 -0.3229  0.0739
12997SOL    HW243839   9.012   8.402   2.467  0.9414 -0.7187  1.3819
12998SOL     OW43840   3.375   1.781   4.853 -0.1893 -0.0780  0.2874
12998SOL    HW143841   3.379   1.692   4.817  3.4180 -0.4294  1.1882
12998SOL    HW243842   3.322   1.772   4.932 -1.8902 -0.8654 -0.8842
12999SOL     OW43843   1.501   7.388   4.517  0.5493 -0.3972  0.2136
12999SOL    HW143844   1.433   7.423   4.459 -0.1689 -0.9480  0.7179
12999SOL    HW243845   1.490   7.437   4.599  0.9879 -0.2482  0.1874
13000SOL     OW43846   0.246   3.415   7.273 -0.0929 -0.0512 -0.5527
13000SOL    HW143847   0.171   3.362   7.301 -0.0230  0.1687  0.0537
13000SOL    HW243848   0.235   3.423   7.178  1.4267 -3.5582 -1.1799
13001SOL     OW43849   8.508   2.819   3.371 -0.0790  0.3166 -0.4002
13001SOL    HW143850   8.510   2.811   3.276  1.0090  1.2843 -0.4762
13001SOL    HW243851   8.418   2.794   3.395  0.2849 -2.2553 -1.4214
13002SOL     OW43852   1.223   2.681   3.449  0.0015  0.5195 -0.6174
13002SOL    HW143853   1.160   2.705   3.381  0.4821  2.6390 -0.4040
13002SOL    HW243854   1.307   2.678   3.404 -0.0695 -1.1702 -0.6821
13003SOL     OW43855   6.850   4.565   3.764  0.3795  0.1854  0.2385
13003SOL    HW143856   6.758   4.575   3.738  0.9449 -2.1850 -3.3439
13003SOL    HW243857   6.898   4.617   3.700  1.6166  2.2428  2.6923
13004SOL     OW43858   1.133   6.400   9.457  0.0430 -0.2352 -1.1697
13004SOL    HW143859   1.142   6.381   9.550 -1.2605 -0.0305 -0.9817
13004SOL    HW243860   1.178   6.483   9.444 -1.7591  0.9563 -0.2168
13005SOL     OW43861   8.308   6.488   0.460 -0.5620 -0.1078 -0.5688
13005SOL    HW143862   8.289   6.528   0.544  0.7803 -1.3772  0.3843
13005SOL    HW243863   8.399   6.459   0.466 -1.3771 -3.2270 -1.1351
13006SOL     OW43864   3.235   6.291   6.400 -0.5495 -0.1397  0.3974
13006SOL    HW143865   3.288   6.243   6.464  3.7854  1.6884 -1.4514
13006SOL    HW243866   3.253   6.248   6.316  0.6347  2.3752 -0.7592
13007SOL     OW43867   2.360   7.544   3.522  0.2574 -0.5044 -0.5618
13007SOL    HW143868   2.271   7.574   3.536  0.8530  0.5291  1.2976
13007SOL    HW243869   2.375   7.555   3.428 -1.2315  0.2311 -0.7323
13008SOL     OW43870   1.965   8.225   2.958  0.0318 -0.1028  0.4210
13008SOL    HW143871   1.879   8.227   2.914  0.2909  0.8972 -0.0609
13008SOL    HW243872   2.023   8.272   2.898  0.9344 -0.7975  0.7308
13009SOL     OW43873   7.604   0.506   8.079 -0.1573 -0.3463 -0.3620
13009SOL    HW143874   7.681   0.473   8.124 -0.0971  2.9923  2.4039
13009SOL    HW243875   7.533   0.498   8.143 -1.5844 -1.0248 -1.9421
13010SOL     OW43876   5.936   7.677   3.053  0.0683  0.1050 -0.4573
13010SOL    HW143877   5.885   7.708   3.128 -0.1229 -0.9413 -0.1382
13010SOL    HW243878   6.027   7.693   3.077  0.1771 -2.3840  1.0725
13011SOL     OW43879   8.283   3.039   2.391 -0.0409 -0.2300  0.0966
13011SOL    HW143880   8.251   2.986   2.464 -1.8555  4.2317  2.9868
13011SOL    HW243881   8.210   3.096   2.370  1.9679  1.7220 -2.1328
13012SOL     OW43882   8.190   6.754   8.649  0.4385  0.6972  0.2352
13012SOL    HW143883   8.262   6.773   8.710 -0.3430  1.0206  1.0893
13012SOL    HW243884   8.231   6.751   8.563  1.5227  0.5662  0.7399
13013SOL     OW43885   2.996   8.295   7.429  0.5958 -0.0090 -0.5430
13013SOL    HW143886   2.955   8.259   7.350  0.8401 -0.4828 -0.4564
13013SOL    HW243887   3.090   8.286   7.412  0.6604 -1.3946  0.3710
13014SOL     OW43888   5.569   3.855   3.416 -0.0759  0.4961  0.0580
13014SOL    HW143889   5.531   3.768   3.418  0.1503  0.3741 -0.5241
13014SOL    HW243890   5.508   3.910   3.465 -0.1116 -0.0269  0.6095
13015SOL     OW43891   9.191   5.725   4.600  0.2345  0.3883  0.5130
13015SOL    HW143892   9.112   5.677   4.622  0.1758  0.2750  0.0660
13015SOL    HW243893   9.185   5.741   4.505 -0.2869  2.2173  0.8078
13016SOL     OW43894   4.146   0.001   7.629 -0.5097  0.1800 -0.3770
13016SOL    HW143895   4.209  -0.038   7.568 -0.9847  0.5415 -1.1089
13016SOL    HW243896   4.130  -0.068   7.694 -0.2628 -0.3379 -0.8519
13017SOL     OW43897   0.054   8.694   6.920 -0.3503  0.3922 -0.0798
13017SOL    HW143898   0.121   8.626   6.922 -0.9568 -0.2053  0.4514
13017SOL    HW243899   0.009   8.681   6.836 -0.6468 -0.0409  0.1465
13018SOL     OW43900   0.382   2.693   8.517 -0.1620  0.5505 -0.0521
13018SOL    HW143901   0.464   2.729   8.482 -0.0970  0.7506  0.3009
13018SOL    HW243902   0.378   2.726   8.607 -0.0582 -0.4008  0.3123
13019SOL     OW43903   6.221   5.774   5.797 -0.2725  0.7206  0.6963
13019SOL    HW143904   6.311   5.743   5.801 -0.7467 -0.5853  2.1425
13019SOL    HW243905   6.217   5.826   5.716  1.4866 -0.0526  0.0649
13020SOL     OW43906   3.298   8.664   2.843  0.5858 -0.5225 -0.3219
13020SOL    HW143907   3.265   8.723   2.775 -1.6683 -0.8010  0.4323
13020SOL    HW243908   3.343   8.722   2.905 -0.0574  0.1759 -0.4908
13021SOL     OW43909   1.406   3.084   3.875  0.5895 -0.0442 -0.3782
13021SOL    HW143910   1.471   3.016   3.856  0.1810  0.1459 -2.8247
13021SOL    HW243911   1.446   3.165   3.844  0.4882  0.6385  1.1860
13022SOL     OW43912   4.300   5.725   5.359  0.0097  0.0574 -0.1021
13022SOL    HW143913   4.297   5.817   5.332 -0.0251  0.2482  0.5308
13022SOL    HW243914   4.374   5.720   5.420  0.0969 -0.3643 -0.2376
13023SOL     OW43915   4.000   0.034   3.421 -0.5765  0.0637 -0.6180
13023SOL    HW143916   3.911   0.045   3.387 -0.6450  2.5747  0.1690
13023SOL    HW243917   3.998   0.073   3.508  0.6096 -2.5190  0.6758
13024SOL     OW43918   3.950   0.660   0.809 -0.1974  0.6282  0.1415
13024SOL    HW143919   3.871   0.610   0.792  0.2122 -0.2382  0.7002
13024SOL    HW243920   3.971   0.642   0.901  0.6419  0.8395  0.0026
13025SOL     OW43921   3.548   5.437   4.888  0.7625 -0.4571  0.2186
13025SOL    HW143922   3.620   5.382   4.920  1.1438  0.4157  0.8843
13025SOL    HW243923   3.541   5.507   4.952  1.2799  1.1138 -1.3663
13026SOL     OW43924   2.442   5.676   5.178 -0.0387  0.3048  0.3174
13026SOL    HW143925   2.452   5.713   5.266  0.4155  0.4694  0.2018
13026SOL    HW243926   2.439   5.752   5.120 -0.4502  0.1988  0.1973
13027SOL     OW43927   1.276   7.463   9.474 -0.0512  0.1972  0.2642
13027SOL    HW143928   1.258   7.423   9.389 -1.5125  0.5539  0.3702
13027SOL    HW243929   1.332   7.538   9.454  0.0167 -0.0040 -0.3167
13028SOL     OW43930   6.093   8.040   4.356  0.5002 -0.1013 -0.4472
13028SOL    HW143931   6.097   7.955   4.400 -0.9481 -1.3484 -2.5622
13028SOL    HW243932   6.150   8.030   4.280  1.7821  1.4989  0.2593
13029SOL     OW43933   6.745   8.540   5.679  0.0222 -0.2854  0.2544
13029SOL    HW143934   6.673   8.590   5.641  0.7654  1.0008  0.4629
13029SOL    HW243935   6.810   8.535   5.610 -0.0383 -0.9677  0.2428
13030SOL     OW43936   0.495   0.800   1.726 -0.0383  0.1198 -0.4598
13030SOL    HW143937   0.555   0.870   1.699 -0.7459  1.3030  0.8641
13030SOL    HW243938   0.511   0.790   1.820 -1.9463  0.5583 -0.0438
13031SOL     OW43939   7.716   3.689   5.454 -0.2233 -0.0137  0.5971
13031SOL    HW143940   7.668   3.656   5.530 -1.1610  0.3970  0.1855
13031SOL    HW243941   7.808   3.679   5.479 -0.5187  0.2335  1.8394
13032SOL     OW43942   3.362   5.321   8.605 -0.0865  0.1175 -0.5675
13032SOL    HW143943   3.406   5.406   8.611  0.1200  0.0708 -1.3674
13032SOL    HW243944   3.395   5.272   8.680  1.2724  0.0656 -1.1720
13033SOL     OW43945   4.234   9.090   0.291 -0.4226 -0.2977 -0.1023
13033SOL    HW143946   4.311   9.065   0.240 -0.6545 -0.9408 -0.1377
13033SOL    HW243947   4.160   9.060   0.238 -0.6988  0.2119 -0.0094
13034SOL     OW43948   0.224   2.052   4.362  0.0061  0.2519 -0.0185
13034SOL    HW143949   0.261   2.114   4.299  1.2028 -2.4476 -2.2442
13034SOL    HW243950   0.296   2.032   4.421 -0.1421  0.3914  0.2113
13035SOL     OW43951   8.760   7.233   0.088  0.4148  0.6480  0.0422
13035SOL    HW143952   8.825   7.300   0.109  1.7231 -0.8205  0.8868
13035SOL    HW243953   8.774   7.214  -0.005  0.8221  0.7270  0.0861
13036SOL     OW43954   7.587   5.342   7.746  0.8017  0.5230  0.2324
13036SOL    HW143955   7.546   5.399   7.811 -0.4927  0.0977 -0.1865
13036SOL    HW243956   7.674   5.380   7.733  0.3322  1.8076  0.6940
13037SOL     OW43957   1.237   3.944   4.578 -0.0785 -0.3720  0.0508
13037SOL    HW143958   1.145   3.926   4.561 -0.4517  1.1202  0.3268
13037SOL    HW243959   1.251   4.032   4.543  1.5518 -1.0266 -1.0602
13038SOL     OW43960   7.909   3.297   0.518  0.0605 -0.1662  0.5723
13038SOL    HW143961   7.978   3.355   0.550  2.7590 -1.7107 -1.9651
13038SOL    HW243962   7.942   3.209   0.537 -1.1908 -0.9569 -0.7399
13039SOL     OW43963   3.674   8.355   4.425  0.3620  0.7763 -0.4583
13039SOL    HW143964   3.655   8.353   4.331 -3.1617  0.3116  0.1345
13039SOL    HW243965   3.670   8.264   4.452  1.5852  0.8868  0.1620
13040SOL     OW43966   4.682   9.522   4.097  0.1333 -0.0080 -0.0546
13040SOL    HW143967   4.760   9.484   4.056 -0.0370 -1.3853  0.8139
13040SOL    HW243968   4.608   9.479   4.054 -0.1440  0.8768 -0.4840
13041SOL     OW43969   5.877   2.659   3.454 -0.0495 -0.2424 -0.1150
13041SOL    HW143970   5.926   2.727   3.501  3.3879 -1.7538 -1.2041
13041SOL    HW243971   5.906   2.666   3.364 -0.7671 -2.1950 -0.5471
13042SOL     OW43972   5.660   1.177   6.925 -0.2568 -0.2590  0.0105
13042SOL    HW143973   5.603   1.105   6.953 -0.4238  0.2079  0.9112
13042SOL    HW243974   5.656   1.240   6.997  1.0031  0.0161 -0.1327
13043SOL     OW43975   2.455   8.187   1.581 -0.5228  0.0249 -0.0880
13043SOL    HW143976   2.443   8.281   1.564  0.3778  0.2758  0.5893
13043SOL    HW243977   2.384   8.145   1.533 -0.9602  1.0575 -0.3766
13044SOL     OW43978   9.293   7.611   0.783  0.2212 -0.1102 -0.0655
13044SOL    HW143979   9.376   7.574   0.752  0.5402  0.4121  0.1400
13044SOL    HW243980   9.232   7.598   0.710  0.2237 -1.3388  0.1321
13045SOL     OW43981   8.386   1.781   2.068 -0.2341 -0.0422  0.8119
13045SOL    HW143982   8.474   1.784   2.105  0.2187 -1.3727 -0.0459
13045SOL    HW243983   8.354   1.871   2.073  1.3785  0.5774  0.6799
13046SOL     OW43984   1.769   1.780   7.086 -0.1421 -0.0990  0.3459
13046SOL    HW143985   1.696   1.727   7.054  0.0396 -0.0646 -0.1411
13046SOL    HW243986   1.802   1.732   7.162 -0.5688 -0.1962  0.4732
13047SOL     OW43987   4.032   4.764   3.354 -0.2009  0.2313  0.0006
13047SOL    HW143988   4.094   4.701   3.319 -0.1008 -0.2882  1.0601
13047SOL    HW243989   3.972   4.711   3.407 -3.0168  0.3319 -2.7835
13048SOL     OW43990   0.881   6.217   3.350 -0.7505 -0.2419  0.2946
13048SOL    HW143991   0.870   6.256   3.436 -0.0412 -0.0207  0.2958
13048SOL    HW243992   0.937   6.280   3.303 -1.5189 -0.1272 -0.4825
13049SOL     OW43993   4.708   5.874   8.454 -0.0514  0.2664 -0.7033
13049SOL    HW143994   4.703   5.784   8.486 -0.7450  1.3346  2.5494
13049SOL    HW243995   4.801   5.897   8.462  0.0488 -0.0036 -1.0738
13050SOL     OW43996   4.030   0.528   5.557 -0.1658 -0.1049  0.8985
13050SOL    HW143997   4.124   0.544   5.566  0.4306 -1.2685 -2.1269
13050SOL    HW243998   3.992   0.614   5.541  0.9872  0.0335 -1.5164
13051SOL     OW43999   1.238   7.766   0.367  0.1026 -0.4800  0.0584
13051SOL    HW144000   1.182   7.747   0.292 -1.3303 -0.1505  1.0171
13051SOL    HW244001   1.240   7.861   0.372 -0.0350 -0.5076  0.6172
13052SOL     OW44002   1.632   7.768   3.300  0.1188 -0.1812  0.2999
13052SOL    HW144003   1.685   7.699   3.260  0.0455 -1.0811  1.6873
13052SOL    HW244004   1.582   7.724   3.368 -2.8854  0.4990 -1.2651
13053SOL     OW44005   1.319   8.608   1.955 -0.4188  0.9650  0.7032
13053SOL    HW144006   1.295   8.534   1.899  0.1360  2.1281 -1.1631
13053SOL    HW244007   1.412   8.597   1.971  0.0573  2.0876 -0.9993
13054SOL     OW44008   6.750   0.436   4.050 -0.2783  0.1542  0.0811
13054SOL    HW144009   6.845   0.439   4.041 -0.2795 -0.7440 -0.3232
13054SOL    HW244010   6.730   0.505   4.113  0.4778  1.4322 -1.0388
13055SOL     OW44011   7.761   2.395   4.784 -0.2774  0.1183  0.5280
13055SOL    HW144012   7.751   2.490   4.771 -1.5979 -0.1552 -0.7381
13055SOL    HW244013   7.675   2.359   4.766  1.0017 -1.6932 -2.9080
13056SOL     OW44014   4.811   0.730   4.850  0.2142  0.0387  0.7013
13056SOL    HW144015   4.782   0.819   4.834  0.3112  0.1478  1.1092
13056SOL    HW244016   4.902   0.728   4.822 -0.3739 -0.5191 -1.3413
13057SOL     OW44017   6.939   3.541   1.406 -0.3196 -0.6137 -0.2555
13057SOL    HW144018   6.950   3.446   1.408 -2.1829 -0.8773 -0.6475
13057SOL    HW244019   6.847   3.554   1.380 -0.1078  1.2906 -0.1872
13058SOL     OW44020   0.995   5.192   9.337  0.1716  0.5224  0.0446
13058SOL    HW144021   1.004   5.270   9.283 -1.5355  1.0072  0.4057
13058SOL    HW244022   1.051   5.208   9.412 -2.8375  3.1479  1.9802
13059SOL     OW44023   2.528   5.562   8.609 -0.0341  0.1459 -0.0898
13059SOL    HW144024   2.476   5.542   8.686  0.9428 -0.1193  0.5236
13059SOL    HW244025   2.619   5.553   8.638  0.3573 -0.6281 -1.4501
13060SOL     OW44026   3.237   4.572   1.079 -0.4021 -0.0291 -0.0209
13060SOL    HW144027   3.243   4.653   1.130  1.6831 -0.6015  0.7530
13060SOL    HW244028   3.157   4.582   1.028 -0.6488  2.1558  0.6749
13061SOL     OW44029   1.016   8.177   7.283  0.3352 -0.0721  0.0366
13061SOL    HW144030   0.965   8.218   7.353  0.7243 -0.2433  0.4237
13061SOL    HW244031   1.075   8.117   7.329  0.2764 -0.5258 -0.4722
13062SOL     OW44032   8.401   5.658   6.977  0.0385  0.7138 -0.5047
13062SOL    HW144033   8.306   5.657   6.967 -0.2224  3.3054  0.8869
13062SOL    HW244034   8.434   5.638   6.889 -1.8176  1.9071 -1.5376
13063SOL     OW44035   3.094   8.961   6.465 -0.0175  0.1693  0.5923
13063SOL    HW144036   3.124   8.887   6.413  1.9888  0.7651  0.7934
13063SOL    HW244037   3.142   8.953   6.548  0.5597  1.8760  0.4665
13064SOL     OW44038   1.369   2.954   6.652 -0.2489  0.2067 -0.7174
13064SOL    HW144039   1.299   3.000   6.699 -0.6904 -0.6899 -0.4638
13064SOL    HW244040   1.448   3.004   6.670 -0.7762  1.0655 -0.7541
13065SOL     OW44041   5.551   8.820   6.115 -0.3492 -0.0375  0.0295
13065SOL    HW144042   5.460   8.810   6.090  0.4347 -1.4173 -2.6872
13065SOL    HW244043   5.582   8.731   6.132  0.5735  0.3881  0.6994
13066SOL     OW44044   3.783   8.910   7.362 -0.3381  0.7295  0.2534
13066SOL    HW144045   3.719   8.876   7.424 -0.5147 -0.8218 -0.7323
13066SOL    HW244046   3.859   8.853   7.372 -0.1411  0.8376 -0.5327
13067SOL     OW44047   3.389   9.194   7.680  0.7921  0.2155  0.1459
13067SOL    HW144048   3.356   9.114   7.721  0.3467  0.1795 -0.2846
13067SOL    HW244049   3.312   9.238   7.646  0.4794  2.6951  3.5402
13068SOL     OW44050   0.361   8.662   7.129  0.1473  0.4716 -0.0500
13068SOL    HW144051   0.349   8.603   7.055  0.3562 -0.1461  0.3998
13068SOL    HW244052   0.278   8.659   7.177  0.2394  0.3573  0.1040
13069SOL     OW44053   1.723   9.001   4.883  0.2135  0.2861 -0.5814
13069SOL    HW144054   1.728   9.080   4.830 -0.5728  0.1883 -0.8133
13069SOL    HW244055   1.633   9.001   4.917 -0.5479 -1.6318 -2.3591
13070SOL     OW44056   2.148   1.230   3.418 -0.1780 -0.5044  0.2259
13070SOL    HW144057   2.113   1.241   3.506 -1.1258 -0.8132 -0.1044
13070SOL    HW244058   2.080   1.265   3.360  0.6568  0.1982 -0.3677
13071SOL     OW44059   9.209   4.378   7.533 -0.0540 -0.1875 -0.0080
13071SOL    HW144060   9.117   4.405   7.542  0.4496  1.8665 -0.4781
13071SOL    HW244061   9.258   4.444   7.582  1.4031  0.7835 -2.5805
13072SOL     OW44062   4.197   8.186   8.440 -0.2419  0.2457 -0.4979
13072SOL    HW144063   4.127   8.167   8.378  0.1998 -2.1800 -0.3734
13072SOL    HW244064   4.274   8.201   8.385 -0.5079  1.3065 -0.5926
13073SOL     OW44065   6.749   3.261   0.324  0.5346  0.5377  0.3495
13073SOL    HW144066   6.829   3.314   0.321  1.4143 -0.7683 -0.0860
13073SOL    HW244067   6.700   3.296   0.398  0.3981  2.8813 -0.7657
13074SOL     OW44068   3.653   4.945   2.583 -0.1902  0.6270  0.1312
13074SOL    HW144069   3.639   4.961   2.676  0.8214 -0.4507  0.4884
13074SOL    HW244070   3.572   4.974   2.541 -0.1878  2.2687  1.1967
13075SOL     OW44071   7.708   7.199   8.703 -0.3176  0.9957  0.2803
13075SOL    HW144072   7.719   7.292   8.720 -0.0450  0.8557  0.9106
13075SOL    HW244073   7.778   7.177   8.641  0.7566  0.8471  1.5159
13076SOL     OW44074   6.063   7.584   4.461  0.0390 -0.4459 -0.0992
13076SOL    HW144075   6.145   7.535   4.468 -0.3492 -1.0955  0.0113
13076SOL    HW244076   6.036   7.574   4.370 -0.4374 -1.1055  0.1051
13077SOL     OW44077   0.018   3.578   8.951  0.4889  0.4996 -0.6777
13077SOL    HW144078  -0.035   3.499   8.942  1.8958 -0.8432  1.7994
13077SOL    HW244079   0.098   3.559   8.903  0.4897  0.7685 -0.7829
13078SOL     OW44080   0.878   8.269   9.058 -0.4402  0.4151  0.0142
13078SOL    HW144081   0.840   8.240   8.975  1.0824 -1.8855  0.0095
13078SOL    HW244082   0.972   8.256   9.047 -0.2445 -0.7178  2.3110
13079SOL     OW44083   1.879   0.198   4.131 -0.6513 -0.6093  0.0740
13079SOL    HW144084   1.896   0.234   4.217 -2.6311  2.5184 -0.6970
13079SOL    HW244085   1.965   0.192   4.089  0.0400  0.6712  1.2521
13080SOL     OW44086   7.861   7.975   5.432  0.0996  0.0223 -0.2028
13080SOL    HW144087   7.919   8.024   5.489 -1.8007  2.6797 -0.3789
13080SOL    HW244088   7.889   7.999   5.343  1.1938 -1.8305 -0.4105
13081SOL     OW44089   2.819   8.125   8.302  0.1344 -0.0200 -0.2573
13081SOL    HW144090   2.770   8.163   8.374 -1.1876  0.0170 -1.1435
13081SOL    HW244091   2.869   8.197   8.265  1.5617 -0.2210  1.1561
13082SOL     OW44092   5.743   3.348   2.011  0.1707 -0.3001  0.2982
13082SOL    HW144093   5.773   3.313   2.095  0.6205  0.7573  0.6120
13082SOL    HW244094   5.663   3.396   2.032 -0.3783 -1.0289 -0.0994
13083SOL     OW44095   1.190   8.225   6.750 -0.2385  0.0607 -0.2368
13083SOL    HW144096   1.118   8.250   6.692 -0.2771 -2.1553 -1.2454
13083SOL    HW244097   1.263   8.207   6.692  0.7373  0.9065  0.6784
13084SOL     OW44098   2.622   9.447   2.926 -0.1599 -0.2654  0.7905
13084SOL    HW144099   2.610   9.354   2.944 -0.5174 -0.4012 -0.0694
13084SOL    HW244100   2.691   9.449   2.859  0.0502  0.1120  1.0140
13085SOL     OW44101   9.176   0.522   7.995  0.6043 -0.0749 -0.8132
13085SOL    HW144102   9.195   0.498   7.904 -1.2791  0.0312 -1.2748
13085SOL    HW244103   9.082   0.510   8.003  0.7179  0.0967  1.0944
13086SOL     OW44104   0.014   6.828   4.203 -0.0040  0.3725  0.3352
13086SOL    HW144105  -0.016   6.900   4.258 -0.7778  1.4522 -1.4054
13086SOL    HW244106  -0.063   6.772   4.193 -0.2547  0.8464 -0.6003
13087SOL     OW44107   7.100   5.125   0.641 -0.4386  0.0153  0.0131
13087SOL    HW144108   7.068   5.215   0.635 -0.4989 -0.0595 -0.9092
13087SOL    HW244109   7.021   5.071   0.638 -0.3101 -0.1236 -0.9959
13088SOL     OW44110   4.021   5.125   5.565  0.3934 -0.2135 -0.5113
13088SOL    HW144111   4.013   5.151   5.657 -1.0977 -1.2644 -0.2832
13088SOL    HW244112   4.032   5.206   5.517 -3.1409  0.8953  0.2293
13089SOL     OW44113   1.172   5.754   6.499  0.3167 -0.0064 -0.0015
13089SOL    HW144114   1.224   5.673   6.494 -0.6269 -0.5583 -1.8384
13089SOL    HW244115   1.083   5.726   6.477 -0.1611  1.4346  0.0294
13090SOL     OW44116   5.465   4.646   9.243  0.2359 -0.0894  0.5418
13090SOL    HW144117   5.396   4.627   9.306 -0.3035  0.4228  0.1099
13090SOL    HW244118   5.498   4.732   9.268 -2.7924  2.1120 -2.2759
13091SOL     OW44119   4.003   6.772   3.536  0.1295 -0.0106  0.5212
13091SOL    HW144120   4.067   6.792   3.604  0.1180 -1.2677  0.9192
13091SOL    HW244121   4.056   6.744   3.461  0.2395  2.8178 -0.5831
13092SOL     OW44122   1.638   4.022   0.280 -0.4060 -0.4059 -0.0308
13092SOL    HW144123   1.619   3.998   0.189  0.2684  1.4276 -0.7179
13092SOL    HW244124   1.728   3.993   0.294  0.2963  1.2400 -0.7564
13093SOL     OW44125   4.524   6.444   6.533 -0.2200  0.3807  0.0586
13093SOL    HW144126   4.457   6.377   6.549  0.5239 -0.5134 -0.4672
13093SOL    HW244127   4.493   6.491   6.456 -0.3736  0.1242 -0.0388
13094SOL     OW44128   2.475   8.252   5.347  0.2621 -0.2743 -0.4215
13094SOL    HW144129   2.509   8.341   5.356  0.4144 -0.2769 -0.9398
13094SOL    HW244130   2.448   8.228   5.436 -1.6684  1.0432 -0.5964
13095SOL     OW44131   0.180   3.478   7.727  0.1392 -0.0372 -0.4530
13095SOL    HW144132   0.197   3.504   7.817  0.2128  1.0712 -0.7793
13095SOL    HW244133   0.262   3.440   7.697 -0.3427 -1.9329  0.4308
13096SOL     OW44134   4.300   1.043   5.808  0.1825  0.2944 -0.2570
13096SOL    HW144135   4.341   0.979   5.749  0.0404 -0.2258  0.2006
13096SOL    HW244136   4.303   1.125   5.760 -0.7900 -0.3016 -1.4098
13097SOL     OW44137   5.188   0.664   6.832 -0.3210  0.0547 -0.3190
13097SOL    HW144138   5.129   0.721   6.782 -0.3116  0.3816  0.0363
13097SOL    HW244139   5.265   0.718   6.850 -0.4625  0.0585  0.3304
13098SOL     OW44140   8.004   0.789   4.789  0.3537 -0.3470 -0.3361
13098SOL    HW144141   7.924   0.790   4.842  0.4185 -0.1331 -0.2414
13098SOL    HW244142   7.973   0.769   4.701  0.3438 -1.6483 -0.0593
13099SOL     OW44143   5.032   6.241   3.542 -0.2759  0.0852 -0.1843
13099SOL    HW144144   4.972   6.293   3.595  0.7563 -0.5123  1.6436
13099SOL    HW244145   5.113   6.237   3.593 -0.3710 -3.5006 -0.0869
13100SOL     OW44146   6.498   9.580   3.573  0.2022  0.2287  0.2806
13100SOL    HW144147   6.418   9.625   3.601  0.6500  0.8100  0.6529
13100SOL    HW244148   6.547   9.564   3.654 -0.3761 -1.8319  0.2756
13101SOL     OW44149   9.122   3.335   0.339  0.2120 -0.0241  0.0421
13101SOL    HW144150   9.084   3.414   0.299 -0.9015 -0.7980 -0.4823
13101SOL    HW244151   9.200   3.318   0.287  0.1059  0.3690 -0.2557
13102SOL     OW44152   8.999   3.192   2.782  1.1366  0.0181 -0.1897
13102SOL    HW144153   9.019   3.213   2.873 -1.3127  2.0229 -0.0018
13102SOL    HW244154   8.944   3.114   2.787 -1.3365  1.6912  0.3956
13103SOL     OW44155   5.143   1.761   1.518  0.0020 -0.3786 -0.5171
13103SOL    HW144156   5.153   1.748   1.423  1.2947  0.1430 -0.4764
13103SOL    HW244157   5.053   1.792   1.528 -0.7013 -2.0227 -1.3830
13104SOL     OW44158   5.476   2.726   5.206  0.0762 -0.6101 -0.1144
13104SOL    HW144159   5.414   2.665   5.167 -1.8896 -0.2150  2.1028
13104SOL    HW244160   5.529   2.672   5.265 -1.6276 -0.2993  1.8069
13105SOL     OW44161   0.594   0.774   9.121 -0.0683  0.4392 -0.3013
13105SOL    HW144162   0.687   0.754   9.109  0.0161  1.0559 -0.7216
13105SOL    HW244163   0.553   0.689   9.135  0.6935  0.2295  0.8791
13106SOL     OW44164   6.045   7.327   7.196  0.0630 -1.0200 -0.4792
13106SOL    HW144165   6.049   7.420   7.219  0.3756 -1.2426  0.3907
13106SOL    HW244166   6.046   7.326   7.100  0.2294 -0.1338 -0.4939
13107SOL     OW44167   8.148   7.050   8.837 -0.3776  0.4719  0.3237
13107SOL    HW144168   8.053   7.044   8.824 -0.1496 -1.8032 -0.6840
13107SOL    HW244169   8.167   6.984   8.903  0.8214 -1.0764 -1.5126
13108SOL     OW44170   7.026   4.438   0.628 -0.2443  0.1273  0.0970
13108SOL    HW144171   7.054   4.347   0.627  1.4622  0.5434  2.4512
13108SOL    HW244172   7.095   4.485   0.582  0.9929  0.6416  2.3234
13109SOL     OW44173   5.257   9.703   4.257 -0.2491  0.1430  0.2982
13109SOL    HW144174   5.279   9.630   4.200 -1.4277 -1.3167  1.6425
13109SOL    HW244175   5.341   9.730   4.295 -0.0267 -2.0128  1.4857
13110SOL     OW44176   2.773   1.959   6.252 -0.3648  0.1282  0.3144
13110SOL    HW144177   2.795   1.898   6.322  1.3424  0.0865 -0.2100
13110SOL    HW244178   2.699   2.009   6.286  0.5812  0.3031  2.2867
13111SOL     OW44179   2.384   3.382   3.549 -0.4280  0.0266 -0.3448
13111SOL    HW144180   2.437   3.310   3.516  0.1084 -0.0634  0.6701
13111SOL    HW244181   2.446   3.454   3.560 -0.9937  0.7401 -1.5655
13112SOL     OW44182   8.901   0.228   8.043  0.0226 -0.4644  0.7894
13112SOL    HW144183   8.914   0.320   8.018 -1.4610 -0.6084 -0.6440
13112SOL    HW244184   8.970   0.211   8.107  0.4204  1.6045  0.9723
13113SOL     OW44185   7.328   4.680   9.634  0.2032  0.5238  0.3470
13113SOL    HW144186   7.420   4.668   9.610  1.1263  2.0700  2.7299
13113SOL    HW244187   7.329   4.688   9.729 -2.2018  2.1015  0.3242
13114SOL     OW44188   0.273   2.036   2.337 -0.5373  0.1956  0.1202
13114SOL    HW144189   0.271   2.089   2.417 -0.4194 -0.7371  0.7588
13114SOL    HW244190   0.315   2.093   2.272 -4.4194  2.6695 -0.5710
13115SOL     OW44191   9.212   0.188   0.643 -0.0939  0.2497  0.2568
13115SOL    HW144192   9.231   0.126   0.713  0.9993  0.0587 -0.1942
13115SOL    HW244193   9.150   0.250   0.683 -2.3350 -1.8619  0.2996
13116SOL     OW44194   8.052   7.846   5.251  0.5289 -0.2951  0.1312
13116SOL    HW144195   7.966   7.809   5.230  0.1605 -0.5517  1.9261
13116SOL    HW244196   8.111   7.809   5.186 -0.8781  0.7315 -1.8322
13117SOL     OW44197   1.072   6.985   0.845  0.2646 -0.1040 -0.0080
13117SOL    HW144198   1.022   6.936   0.780  2.3345  0.1360 -1.8903
13117SOL    HW244199   1.006   7.030   0.897 -1.4783 -0.2131 -2.0098
13118SOL     OW44200   8.758   5.188   6.276  0.2324 -0.0027  0.0097
13118SOL    HW144201   8.818   5.119   6.247  0.1476  0.1078 -0.4266
13118SOL    HW244202   8.727   5.158   6.362 -0.3692 -0.8661 -0.4952
13119SOL     OW44203   5.243   4.011   8.804 -0.5315 -0.8293 -0.4038
13119SOL    HW144204   5.246   3.937   8.864 -1.1552 -0.7723 -0.2975
13119SOL    HW244205   5.283   3.978   8.723  1.0819 -0.6619  0.2874
13120SOL     OW44206   6.544   2.604   8.536  0.4540 -0.0239  0.2462
13120SOL    HW144207   6.542   2.645   8.623  1.3745 -2.4231  1.5040
13120SOL    HW244208   6.612   2.651   8.488  0.7427  0.5945  1.2331
13121SOL     OW44209   1.115   9.002   0.076  0.2496  0.4285  0.2269
13121SOL    HW144210   1.032   9.045   0.053  1.2250  2.3928  0.1786
13121SOL    HW244211   1.097   8.960   0.160 -1.6359 -1.7694 -1.1556
13122SOL     OW44212   0.530   5.608   2.815  0.3352 -0.0609  0.0424
13122SOL    HW144213   0.436   5.626   2.810  0.7948  2.6349 -0.5690
13122SOL    HW244214   0.546   5.589   2.907 -0.6755  0.2541  0.3013
13123SOL     OW44215   4.138   5.291   7.204  0.3214  0.3474 -0.7327
13123SOL    HW144216   4.110   5.252   7.121  1.9491 -1.4586 -0.4984
13123SOL    HW244217   4.059   5.292   7.258 -0.7011  1.2881 -2.1621
13124SOL     OW44218   9.620   8.976   0.470  0.0109  0.6899 -0.0461
13124SOL    HW144219   9.633   8.982   0.375  2.2984 -0.6309  0.1013
13124SOL    HW244220   9.699   9.016   0.507 -2.1480  3.8835  1.4382
13125SOL     OW44221   6.417   8.806   4.993 -0.0051 -0.2308  0.2391
13125SOL    HW144222   6.473   8.752   5.048  5.7039  3.4440 -1.2057
13125SOL    HW244223   6.424   8.766   4.906 -1.6196 -0.9236  0.3815
13126SOL     OW44224   2.526   3.555   1.185  0.6606 -0.3626 -0.1692
13126SOL    HW144225   2.576   3.521   1.111  1.3671  0.1373  0.0688
13126SOL    HW244226   2.538   3.650   1.180 -1.2598 -0.1199 -0.8089
13127SOL     OW44227   4.658   7.616   6.414  0.4041 -0.0789 -0.1683
13127SOL    HW144228   4.709   7.577   6.485  1.5553  0.3631 -0.7291
13127SOL    HW244229   4.588   7.663   6.458  1.8647  1.2983  0.7751
13128SOL     OW44230   8.006   7.862   2.163  0.1137 -0.5265 -0.0488
13128SOL    HW144231   7.917   7.828   2.164 -0.7470  1.3502 -2.9002
13128SOL    HW244232   8.042   7.833   2.079  2.2914 -1.2936  1.0634
13129SOL     OW44233   4.080   3.076   1.706  0.1710 -0.4842  0.1143
13129SOL    HW144234   4.117   3.112   1.626 -0.3106  0.5631  0.3478
13129SOL    HW244235   4.075   3.150   1.766 -0.8253 -0.9264  0.6132
13130SOL     OW44236   8.143   2.721   9.408  0.0878 -0.8327 -0.5000
13130SOL    HW144237   8.087   2.666   9.462  0.5001  0.9685  1.8997
13130SOL    HW244238   8.094   2.803   9.399  0.6061 -0.6417 -1.7979
13131SOL     OW44239   6.455   0.329   3.697  0.4308 -0.3874  0.1610
13131SOL    HW144240   6.489   0.275   3.768 -1.1763 -1.5989  0.0766
13131SOL    HW244241   6.476   0.419   3.723  0.3486 -0.8412  1.9261
13132SOL     OW44242   8.986   0.727   8.823  0.0923  0.5205  0.5328
13132SOL    HW144243   8.935   0.749   8.745 -0.6452  2.2428  1.4463
13132SOL    HW244244   9.076   0.719   8.792 -0.6145 -2.4690 -1.0998
13133SOL     OW44245   7.475   2.284   8.171 -0.6145  0.5133 -0.0405
13133SOL    HW144246   7.554   2.318   8.213 -0.3550  1.5047 -1.2834
13133SOL    HW244247   7.409   2.285   8.240 -0.3380  2.5981  0.2612
13134SOL     OW44248   7.999   5.596   1.105 -0.0298  0.5410 -0.2868
13134SOL    HW144249   8.034   5.681   1.132 -2.5109  1.1330  1.3206
13134SOL    HW244250   7.924   5.617   1.050  0.3352 -0.6674 -1.3041
13135SOL     OW44251   4.268   1.954   8.699  0.4820 -0.1249 -0.3723
13135SOL    HW144252   4.175   1.933   8.698  0.3745  0.2112  0.7336
13135SOL    HW244253   4.312   1.869   8.692  0.0647 -0.5782  1.7249
13136SOL     OW44254   2.423   1.443   3.294  0.0938 -0.1908 -0.2243
13136SOL    HW144255   2.428   1.379   3.223 -0.0624 -1.4260  0.8320
13136SOL    HW244256   2.469   1.520   3.261 -0.8330 -0.3633 -2.0251
13137SOL     OW44257   5.996   3.794   9.044  0.8946  0.1179 -0.6188
13137SOL    HW144258   6.066   3.787   8.980  1.1212 -2.0250 -0.1927
13137SOL    HW244259   5.974   3.704   9.067 -0.6547  0.7763  0.7337
13138SOL     OW44260   4.979   4.206   1.996  0.3644 -0.1545  0.3953
13138SOL    HW144261   5.016   4.165   2.075  0.5162  0.3770  0.6088
13138SOL    HW244262   4.885   4.206   2.011  0.3400 -0.6593  0.2732
13139SOL     OW44263   5.785   9.527   8.611 -0.4198 -0.0276  0.0809
13139SOL    HW144264   5.780   9.433   8.630  1.2528  0.3171  2.7024
13139SOL    HW244265   5.830   9.532   8.527 -0.4304 -1.5506 -0.0406
13140SOL     OW44266   7.319   1.302   2.084  0.4522  0.4085 -0.2885
13140SOL    HW144267   7.355   1.329   2.000  0.9179  0.1280 -0.1845
13140SOL    HW244268   7.380   1.338   2.149  0.2024  0.4622 -0.0819
13141SOL     OW44269   1.207   3.069   5.620 -0.5032 -0.2186 -0.3222
13141SOL    HW144270   1.235   2.978   5.622 -0.1395 -0.1053 -0.2221
13141SOL    HW244271   1.252   3.106   5.544  0.1448  0.1298  0.2196
13142SOL     OW44272   6.698   5.382   1.348 -0.1394  1.3086  0.9653
13142SOL    HW144273   6.738   5.363   1.433  2.5716  0.8396 -0.2957
13142SOL    HW244274   6.660   5.299   1.320 -0.0406  1.1728  1.2266
13143SOL     OW44275   8.870   2.453   4.943 -0.1919 -0.0286  0.2930
13143SOL    HW144276   8.929   2.450   4.868  0.6499 -0.9881  0.9634
13143SOL    HW244277   8.859   2.361   4.968 -1.3763  0.1979  0.6381
13144SOL     OW44278   2.944   0.053   6.208  0.3995  0.1634 -0.4571
13144SOL    HW144279   2.893   0.082   6.285  0.7883 -0.1895 -0.0627
13144SOL    HW244280   2.898   0.091   6.134 -0.7334 -0.5443 -0.1439
13145SOL     OW44281   3.108   7.726   9.014  0.3212  0.4957  0.5205
13145SOL    HW144282   3.013   7.724   9.027  0.2210  0.8499 -0.1141
13145SOL    HW244283   3.121   7.688   8.927  0.7926  0.0857  0.7687
13146SOL     OW44284   6.172   4.050   0.410  0.1033  0.0850 -0.1785
13146SOL    HW144285   6.096   3.997   0.435 -0.5730  1.3254  0.5382
13146SOL    HW244286   6.232   4.042   0.483 -0.5800  1.3161  0.5665
13147SOL     OW44287   3.992   8.568   1.839 -0.5566 -0.1380  0.6398
13147SOL    HW144288   3.938   8.541   1.913 -1.4497  0.3763  0.1860
13147SOL    HW244289   4.024   8.486   1.802 -0.7576 -0.4337  1.1078
13148SOL     OW44290   7.058   0.060   4.529 -0.2206  0.3077  0.3181
13148SOL    HW144291   7.031   0.146   4.498 -0.1886  0.2126  0.0220
13148SOL    HW244292   7.138   0.041   4.479 -0.7526 -0.3073 -0.3117
13149SOL     OW44293   0.054   9.709   9.414  0.5475  0.1870 -0.1886
13149SOL    HW144294   0.086   9.780   9.358 -0.9216 -0.8598 -2.5392
13149SOL    HW244295   0.030   9.751   9.496 -3.5729  3.2640 -2.5840
13150SOL     OW44296   7.893   1.801   5.954  0.2358  0.2523 -0.1820
13150SOL    HW144297   7.954   1.764   6.018  0.4600  1.2538  0.2027
13150SOL    HW244298   7.877   1.890   5.986  0.1580  0.6791 -1.3840
13151SOL     OW44299   0.062   1.949   1.163 -0.3656 -0.0485 -0.4455
13151SOL    HW144300   0.057   1.875   1.224 -0.7635 -1.2002 -1.8313
13151SOL    HW244301  -0.020   1.997   1.176 -0.1175  0.1668  0.4348
13152SOL     OW44302   4.513   4.485   0.086  0.2622  0.2613 -0.1256
13152SOL    HW144303   4.483   4.493  -0.005  0.9116  1.7015 -0.2478
13152SOL    HW244304   4.505   4.573   0.122  1.6642  0.0951  0.6721
13153SOL     OW44305   5.053   1.790   5.950 -0.1339  0.5127 -0.2132
13153SOL    HW144306   5.084   1.859   6.009 -0.7950 -1.8853  3.2751
13153SOL    HW244307   4.965   1.818   5.925 -0.2531  1.1530  0.8422
13154SOL     OW44308   7.477   5.328   0.280  0.0597  0.0944  0.5744
13154SOL    HW144309   7.423   5.326   0.359  1.5408 -0.1874  1.6200
13154SOL    HW244310   7.482   5.236   0.252 -0.9341  0.2585 -0.2155
13155SOL     OW44311   3.427   0.224   0.287 -0.2002  0.1007 -0.3643
13155SOL    HW144312   3.516   0.250   0.311 -0.3600 -0.9429  1.5857
13155SOL    HW244313   3.404   0.156   0.351 -1.1866 -2.0697 -2.8537
13156SOL     OW44314   1.918   0.725   1.165 -0.2412 -0.4091  0.0102
13156SOL    HW144315   1.893   0.814   1.188 -0.3895  0.0399 -1.7568
13156SOL    HW244316   1.962   0.692   1.243  0.8353  1.5989  0.3200
13157SOL     OW44317   2.351   3.554   5.442  0.1062 -0.2598  0.4031
13157SOL    HW144318   2.366   3.649   5.446 -2.1864  0.1309  1.5629
13157SOL    HW244319   2.438   3.516   5.445  1.1246  1.8133 -0.6965
13158SOL     OW44320   9.555   1.923   0.040  0.2239 -0.5154 -0.0398
13158SOL    HW144321   9.536   1.833   0.069 -0.0233 -1.1342 -1.9596
13158SOL    HW244322   9.482   1.974   0.075 -0.2870 -1.2823  0.0526
13159SOL     OW44323   7.272   7.291   2.144  0.1904 -0.7555 -0.4074
13159SOL    HW144324   7.368   7.291   2.151  0.1960  0.0877 -0.3683
13159SOL    HW244325   7.247   7.381   2.164 -0.6661 -1.1375  0.3114
13160SOL     OW44326   0.623   6.148   9.177  0.2431  0.0273  0.0466
13160SOL    HW144327   0.633   6.203   9.099 -0.0674 -1.4044 -1.0396
13160SOL    HW244328   0.709   6.108   9.190  0.5019  0.8224  0.9041
13161SOL     OW44329   1.690   8.772   2.018 -0.4968 -0.2057  0.0186
13161SOL    HW144330   1.666   8.705   2.083  0.5829  0.0716  0.7421
13161SOL    HW244331   1.765   8.817   2.057 -1.0895  1.3237 -0.5328
13162SOL     OW44332   3.196   5.674   1.429 -0.4591  0.1391  0.2602
13162SOL    HW144333   3.156   5.760   1.437  0.7487  0.7512 -0.0795
13162SOL    HW244334   3.127   5.619   1.392 -0.8711  1.2538 -0.6846
13163SOL     OW44335   7.321   7.705   9.349  0.1535  0.3155  0.0889
13163SOL    HW144336   7.251   7.690   9.285  0.2974  1.5029 -0.3715
13163SOL    HW244337   7.285   7.675   9.432 -0.1411 -0.9958 -0.4807
13164SOL     OW44338   4.886   8.954   4.252 -0.3662 -0.3040  0.0623
13164SOL    HW144339   4.836   8.965   4.170 -0.0927 -1.5065 -0.2794
13164SOL    HW244340   4.868   8.864   4.279  0.8412 -0.4433  0.4542
13165SOL     OW44341   9.723   4.141   6.348  0.5129  0.3813 -0.0233
13165SOL    HW144342   9.729   4.095   6.431 -1.4544  1.1954  0.6477
13165SOL    HW244343   9.692   4.229   6.371 -0.7434  0.4166 -1.6380
13166SOL     OW44344   4.817   8.658   7.697 -0.0187 -0.2530 -0.0851
13166SOL    HW144345   4.760   8.720   7.742 -1.2992 -1.7727  0.4919
13166SOL    HW244346   4.904   8.699   7.699 -0.7112  1.2637  0.7114
13167SOL     OW44347   1.451   6.076   6.040 -0.5815  0.3809  0.7002
13167SOL    HW144348   1.534   6.067   6.088  0.1560  0.0153 -0.6093
13167SOL    HW244349   1.389   6.024   6.092  0.4436 -0.8889  0.7133
13168SOL     OW44350   9.307   2.989   7.763  0.5534 -0.4008 -0.4714
13168SOL    HW144351   9.288   2.908   7.810 -1.1182  0.1427 -0.1537
13168SOL    HW244352   9.393   2.974   7.724  2.6563 -0.4483  3.7082
13169SOL     OW44353   3.066   5.182   4.925 -0.1977 -0.1281 -0.1224
13169SOL    HW144354   3.113   5.184   4.842 -0.5578 -0.2440 -0.3330
13169SOL    HW244355   3.035   5.272   4.938  1.7498  0.4372  1.0023
13170SOL     OW44356   0.164   4.299   6.260 -0.6608  0.7168 -0.3756
13170SOL    HW144357   0.168   4.346   6.343  2.1545 -2.3220  1.4527
13170SOL    HW244358   0.082   4.250   6.265 -0.4857  0.5022  0.6684
13171SOL     OW44359   8.989   7.417   2.910 -0.1697 -0.2760 -0.2282
13171SOL    HW144360   8.921   7.455   2.966 -0.8769 -1.8122  0.0039
13171SOL    HW244361   9.036   7.356   2.967  1.2766  0.5679 -0.4521
13172SOL     OW44362   7.095   2.865   2.720  0.5033 -0.1080 -0.3054
13172SOL    HW144363   7.029   2.928   2.691  0.3781 -0.5407 -0.9759
13172SOL    HW244364   7.178   2.901   2.689  0.4673 -0.0982 -0.3909
13173SOL     OW44365   9.578   6.093   9.023  0.4532  0.2528 -0.1499
13173SOL    HW144366   9.568   6.001   9.050  0.8571  0.2273 -0.0719
13173SOL    HW244367   9.508   6.107   8.960  1.0154 -0.4224 -0.9517
13174SOL     OW44368   9.289   4.031   0.778  0.2722 -0.0256  0.0282
13174SOL    HW144369   9.221   4.006   0.841  0.7605 -1.2496  0.1009
13174SOL    HW244370   9.330   3.948   0.753 -0.9661  0.2079 -3.1719
13175SOL     OW44371   2.006   3.623   4.586 -0.1751  0.1650  0.2766
13175SOL    HW144372   2.080   3.678   4.611 -0.8648  0.9215  0.6918
13175SOL    HW244373   2.044   3.558   4.526  0.4002  2.0894 -1.5910
13176SOL     OW44374   6.456   6.120   7.754  0.5063 -0.0111  0.4591
13176SOL    HW144375   6.383   6.058   7.745 -0.3522  0.9426  0.6767
13176SOL    HW244376   6.534   6.069   7.732 -0.0526 -1.4732  1.6848
13177SOL     OW44377   6.105   5.424   8.951 -0.6511  0.1117  0.2595
13177SOL    HW144378   6.046   5.375   9.009  0.9126 -0.3251  1.5894
13177SOL    HW244379   6.193   5.395   8.978  0.1737 -0.3971 -2.6291
13178SOL     OW44380   4.656   7.357   4.979  0.1596 -0.6619 -0.0653
13178SOL    HW144381   4.646   7.272   4.936 -1.3963  0.1677 -1.4654
13178SOL    HW244382   4.672   7.418   4.908 -1.7591  0.6547  0.5679
13179SOL     OW44383   0.599   6.763   5.310  0.0423  0.8799 -0.6397
13179SOL    HW144384   0.542   6.828   5.351 -0.8307 -0.3620  0.1875
13179SOL    HW244385   0.551   6.681   5.318  1.3862  0.0186 -1.1089
13180SOL     OW44386   0.891   5.193   4.495  0.0257 -0.2274 -0.2393
13180SOL    HW144387   0.899   5.158   4.406  2.0293  0.5735 -0.4082
13180SOL    HW244388   0.846   5.277   4.483 -2.8457 -1.6210 -0.0578
13181SOL     OW44389   5.139   7.711   2.670  0.0787 -0.5507  0.5187
13181SOL    HW144390   5.061   7.728   2.619  1.1240  1.9969 -0.3888
13181SOL    HW244391   5.108   7.665   2.748 -2.0482 -1.1315 -0.6193
13182SOL     OW44392   5.537   8.923   0.799 -0.1866  0.2663  0.0325
13182SOL    HW144393   5.581   8.980   0.736  1.0356 -2.2265 -1.5517
13182SOL    HW244394   5.572   8.948   0.884  2.2366  0.2584 -0.8823
13183SOL     OW44395   8.208   3.074   2.131 -0.1521 -0.4513  0.0699
13183SOL    HW144396   8.138   3.139   2.141 -1.1880 -1.7775  2.2406
13183SOL    HW244397   8.164   2.997   2.094  0.5340 -0.7489 -0.1378
13184SOL     OW44398   4.911   8.127   1.453  0.4907  0.5818  0.3763
13184SOL    HW144399   4.942   8.142   1.363  1.8951 -2.0566  0.3064
13184SOL    HW244400   4.853   8.051   1.446  0.4646  0.4654  1.6759
13185SOL     OW44401   9.375   0.952   3.545  0.0130 -0.4851 -0.2797
13185SOL    HW144402   9.441   0.900   3.590  0.1785 -0.0461 -0.0111
13185SOL    HW244403   9.379   1.038   3.586 -0.7876 -0.4758 -0.1976
13186SOL     OW44404   6.256   6.160   0.871  0.7856 -0.0863 -0.5804
13186SOL    HW144405   6.308   6.221   0.819  0.8465  0.6489  0.3137
13186SOL    HW244406   6.173   6.206   0.886  1.7722  0.9859  2.3333
13187SOL     OW44407   2.460   7.716   8.319  0.3800 -0.3560 -0.1294
13187SOL    HW144408   2.467   7.647   8.386  2.6648  0.5028  0.6446
13187SOL    HW244409   2.537   7.702   8.263 -1.0695 -0.5616 -2.1601
13188SOL     OW44410   8.902   1.350   5.940 -0.2465  0.6108 -0.1115
13188SOL    HW144411   8.864   1.267   5.912  1.0307 -0.1559  0.3072
13188SOL    HW244412   8.827   1.405   5.962 -1.1107 -1.0171  1.2541
13189SOL     OW44413   0.042   4.247   7.037  0.2995 -0.0057  0.4289
13189SOL    HW144414   0.022   4.202   7.119 -1.2366  0.4925  0.3550
13189SOL    HW244415   0.041   4.340   7.060 -0.2691  0.1436 -0.1754
13190SOL     OW44416   7.093   2.261   7.466  0.3112  0.2404  0.5045
13190SOL    HW144417   7.052   2.336   7.508  0.4719 -0.5833  2.2374
13190SOL    HW244418   7.160   2.298   7.409 -0.7789  1.4635 -0.0111
13191SOL     OW44419   0.603   2.429   0.042 -0.2356 -0.1899 -0.1923
13191SOL    HW144420   0.692   2.426   0.077 -0.2214  1.0798 -0.0707
13191SOL    HW244421   0.589   2.342   0.004  1.0600 -0.4010 -0.2289
13192SOL     OW44422   4.872   3.973   8.478  0.0885  0.2165  0.0736
13192SOL    HW144423   4.951   4.016   8.445  1.3176 -0.0986  2.3702
13192SOL    HW244424   4.828   4.040   8.530  0.0690 -0.2395  0.6604
13193SOL     OW44425   6.947   0.118   9.584 -0.6740 -0.5482 -0.2951
13193SOL    HW144426   7.007   0.166   9.527  0.6704 -0.2295  1.3055
13193SOL    HW244427   6.902   0.056   9.526 -0.8096  1.0813 -2.0131
13194SOL     OW44428   1.379   8.865   1.604 -0.4468  0.3220  0.8240
13194SOL    HW144429   1.319   8.903   1.668 -0.5847  1.0410  0.2855
13194SOL    HW244430   1.431   8.803   1.654 -0.0322  1.4165  1.7951
13195SOL     OW44431   8.303   6.336   2.487 -0.3681  0.5667 -0.3638
13195SOL    HW144432   8.263   6.415   2.524 -1.6310  0.6021 -1.7134
13195SOL    HW244433   8.250   6.316   2.410  0.3134 -1.2486 -0.4097
13196SOL     OW44434   0.429   7.378   9.234 -0.1547 -0.0762  0.3643
13196SOL    HW144435   0.375   7.300   9.219  1.3620 -1.1430  0.2806
13196SOL    HW244436   0.365   7.450   9.239 -1.6635 -1.4186  1.3657
13197SOL     OW44437   8.510   9.123   2.054  0.0918 -0.0589  0.3305
13197SOL    HW144438   8.563   9.061   2.103 -1.5994 -0.3634  1.8680
13197SOL    HW244439   8.428   9.129   2.103 -0.5586  1.8767 -0.8737
13198SOL     OW44440   1.228   8.646   2.224  0.4267 -0.1801 -0.2120
13198SOL    HW144441   1.167   8.673   2.293  0.9513  0.0251  0.1794
13198SOL    HW244442   1.223   8.716   2.159  1.3587  0.6192  0.5320
13199SOL     OW44443   6.170   5.542   1.421 -0.3172  0.5170 -0.0057
13199SOL    HW144444   6.145   5.559   1.512  1.6803 -2.0888  1.1588
13199SOL    HW244445   6.255   5.585   1.411  1.2473 -2.1950  0.6592
13200SOL     OW44446   7.750   5.087   4.399  0.0810 -0.5203  0.1251
13200SOL    HW144447   7.805   5.052   4.329  0.0756  0.0049 -0.1485
13200SOL    HW244448   7.754   5.182   4.387 -1.6135 -0.5004 -0.4585
13201SOL     OW44449   2.623   8.729   7.731  0.0314 -0.1480 -0.3829
13201SOL    HW144450   2.657   8.805   7.683  1.1210 -0.8448 -0.7487
13201SOL    HW244451   2.563   8.767   7.795 -0.4860  0.9116 -1.4477
13202SOL     OW44452   0.378   9.418   6.686  0.4037 -0.2637 -0.1758
13202SOL    HW144453   0.473   9.427   6.682  0.5140 -1.5716 -0.9939
13202SOL    HW244454   0.363   9.352   6.753  0.1718 -1.2274 -1.1568
13203SOL     OW44455   5.826   4.145   8.250 -0.5739 -0.3522 -0.0138
13203SOL    HW144456   5.875   4.227   8.240 -0.1011 -0.3669  1.8405
13203SOL    HW244457   5.887   4.086   8.295 -1.0036 -1.6651 -1.0705
13204SOL     OW44458   0.823   5.105   2.310 -0.4976  0.5083  0.5868
13204SOL    HW144459   0.902   5.151   2.280 -0.7850  1.1109  0.7360
13204SOL    HW244460   0.813   5.133   2.402 -0.7197  0.2083  0.6535
13205SOL     OW44461   1.911   4.503   8.904 -0.1575 -0.3519  0.1696
13205SOL    HW144462   1.881   4.475   8.990  0.1361 -1.1041  0.0361
13205SOL    HW244463   1.934   4.595   8.915 -0.8425 -0.2390  0.7015
13206SOL     OW44464   2.784   4.069   4.773  0.3490 -0.4392  0.1633
13206SOL    HW144465   2.717   4.033   4.830 -0.1114 -3.4055 -2.0117
13206SOL    HW244466   2.860   4.012   4.785  1.1300  0.4907 -0.2365
13207SOL     OW44467   0.141   7.145   5.647  0.1723 -0.4687  0.4887
13207SOL    HW144468   0.170   7.158   5.737 -0.6482 -0.8807  0.8251
13207SOL    HW244469   0.217   7.168   5.594  1.4046 -2.2085  1.3605
13208SOL     OW44470   0.110   3.041   6.118 -0.2490 -0.5241 -0.1914
13208SOL    HW144471   0.164   3.106   6.163  0.8574 -1.5275 -0.0293
13208SOL    HW244472   0.023   3.052   6.157  0.4460 -0.6768  1.5142
13209SOL     OW44473   0.763   8.668   9.052 -0.0969  0.2923 -0.1850
13209SOL    HW144474   0.792   8.708   9.134  0.4736  1.1937 -0.8034
13209SOL    HW244475   0.826   8.700   8.987 -1.3825  0.7839 -1.2293
13210SOL     OW44476   2.385   0.637   0.118  0.2111  0.3689 -0.3681
13210SOL    HW144477   2.470   0.664   0.083  0.3577 -1.4048 -1.5052
13210SOL    HW244478   2.405   0.560   0.172 -0.5651  0.4811  0.0976
13211SOL     OW44479   4.605   2.908   3.728 -0.0368  0.2728 -0.0730
13211SOL    HW144480   4.523   2.919   3.776 -0.1267 -1.3269  0.2091
13211SOL    HW244481   4.604   2.977   3.662 -2.5695 -0.8859 -1.3995
13212SOL     OW44482   7.838   2.706   9.389  0.8631  0.2572  0.0073
13212SOL    HW144483   7.859   2.732   9.300  3.1348  1.6713  0.8593
13212SOL    HW244484   7.876   2.775   9.444  2.1160 -1.9767  2.1693
13213SOL     OW44485   5.218   8.897   5.267 -0.3167  0.1159 -0.3842
13213SOL    HW144486   5.278   8.823   5.254 -1.9005 -1.3486  0.2774
13213SOL    HW244487   5.210   8.905   5.362 -2.1974 -0.6459 -0.4340
13214SOL     OW44488   8.207   7.239   3.037 -0.7261 -0.2058  0.1647
13214SOL    HW144489   8.136   7.275   2.984 -0.2845 -0.6434 -0.7377
13214SOL    HW244490   8.200   7.144   3.025 -0.6004 -0.3071  0.8660
13215SOL     OW44491   2.455   8.348   9.319  0.6079  0.2670 -0.0898
13215SOL    HW144492   2.448   8.280   9.386 -2.0177 -2.0467 -2.4164
13215SOL    HW244493   2.369   8.390   9.319  0.7616  0.6283 -1.5176
13216SOL     OW44494   8.264   5.453   2.414  1.1599 -0.4629  0.1667
13216SOL    HW144495   8.190   5.418   2.464 -0.2486  1.6082 -0.3473
13216SOL    HW244496   8.265   5.547   2.434 -0.4730  0.8856 -4.6896
13217SOL     OW44497   3.333   7.168   4.191 -0.6165  0.1510  0.1326
13217SOL    HW144498   3.327   7.135   4.281 -0.9265 -1.5294 -0.4707
13217SOL    HW244499   3.407   7.121   4.153 -0.0744  1.3260 -0.3251
13218SOL     OW44500   0.071   3.626   1.124  0.6615 -0.0874 -0.1402
13218SOL    HW144501   0.039   3.704   1.168  0.3470 -0.5391  0.4357
13218SOL    HW244502   0.161   3.648   1.098  0.4878  0.5532 -0.2233
13219SOL     OW44503   6.219   5.907   4.279 -0.3128  0.0584 -0.3440
13219SOL    HW144504   6.202   5.966   4.352 -1.5583 -1.0732  0.3270
13219SOL    HW244505   6.171   5.945   4.205  1.4731  1.5600 -0.8303
13220SOL     OW44506   0.963   8.174   4.528  0.5451  0.1305 -0.1610
13220SOL    HW144507   1.055   8.202   4.536  1.0297 -1.7185  1.3775
13220SOL    HW244508   0.933   8.162   4.618 -0.8340 -0.4953 -0.6750
13221SOL     OW44509   6.255   1.392   8.352 -0.2878 -0.3894 -0.0591
13221SOL    HW144510   6.310   1.438   8.415 -1.1643 -0.2153  0.5866
13221SOL    HW244511   6.257   1.447   8.274 -1.4697  0.8765  0.7619
13222SOL     OW44512   0.874   5.148   5.412 -0.2248  0.0099  0.1882
13222SOL    HW144513   0.826   5.114   5.488  1.3631  0.6875  1.5464
13222SOL    HW244514   0.941   5.082   5.394 -1.2281 -0.6604 -1.3500
13223SOL     OW44515   5.243   5.944   7.526  0.0130 -0.5155 -0.0329
13223SOL    HW144516   5.154   5.910   7.523  0.0600 -0.6022 -0.6739
13223SOL    HW244517   5.233   6.037   7.547 -0.0791 -1.0385  2.4594
13224SOL     OW44518   0.353   2.796   1.904 -0.8899  0.3296 -0.2419
13224SOL    HW144519   0.283   2.824   1.844 -0.1489  2.5659 -0.1797
13224SOL    HW244520   0.329   2.835   1.988 -1.3007 -1.7974  0.6940
13225SOL     OW44521   7.112   0.673   9.177  0.0610 -0.1523 -0.3112
13225SOL    HW144522   7.027   0.677   9.133  0.2164 -1.8554 -0.8408
13225SOL    HW244523   7.166   0.618   9.120  0.4528 -1.9349  1.6803
13226SOL     OW44524   0.216   3.041   9.081  0.0655 -0.1820  0.6782
13226SOL    HW144525   0.147   3.034   9.147 -2.1345  1.3685 -1.2972
13226SOL    HW244526   0.186   2.985   9.009  0.7218  0.7258 -0.3259
13227SOL     OW44527   1.555   2.347   9.303  0.4857 -0.0798 -0.3328
13227SOL    HW144528   1.499   2.309   9.371  0.2360 -0.5448 -0.7985
13227SOL    HW244529   1.597   2.421   9.347 -1.9178  1.4988 -0.4872
13228SOL     OW44530   0.752   5.118   5.672  0.5694 -0.1232 -0.1861
13228SOL    HW144531   0.689   5.171   5.721 -0.3049 -2.4581  1.3630
13228SOL    HW244532   0.698   5.061   5.617  1.2800 -2.0152  1.0074
13229SOL     OW44533   9.249   0.344   0.975  0.1781 -0.3271  0.6451
13229SOL    HW144534   9.298   0.427   0.969 -0.5710  0.0824 -0.0547
13229SOL    HW244535   9.292   0.287   0.911 -1.2450  0.5865 -1.2280
13230SOL     OW44536   9.021   7.030   0.789  0.3842  0.2114 -0.0877
13230SOL    HW144537   8.998   6.945   0.825  0.3060 -0.9586 -2.6882
13230SOL    HW244538   8.937   7.069   0.764  0.4870  0.6158  0.1936
13231SOL     OW44539   1.120   2.108   0.517  0.2954  0.0880  0.1854
13231SOL    HW144540   1.026   2.127   0.524  0.3089 -0.3081  2.2774
13231SOL    HW244541   1.127   2.015   0.539  1.3771  0.7519  3.1493
13232SOL     OW44542   8.778   3.688   6.625  0.0756  0.2383 -0.3798
13232SOL    HW144543   8.725   3.694   6.546 -0.3266 -2.2605 -0.3477
13232SOL    HW244544   8.723   3.645   6.689  1.5684 -0.9457  0.1708
13233SOL     OW44545   5.860   6.326   0.546  0.2196  0.3953 -0.0717
13233SOL    HW144546   5.950   6.314   0.515  0.0118  0.9128 -0.9056
13233SOL    HW244547   5.839   6.245   0.592  1.1696  0.3386  0.2811
13234SOL     OW44548   0.369   0.785   8.883 -0.2829 -0.2417  0.5983
13234SOL    HW144549   0.400   0.830   8.962  0.1891 -0.2016  0.3907
13234SOL    HW244550   0.340   0.856   8.826  4.3843  0.3006 -1.5199
13235SOL     OW44551   3.455   7.340   1.811 -0.0600  0.2870  0.6423
13235SOL    HW144552   3.514   7.375   1.877  0.7053 -2.7855  1.7904
13235SOL    HW244553   3.449   7.246   1.832 -4.1156  0.1396 -0.4195
13236SOL     OW44554   3.056   2.752   7.607 -0.5820  0.2862  0.2038
13236SOL    HW144555   2.972   2.769   7.566 -1.0995  2.0564  1.8367
13236SOL    HW244556   3.038   2.752   7.701  0.9881 -0.9400  0.5626
13237SOL     OW44557   5.547   8.192   0.775  0.3601  0.2771 -0.5850
13237SOL    HW144558   5.548   8.270   0.719  0.1672  0.9786  0.3667
13237SOL    HW244559   5.455   8.174   0.790  0.4121  0.4399 -0.0349
13238SOL     OW44560   9.127   9.534   1.145 -0.0520 -0.4051 -0.2178
13238SOL    HW144561   9.097   9.542   1.236  0.1029  1.0518 -0.2666
13238SOL    HW244562   9.179   9.614   1.130  1.1104 -1.3048 -1.1533
13239SOL     OW44563   7.076   9.665   7.901  0.0770 -0.6720  0.2521
13239SOL    HW144564   7.039   9.753   7.894 -0.1319 -0.8345 -0.8474
13239SOL    HW244565   7.151   9.666   7.842  0.9547 -0.8047  1.3326
13240SOL     OW44566   5.270   3.610   5.552 -0.5660  0.2450  0.1811
13240SOL    HW144567   5.247   3.694   5.591 -0.7799 -0.6376  2.0723
13240SOL    HW244568   5.328   3.569   5.616 -1.2006 -1.4251 -0.2652
13241SOL     OW44569   4.776   1.796   7.651  0.6698 -0.3717  0.1181
13241SOL    HW144570   4.739   1.762   7.733 -0.0247  0.1344  0.0307
13241SOL    HW244571   4.814   1.720   7.608  1.2045 -0.6159  0.9897
13242SOL     OW44572   8.591   3.519   0.526 -0.3116 -0.4447 -0.3025
13242SOL    HW144573   8.545   3.523   0.443  0.8168  1.1108 -0.8968
13242SOL    HW244574   8.647   3.441   0.519 -1.0470 -0.9614 -0.5304
13243SOL     OW44575   3.292   6.436   3.167  0.4937 -0.0269  0.1506
13243SOL    HW144576   3.257   6.392   3.244 -0.5898  0.1802 -0.2016
13243SOL    HW244577   3.276   6.375   3.095 -0.9374  0.8600 -0.3253
13244SOL     OW44578   7.959   0.782   0.362 -0.4289  0.0135  0.6192
13244SOL    HW144579   8.005   0.851   0.314  0.1033 -1.5209 -1.1907
13244SOL    HW244580   8.010   0.703   0.346 -2.1897 -1.2349  0.8427
13245SOL     OW44581   1.917   6.540   4.126  0.1215  0.7406  0.0646
13245SOL    HW144582   1.905   6.455   4.084  0.9628  1.0958 -0.9419
13245SOL    HW244583   1.945   6.519   4.215  1.1799 -0.0446 -0.4344
13246SOL     OW44584   2.800   5.530   0.932 -0.1709 -0.4106 -0.0540
13246SOL    HW144585   2.725   5.552   0.986 -1.0758 -0.5779 -1.2109
13246SOL    HW244586   2.853   5.610   0.930 -0.2422 -0.3280  0.8508
13247SOL     OW44587   8.681   9.424   4.048  0.5508  0.0673  0.0601
13247SOL    HW144588   8.629   9.372   3.987 -0.0021 -0.7143  1.1497
13247SOL    HW244589   8.653   9.514   4.033  0.5306 -0.1003 -0.9261
13248SOL     OW44590   1.259   0.998   7.390  0.5518  0.2592  0.2423
13248SOL    HW144591   1.262   0.944   7.311  2.8179  0.6611 -0.0035
13248SOL    HW244592   1.206   0.947   7.452  0.4502 -1.0247 -0.8538
13249SOL     OW44593   4.309   3.026   5.709 -0.0225 -0.1653  0.1205
13249SOL    HW144594   4.333   3.118   5.696 -0.6378  0.1042  0.7928
13249SOL    HW244595   4.216   3.022   5.687  0.0836 -0.7151 -0.2647
13250SOL     OW44596   1.227   1.725   9.373  0.3955 -0.8184 -0.3437
13250SOL    HW144597   1.133   1.742   9.382  0.4249  0.4085 -1.9319
13250SOL    HW244598   1.268   1.811   9.385  1.4072 -1.4240  0.9046
13251SOL     OW44599   8.064   1.253   5.727 -0.4801 -0.5710 -0.2883
13251SOL    HW144600   8.024   1.319   5.782 -1.1943 -2.2504  1.3101
13251SOL    HW244601   7.990   1.207   5.687 -0.1744 -2.4456  1.1714
13252SOL     OW44602   8.361   3.779   5.258 -0.2266 -0.0052 -0.1640
13252SOL    HW144603   8.345   3.685   5.249  1.6444 -0.3188 -0.7012
13252SOL    HW244604   8.341   3.815   5.171 -1.3358  0.1842  0.1537
13253SOL     OW44605   4.925   7.952   7.422  0.3281 -0.1207  0.1706
13253SOL    HW144606   4.835   7.921   7.429  0.1110  0.5081  0.1953
13253SOL    HW244607   4.973   7.897   7.484 -0.4460  1.0264  1.8816
13254SOL     OW44608   7.711   1.518   0.086 -0.9795 -0.0643 -0.0211
13254SOL    HW144609   7.758   1.496   0.166 -0.8150  0.1241 -0.0646
13254SOL    HW244610   7.757   1.470   0.017 -0.7770  0.2110 -0.0798
13255SOL     OW44611   2.235   7.681   1.672  0.5768  0.6834 -0.3123
13255SOL    HW144612   2.144   7.658   1.690  0.4485  1.4959  0.1537
13255SOL    HW244613   2.274   7.601   1.636 -0.2991  0.3101 -0.4503
13256SOL     OW44614   1.823   6.758   2.060  0.7477  0.0805 -0.4722
13256SOL    HW144615   1.887   6.809   2.010 -0.6166  0.8053 -1.5441
13256SOL    HW244616   1.743   6.762   2.008 -0.4670  0.0012  1.3023
13257SOL     OW44617   1.401   4.946   1.713  0.0022  0.0569  0.2634
13257SOL    HW144618   1.359   4.865   1.682 -0.5904 -0.4143  2.1156
13257SOL    HW244619   1.489   4.919   1.738  0.3927  0.3816 -0.7023
13258SOL     OW44620   1.315   2.508   1.188 -0.2226 -0.0518  0.7393
13258SOL    HW144621   1.351   2.477   1.105  0.0419  0.1759  0.7687
13258SOL    HW244622   1.237   2.556   1.164 -2.0713 -2.7708  0.8410
13259SOL     OW44623   2.782   2.623   6.537 -0.1942 -0.0166 -0.0888
13259SOL    HW144624   2.834   2.558   6.489  0.1172 -0.4270  0.7951
13259SOL    HW244625   2.809   2.707   6.500 -0.7134 -0.3842 -1.3554
13260SOL     OW44626   0.472   9.709   3.489  0.2695 -0.2689 -0.5009
13260SOL    HW144627   0.463   9.794   3.532  0.0284  0.2747 -1.6047
13260SOL    HW244628   0.385   9.691   3.452  0.7749 -0.1478 -1.7954
13261SOL     OW44629   7.586   0.195   7.718  0.5615 -0.4172  0.0948
13261SOL    HW144630   7.543   0.171   7.801 -0.1655  0.1899 -0.1028
13261SOL    HW244631   7.623   0.282   7.735 -0.9037  0.3899 -0.6786
13262SOL     OW44632   8.226   3.696   8.862 -0.6273  0.3755  0.0662
13262SOL    HW144633   8.278   3.659   8.934 -1.0927 -0.4636 -0.0057
13262SOL    HW244634   8.290   3.724   8.798 -0.1778  1.7662  1.0932
13263SOL     OW44635   4.016   2.046   9.291  0.1140 -0.3328 -0.4373
13263SOL    HW144636   4.104   2.053   9.256  0.4264 -1.2068  0.1416
13263SOL    HW244637   4.017   1.967   9.345 -0.8247  0.0362  0.1567
13264SOL     OW44638   5.949   6.168   1.756 -0.7182  0.5831 -0.4979
13264SOL    HW144639   5.929   6.075   1.769  0.1300  0.4909  0.2018
13264SOL    HW244640   5.899   6.192   1.678 -0.5463 -0.5869 -0.9889
13265SOL     OW44641   8.174   7.955   3.806 -0.3638 -0.0603  0.1022
13265SOL    HW144642   8.209   7.997   3.728  0.7120  1.7932  1.4827
13265SOL    HW244643   8.229   7.989   3.877 -0.2360 -2.9382  1.4953
13266SOL     OW44644   0.014   7.955   0.120  0.6272 -0.1219 -0.7522
13266SOL    HW144645   0.108   7.937   0.116  0.3314 -2.3501  0.6296
13266SOL    HW244646   0.002   7.997   0.205  0.3855  0.3482 -1.0160
13267SOL     OW44647   0.267   4.524   7.840  0.1081  0.1737  0.3512
13267SOL    HW144648   0.188   4.577   7.853  0.3794  0.6399  0.1386
13267SOL    HW244649   0.331   4.585   7.803  0.5856 -0.1861  0.5703
13268SOL     OW44650   9.380   0.345   8.244  0.0577 -0.2733  0.0945
13268SOL    HW144651   9.430   0.413   8.199  0.9587 -1.2753 -0.4615
13268SOL    HW244652   9.332   0.301   8.174 -1.7568  0.7619  0.6359
13269SOL     OW44653   2.283   1.590   7.806  0.5907 -0.1622 -0.0099
13269SOL    HW144654   2.336   1.548   7.738 -0.9970 -2.5042  0.0636
13269SOL    HW244655   2.326   1.567   7.888  0.1405 -1.1019 -0.0170
13270SOL     OW44656   7.564   1.613   8.645  0.1287 -0.3722 -0.6690
13270SOL    HW144657   7.653   1.589   8.670 -0.7824 -0.4325  3.0325
13270SOL    HW244658   7.509   1.543   8.679 -1.5943  1.2756  0.1190
13271SOL     OW44659   7.220   6.853   5.280 -0.1855 -0.2882  0.3516
13271SOL    HW144660   7.125   6.848   5.285 -0.1344 -1.1202  0.7648
13271SOL    HW244661   7.249   6.846   5.371  0.2712 -0.0317  0.2309
13272SOL     OW44662   1.727   7.520   9.720  0.3383  0.2596  0.0624
13272SOL    HW144663   1.682   7.562   9.793  0.3795 -0.7954  0.7261
13272SOL    HW244664   1.662   7.461   9.682 -0.3937  2.4095 -2.2155
13273SOL     OW44665   3.786   7.626   6.039 -0.0291 -0.1780 -0.2601
13273SOL    HW144666   3.733   7.617   6.118 -0.0288 -1.8424 -0.4014
13273SOL    HW244667   3.803   7.720   6.031 -3.1996  0.4783 -0.3993
13274SOL     OW44668   6.523   3.158   6.280 -0.3376 -0.2455  0.0134
13274SOL    HW144669   6.493   3.248   6.291  0.6501  0.0328  0.4445
13274SOL    HW244670   6.578   3.140   6.356  1.1830 -0.5058 -1.1067
13275SOL     OW44671   0.821   1.878   6.356  0.5063 -0.1213 -0.2177
13275SOL    HW144672   0.845   1.809   6.294 -1.4344 -1.0763  0.0121
13275SOL    HW244673   0.756   1.931   6.310 -0.0276 -0.0848  0.5514
13276SOL     OW44674   1.979   5.475   9.682  0.1060 -0.8856 -0.4669
13276SOL    HW144675   1.904   5.420   9.658 -2.8982  1.1566  3.0810
13276SOL    HW244676   2.025   5.424   9.749 -0.8190 -0.4375  0.5440
13277SOL     OW44677   6.789   3.219   1.318 -0.8879  0.2958  0.1118
13277SOL    HW144678   6.795   3.227   1.413 -0.3971 -0.5561  0.1698
13277SOL    HW244679   6.870   3.258   1.285 -0.9314  0.3477  0.0665
13278SOL     OW44680   9.730   7.526   4.950  0.0931  0.2825 -0.2844
13278SOL    HW144681   9.731   7.545   4.856 -0.6674  2.2133  0.0387
13278SOL    HW244682   9.771   7.603   4.990  0.3494 -0.4803  0.9701
13279SOL     OW44683   7.440   5.601   0.043 -0.2132  0.5484  0.1800
13279SOL    HW144684   7.419   5.519   0.088 -0.2044  0.6065  0.2920
13279SOL    HW244685   7.460   5.662   0.114  1.4494  0.2030  0.0460
13280SOL     OW44686   7.150   8.400   4.957 -0.4886 -0.2535 -0.0622
13280SOL    HW144687   7.104   8.316   4.952  0.8059 -0.9432 -0.7733
13280SOL    HW244688   7.154   8.419   5.051 -1.5216 -0.5574  0.0576
13281SOL     OW44689   7.369   0.314   0.195 -0.0829 -0.4682 -0.2205
13281SOL    HW144690   7.380   0.367   0.275 -0.4432 -0.6701 -0.0371
13281SOL    HW244691   7.275   0.298   0.190 -0.3821  1.4540 -1.9270
13282SOL     OW44692   7.142   3.182   8.806 -0.5247  0.3917 -0.0206
13282SOL    HW144693   7.142   3.136   8.722  0.3079 -0.5278  0.4636
13282SOL    HW244694   7.163   3.273   8.784  1.7194 -0.2231 -0.6364
13283SOL     OW44695   7.997   1.999   6.931  0.3258 -0.5638  0.0931
13283SOL    HW144696   8.008   2.057   7.006 -1.1450  1.8044 -1.4147
13283SOL    HW244697   8.081   1.952   6.924  0.9943  0.1887  2.3050
13284SOL     OW44698   7.788   9.181   6.039  0.0173  0.1305  0.3731
13284SOL    HW144699   7.827   9.095   6.055  0.9978  0.6848  1.0605
13284SOL    HW244700   7.697   9.172   6.067  0.1675 -0.6235  0.6458
13285SOL     OW44701   0.365   0.054   5.070 -0.3897 -0.4324  0.1351
13285SOL    HW144702   0.461   0.061   5.075 -0.3498 -1.4025  1.1262
13285SOL    HW244703   0.336   0.067   5.160 -1.1583 -0.6935 -0.0745
13286SOL     OW44704   6.462   2.225   1.134  0.6922 -0.4726  0.5201
13286SOL    HW144705   6.529   2.253   1.197 -0.1921  0.3828  1.1147
13286SOL    HW244706   6.511   2.208   1.053  1.8146 -1.3659  1.3537
13287SOL     OW44707   5.888   8.838   5.532  0.1035  0.4343 -0.0671
13287SOL    HW144708   5.952   8.801   5.592 -0.7147 -0.8677  0.0567
13287SOL    HW244709   5.812   8.780   5.539  0.6223 -1.0121 -3.7203
13288SOL     OW44710   2.012   6.506   0.677 -0.1905 -0.0161  0.1076
13288SOL    HW144711   2.001   6.506   0.772  1.2987 -0.5612  0.3085
13288SOL    HW244712   1.941   6.449   0.644 -2.1605  1.9992  0.6426
13289SOL     OW44713   5.175   7.827   6.714 -1.0468  0.6429  0.1359
13289SOL    HW144714   5.109   7.887   6.679 -0.0635  1.7596  0.1349
13289SOL    HW244715   5.255   7.851   6.668 -0.6994 -0.9496 -0.1376
13290SOL     OW44716   8.151   1.011   0.349 -0.0064  0.1218  0.1026
13290SOL    HW144717   8.238   1.044   0.327 -0.1818  0.0855 -0.6423
13290SOL    HW244718   8.093   1.086   0.335 -0.0225  0.3491  1.2404
13291SOL     OW44719   5.995   8.749   3.348  0.2287  0.2178  0.0170
13291SOL    HW144720   5.933   8.691   3.303 -0.9034  0.6529  0.9578
13291SOL    HW244721   6.049   8.690   3.401 -0.3003 -0.0612  0.2506
13292SOL     OW44722   0.181   1.100   6.497 -0.0105  0.0403 -0.0773
13292SOL    HW144723   0.250   1.135   6.553  1.5092 -1.2193 -1.0553
13292SOL    HW244724   0.107   1.084   6.557  0.4471  1.5913  0.9611
13293SOL     OW44725   4.675   4.651   0.690  0.0054 -0.3013  0.2513
13293SOL    HW144726   4.722   4.590   0.748  0.4758  0.3705  0.5907
13293SOL    HW244727   4.744   4.690   0.637 -0.4068 -0.7863 -0.6644
13294SOL     OW44728   9.664   9.227   7.620  0.4369  0.2439 -0.1206
13294SOL    HW144729   9.685   9.306   7.669  0.4906 -0.1836  0.5563
13294SOL    HW244730   9.738   9.169   7.635  0.6841  0.2795 -1.1070
13295SOL     OW44731   6.753   4.231   7.545 -0.5038 -0.3006  0.3488
13295SOL    HW144732   6.812   4.252   7.473 -0.8751 -1.5280 -0.3583
13295SOL    HW244733   6.670   4.273   7.521 -0.8659 -1.3809 -0.3955
13296SOL     OW44734   8.893   5.587   0.799  0.3724  0.4466 -0.1724
13296SOL    HW144735   8.860   5.508   0.758  0.4390  0.7780 -0.8747
13296SOL    HW244736   8.866   5.658   0.741 -2.2353  1.2884  1.8483
13297SOL     OW44737   3.290   8.631   4.824  0.0560 -0.2030 -0.0439
13297SOL    HW144738   3.210   8.661   4.780 -0.2034 -1.2556 -0.3369
13297SOL    HW244739   3.283   8.535   4.821  1.4230 -0.3115 -0.2432
13298SOL     OW44740   4.354   7.458   3.773  0.3215 -0.3321  0.3689
13298SOL    HW144741   4.437   7.496   3.805  0.3786 -1.2067  1.2931
13298SOL    HW244742   4.290   7.481   3.840  0.0403 -0.5939  0.1917
13299SOL     OW44743   7.045   8.668   5.825  0.5452 -0.9299 -0.4628
13299SOL    HW144744   6.995   8.689   5.746 -1.4142  0.1779  0.9734
13299SOL    HW244745   7.055   8.752   5.870  0.2912 -1.7532  1.1836
13300SOL     OW44746   7.770   5.422   2.987 -0.0787  0.0236 -0.4562
13300SOL    HW144747   7.741   5.448   2.899  0.4063  1.6470 -0.1724
13300SOL    HW244748   7.815   5.338   2.974 -0.5457 -0.0637 -1.6520
13301SOL     OW44749   4.489   3.734   0.864 -0.3776  0.6894 -0.8435
13301SOL    HW144750   4.568   3.713   0.814 -0.0706 -1.3625  0.4036
13301SOL    HW244751   4.478   3.661   0.924 -2.8155  1.3015 -0.4365
13302SOL     OW44752   2.101   0.425   5.485 -0.3761 -0.3791 -0.2646
13302SOL    HW144753   2.009   0.409   5.506 -0.3672 -0.4400 -0.2730
13302SOL    HW244754   2.114   0.518   5.505 -0.8549  0.0303 -1.7769
13303SOL     OW44755   4.512   3.972   2.078  0.1154 -0.2531 -0.2600
13303SOL    HW144756   4.525   3.890   2.125 -1.9934 -0.1999  0.5205
13303SOL    HW244757   4.582   3.974   2.012  1.2960 -1.7767  0.8908
13304SOL     OW44758   8.131   4.003   1.700 -0.0649  0.3823 -0.0130
13304SOL    HW144759   8.171   4.046   1.776 -0.2990  0.8886 -0.1715
13304SOL    HW244760   8.196   3.939   1.672 -0.3991 -0.5408  1.2504
13305SOL     OW44761   1.247   5.623   7.604 -0.2614 -0.5926  0.3480
13305SOL    HW144762   1.340   5.610   7.584 -0.2066 -2.9450  1.6896
13305SOL    HW244763   1.242   5.712   7.638  1.8540 -0.9270  1.7516
13306SOL     OW44764   3.739   7.128   3.763 -0.3586  0.3592 -0.1961
13306SOL    HW144765   3.826   7.134   3.724  0.4701  1.5303  1.7212
13306SOL    HW244766   3.701   7.215   3.751 -2.1303 -0.6292 -2.7288
13307SOL     OW44767   7.862   0.890   5.650 -0.4285 -0.2583 -0.2814
13307SOL    HW144768   7.898   0.824   5.590  0.8107  0.8530 -0.8116
13307SOL    HW244769   7.768   0.875   5.649 -0.2750 -1.2845 -1.2676
13308SOL     OW44770   9.337   8.724   8.920  0.0567  0.1878  0.0180
13308SOL    HW144771   9.322   8.632   8.896  4.7319 -1.0714  0.9393
13308SOL    HW244772   9.391   8.758   8.849 -0.8613  2.0332  0.1501
13309SOL     OW44773   6.922   1.173   5.993 -0.0064 -0.1193 -0.0098
13309SOL    HW144774   6.839   1.134   5.966 -0.4342  1.3947 -0.9387
13309SOL    HW244775   6.973   1.180   5.913  0.7944 -0.4271  0.4511
13310SOL     OW44776   3.922   5.264   5.817  0.2920  0.0230  0.3645
13310SOL    HW144777   3.923   5.358   5.795 -0.2702 -0.7400 -3.8774
13310SOL    HW244778   3.830   5.243   5.826 -0.0020 -0.6968 -2.8759
13311SOL     OW44779   2.436   9.395   7.353 -0.0930  0.6658 -0.1699
13311SOL    HW144780   2.397   9.344   7.424 -0.4700  1.2209  0.0249
13311SOL    HW244781   2.389   9.367   7.274  0.6427 -0.2961 -0.2917
13312SOL     OW44782   3.843   4.881   0.905  0.2595  0.2478  0.4268
13312SOL    HW144783   3.799   4.848   0.827  0.2310  1.6582 -0.1919
13312SOL    HW244784   3.790   4.849   0.978 -1.9978  2.0395 -0.2890
13313SOL     OW44785   5.822   5.202   2.731 -0.0647 -0.5200  0.0687
13313SOL    HW144786   5.844   5.150   2.654 -1.0580 -0.7591 -0.0686
13313SOL    HW244787   5.769   5.143   2.785 -0.6692  0.1451  0.2158
13314SOL     OW44788   3.033   7.929   1.197  0.3749 -0.0691  0.4576
13314SOL    HW144789   3.010   7.858   1.138  0.4788 -0.4809  0.9030
13314SOL    HW244790   3.025   8.008   1.144 -1.9295 -0.1889  0.5329
13315SOL     OW44791   5.930   0.566   3.192 -0.1146 -0.5404  0.0099
13315SOL    HW144792   5.993   0.524   3.249 -0.0021 -0.9480 -0.4081
13315SOL    HW244793   5.967   0.556   3.104  0.9624  2.2313  0.0560
13316SOL     OW44794   4.167   0.628   2.323 -0.5137  0.1599  0.2642
13316SOL    HW144795   4.186   0.547   2.371 -0.6030  0.0253  0.0775
13316SOL    HW244796   4.190   0.698   2.383  0.2317 -0.0047  0.1754
13317SOL     OW44797   1.929   2.948   0.936  0.1903  0.1158 -0.0725
13317SOL    HW144798   1.855   2.889   0.917  0.2011  0.2910 -0.6589
13317SOL    HW244799   1.968   2.965   0.851  0.1822  0.9839  0.0959
13318SOL     OW44800   9.534   4.246   8.791 -0.0701 -0.2325  0.2324
13318SOL    HW144801   9.452   4.256   8.742 -0.6291 -1.2674  0.9019
13318SOL    HW244802   9.540   4.151   8.807  2.7149 -0.6157 -2.2185
13319SOL     OW44803   8.652   8.142   3.670 -0.0465 -0.1531  0.4903
13319SOL    HW144804   8.616   8.080   3.606 -0.9743  0.1464  0.7088
13319SOL    HW244805   8.744   8.118   3.676 -0.4425 -1.7561  0.8150
13320SOL     OW44806   4.080   2.126   4.211 -0.6144 -0.0522  0.5166
13320SOL    HW144807   4.171   2.100   4.192 -0.6539  0.4362 -0.4229
13320SOL    HW244808   4.089   2.205   4.263 -0.4691  0.8123 -0.7642
13321SOL     OW44809   6.121   8.860   2.200  0.2551  0.3722  0.4502
13321SOL    HW144810   6.204   8.818   2.222 -0.6381 -1.4631  0.5290
13321SOL    HW244811   6.089   8.813   2.123 -0.2456  1.7390 -0.2209
13322SOL     OW44812   2.571   4.681   0.544  0.2273  0.6114  0.0930
13322SOL    HW144813   2.577   4.671   0.639 -1.2678 -0.0752  0.1446
13322SOL    HW244814   2.596   4.772   0.528  2.9168  0.1081  0.8497
13323SOL     OW44815   8.662   7.613   0.972  0.4923  0.1396  0.9035
13323SOL    HW144816   8.567   7.618   0.987  0.3994 -1.0513  0.8390
13323SOL    HW244817   8.699   7.603   1.060  0.8528  3.3888  1.2649
13324SOL     OW44818   0.779   9.018   6.923 -0.6587 -0.4954  0.2649
13324SOL    HW144819   0.713   9.079   6.958 -0.9026  0.9798 -2.4646
13324SOL    HW244820   0.728   8.955   6.872 -0.0518  0.2624 -1.3258
13325SOL     OW44821   4.744   5.776   2.256  0.2174 -0.0763  0.6815
13325SOL    HW144822   4.820   5.733   2.295  0.9506  0.7431  0.2300
13325SOL    HW244823   4.670   5.719   2.276  0.7386 -0.2399  2.2668
13326SOL     OW44824   0.874   5.240   8.522  0.5023  0.5489  0.6434
13326SOL    HW144825   0.928   5.244   8.600  0.9273  1.6902  0.3217
13326SOL    HW244826   0.786   5.220   8.553  0.3414  2.5420  1.6075
13327SOL     OW44827   6.796   0.007   0.676  0.0310 -0.5044 -0.0212
13327SOL    HW144828   6.775  -0.016   0.586  0.5272  1.7043 -0.7606
13327SOL    HW244829   6.889  -0.015   0.685  0.9977  2.5552 -1.2996
13328SOL     OW44830   8.644   3.301   1.731  0.2753 -0.2726  0.4683
13328SOL    HW144831   8.697   3.284   1.653  2.3159 -0.3524  1.8036
13328SOL    HW244832   8.603   3.385   1.714  0.0756 -0.6412 -1.0041
13329SOL     OW44833   0.738   4.892   8.850  0.6244  0.0270  0.3514
13329SOL    HW144834   0.673   4.924   8.788  1.5974 -0.5615 -1.0082
13329SOL    HW244835   0.702   4.915   8.936 -0.6041  1.1303 -0.4220
13330SOL     OW44836   4.769   1.794   6.149  0.5213  0.2039 -0.3737
13330SOL    HW144837   4.759   1.811   6.055 -1.7697  1.9158  0.0917
13330SOL    HW244838   4.713   1.719   6.166  2.3320 -1.2645 -0.6165
13331SOL     OW44839   1.430   6.296   6.625 -0.1920  0.2524 -0.5885
13331SOL    HW144840   1.344   6.323   6.595 -0.1001  0.9365 -0.2608
13331SOL    HW244841   1.441   6.339   6.710  0.5537  0.3479 -0.7219
13332SOL     OW44842   4.653   7.944   7.425 -0.7168  0.0716 -0.0811
13332SOL    HW144843   4.649   8.027   7.473 -0.8352  0.8599 -1.3874
13332SOL    HW244844   4.567   7.905   7.437 -0.9887  0.6084 -0.2487
13333SOL     OW44845   5.644   0.065   8.001 -0.8809  0.4431  0.2064
13333SOL    HW144846   5.674   0.066   7.910 -0.2870  0.0279  0.3919
13333SOL    HW244847   5.619   0.155   8.020 -2.2426  0.2981 -0.7648
13334SOL     OW44848   1.916   2.232   9.716  0.3304  0.2750 -0.4827
13334SOL    HW144849   1.896   2.207   9.626 -1.1420  0.9576 -0.3713
13334SOL    HW244850   1.891   2.155   9.768  1.8676 -0.3968 -0.6969
13335SOL     OW44851   6.674   7.234   7.078  0.3145 -0.0738 -0.3769
13335SOL    HW144852   6.769   7.233   7.062  0.5201  0.0396  0.7787
13335SOL    HW244853   6.643   7.311   7.031  0.9183  0.3468 -0.0890
13336SOL     OW44854   1.964   2.986   3.332 -0.2366  0.4081 -0.8655
13336SOL    HW144855   1.875   2.954   3.349  0.1848 -0.2999  0.0646
13336SOL    HW244856   1.951   3.064   3.278 -1.4982  0.9885  0.2091
13337SOL     OW44857   5.195   6.546   0.268  0.5267  0.1241  0.2879
13337SOL    HW144858   5.228   6.463   0.304 -0.0874 -0.1479  0.2439
13337SOL    HW244859   5.204   6.536   0.174 -2.0048 -1.0103  0.0886
13338SOL     OW44860   8.445   9.727   2.604  0.7603  0.6944 -0.0855
13338SOL    HW144861   8.403   9.649   2.567 -0.3294  0.0422  2.3453
13338SOL    HW244862   8.532   9.697   2.629  0.9690  0.7542 -0.7088
13339SOL     OW44863   6.456   3.930   2.564 -0.9396 -0.0576  0.1628
13339SOL    HW144864   6.450   3.848   2.515  0.2224 -0.2015  0.2538
13339SOL    HW244865   6.548   3.937   2.589 -1.1303  1.0132  0.6105
13340SOL     OW44866   2.568   3.723   8.857 -0.2805  0.2811 -0.1423
13340SOL    HW144867   2.621   3.725   8.936  0.0091 -1.4118 -0.2556
13340SOL    HW244868   2.478   3.739   8.887 -0.2467 -0.8815  0.6110
13341SOL     OW44869   0.337   3.780   5.217  0.3307 -0.0178 -0.4253
13341SOL    HW144870   0.394   3.743   5.285  1.9345  1.2566 -1.0073
13341SOL    HW244871   0.309   3.705   5.165 -0.5442 -0.9642  1.3177
13342SOL     OW44872   7.893   6.723   8.897 -0.1435  0.7735 -0.4353
13342SOL    HW144873   7.826   6.775   8.942 -0.2725  1.3151 -1.2338
13342SOL    HW244874   7.843   6.670   8.835 -0.1049 -0.9327  0.8990
13343SOL     OW44875   5.611   4.793   3.729  0.5406  0.1737 -0.0142
13343SOL    HW144876   5.666   4.804   3.807  0.9531  2.5170 -0.5414
13343SOL    HW244877   5.597   4.883   3.697 -0.9977 -0.5976 -1.6963
13344SOL     OW44878   4.777   1.012   3.434  0.2735 -0.1827  0.1090
13344SOL    HW144879   4.839   1.057   3.491  0.1462 -0.9064  0.8349
13344SOL    HW244880   4.821   1.008   3.349  1.9176 -2.0420  0.9816
13345SOL     OW44881   5.266   2.866   8.545 -0.1680  0.2624 -0.0043
13345SOL    HW144882   5.276   2.927   8.618 -1.6416  0.2362  0.2639
13345SOL    HW244883   5.354   2.835   8.527  0.3401  0.9225  1.2043
13346SOL     OW44884   6.577   0.016   1.366  0.2292  0.6396 -0.3268
13346SOL    HW144885   6.503  -0.021   1.319 -0.3631 -0.8346  1.6409
13346SOL    HW244886   6.545   0.099   1.401 -0.7748 -0.2892  1.0639
13347SOL     OW44887   2.761   4.421   8.720  0.5524  0.6039  0.1261
13347SOL    HW144888   2.761   4.485   8.790 -0.5575  3.4140 -2.2224
13347SOL    HW244889   2.852   4.418   8.690  1.1372 -0.9931  1.8701
13348SOL     OW44890   5.461   1.004   9.040 -0.1038 -0.0243 -0.0125
13348SOL    HW144891   5.424   1.092   9.045  0.1262  0.0415  0.5512
13348SOL    HW244892   5.546   1.011   9.083  0.0806 -0.4358 -0.3035
13349SOL     OW44893   1.832   1.627   3.398 -0.1707 -0.2357  0.1383
13349SOL    HW144894   1.908   1.671   3.437  1.3553 -0.1293 -2.6739
13349SOL    HW244895   1.861   1.603   3.310 -2.4773 -2.8400 -0.0498
13350SOL     OW44896   4.262   3.474   7.858 -0.1111  0.0154 -0.3248
13350SOL    HW144897   4.340   3.480   7.802  0.6428  0.7351  0.7649
13350SOL    HW244898   4.261   3.556   7.906 -1.3878 -0.1197 -0.0907
13351SOL     OW44899   4.409   2.155   3.648  0.5578 -0.3482  0.4502
13351SOL    HW144900   4.443   2.102   3.576  0.4510 -0.0514  0.1803
13351SOL    HW244901   4.315   2.137   3.649 -0.1556  2.4454 -1.9128
13352SOL     OW44902   0.030   0.927   3.013 -0.2201 -0.6542  0.5975
13352SOL    HW144903  -0.015   0.968   2.939 -1.8220 -1.7866  0.8802
13352SOL    HW244904   0.122   0.951   3.001 -0.1823 -1.7820 -2.4907
13353SOL     OW44905   9.754   1.791   4.472 -0.2023 -0.3053 -0.2338
13353SOL    HW144906   9.681   1.731   4.454 -1.1701  0.6786  0.2992
13353SOL    HW244907   9.766   1.838   4.389 -1.2744  0.6668  0.1430
13354SOL     OW44908   2.085   6.208   7.023  0.2008 -0.8908 -0.1329
13354SOL    HW144909   2.073   6.119   6.989 -1.1271 -1.3447  1.3830
13354SOL    HW244910   2.058   6.265   6.951  1.8807 -1.6446 -1.4289
13355SOL     OW44911   2.117   2.218   5.964 -0.2456 -0.1903  0.8266
13355SOL    HW144912   2.049   2.264   6.012  0.5051  2.4635 -0.4338
13355SOL    HW244913   2.070   2.156   5.909 -1.9763  2.7833 -1.3539
13356SOL     OW44914   3.919   6.225   5.397  0.1693  0.4852  0.3614
13356SOL    HW144915   3.891   6.199   5.309  2.0038 -0.9147  0.1301
13356SOL    HW244916   3.947   6.316   5.387  0.4128  0.3224 -0.5240
13357SOL     OW44917   5.312   1.266   7.012  0.1258  0.0818 -0.1612
13357SOL    HW144918   5.268   1.295   7.093  1.0361 -0.8087  0.6824
13357SOL    HW244919   5.275   1.180   6.994  0.3899  0.0010 -0.3191
13358SOL     OW44920   0.162   7.742   1.423 -0.1778  0.3332  0.1841
13358SOL    HW144921   0.169   7.788   1.507 -1.3084  1.1889 -0.1699
13358SOL    HW244922   0.081   7.691   1.431 -0.6942  0.9917 -0.6341
13359SOL     OW44923   0.377   9.270   3.063  0.5173  0.6052 -0.0175
13359SOL    HW144924   0.290   9.256   3.101  0.2936  2.2050  0.1095
13359SOL    HW244925   0.395   9.190   3.014 -0.3189 -0.4287  1.2932
13360SOL     OW44926   2.638   6.676   8.423 -0.0474  0.1747 -0.0942
13360SOL    HW144927   2.675   6.712   8.342  0.1958 -0.2619 -0.1798
13360SOL    HW244928   2.699   6.703   8.491  0.7224 -0.9699 -0.3024
13361SOL     OW44929   4.601   4.018   4.706  0.4366  0.0710  0.5951
13361SOL    HW144930   4.519   3.973   4.727  2.3756 -2.9387  2.5231
13361SOL    HW244931   4.654   4.009   4.785  1.6006  4.7724  0.6303
13362SOL     OW44932   8.229   6.559   6.506  0.0190 -0.5365  0.0969
13362SOL    HW144933   8.148   6.521   6.539 -0.1986  0.4721  0.7365
13362SOL    HW244934   8.202   6.635   6.456  0.6588  1.7151  2.9091
13363SOL     OW44935   8.678   4.756   3.657  0.0496  0.3874 -0.4926
13363SOL    HW144936   8.622   4.832   3.640 -2.2885 -1.3236 -0.8676
13363SOL    HW244937   8.721   4.738   3.574 -0.8041  0.2328 -0.9127
13364SOL     OW44938   0.541   2.343   1.794  0.1377 -0.2465  0.6151
13364SOL    HW144939   0.621   2.355   1.742 -1.8854  1.4196 -2.4912
13364SOL    HW244940   0.543   2.415   1.857 -1.0876  3.1506 -2.8199
13365SOL     OW44941   3.376   3.483   2.413 -0.2929  0.1256 -0.6017
13365SOL    HW144942   3.342   3.421   2.477  1.2995  1.4395  1.7103
13365SOL    HW244943   3.351   3.569   2.447  1.4687  0.9159 -1.1659
13366SOL     OW44944   1.124   6.611   1.441  0.2835  0.8188  0.4477
13366SOL    HW144945   1.164   6.560   1.512  0.6688  0.1240 -0.2448
13366SOL    HW244946   1.054   6.555   1.407  1.1370  0.4315 -0.7538
13367SOL     OW44947   1.779   0.292   9.193 -0.4494  0.6872  0.3682
13367SOL    HW144948   1.824   0.375   9.209 -1.3211  0.8035  2.5369
13367SOL    HW244949   1.686   0.314   9.196 -0.7049 -0.0524 -1.1102
13368SOL     OW44950   3.614   9.320   9.580 -0.3718  0.2335 -0.2208
13368SOL    HW144951   3.641   9.409   9.603  2.3519 -1.2186  3.1388
13368SOL    HW244952   3.523   9.315   9.609 -0.1193  1.5590  0.9364
13369SOL     OW44953   1.451   9.744   9.367 -0.2009 -0.0138  0.5725
13369SOL    HW144954   1.402   9.726   9.286  0.0144  0.2645  0.3795
13369SOL    HW244955   1.401   9.813   9.410  1.0367  1.6774 -0.5689
13370SOL     OW44956   8.800   6.435   6.359 -0.5309  0.3978 -0.2000
13370SOL    HW144957   8.802   6.340   6.347  2.9533  0.3756 -0.4238
13370SOL    HW244958   8.848   6.450   6.441  0.2167  2.0065 -0.8850
13371SOL     OW44959   2.500   5.872   5.405 -0.2694 -0.0334 -0.0392
13371SOL    HW144960   2.481   5.933   5.334 -0.0544  0.5399  0.3856
13371SOL    HW244961   2.425   5.880   5.464 -0.2429 -0.1870  0.0147
13372SOL     OW44962   0.563   8.680   7.775  0.1332 -0.1727  0.6971
13372SOL    HW144963   0.557   8.770   7.743 -1.4227 -0.1311  1.0296
13372SOL    HW244964   0.507   8.630   7.716 -0.8556 -0.5072  1.8964
13373SOL     OW44965   0.652   3.589   7.404 -0.2288  0.2409  0.1703
13373SOL    HW144966   0.694   3.661   7.452  0.0915 -1.4171  2.5653
13373SOL    HW244967   0.568   3.578   7.447 -0.2398 -0.8552 -0.0960
13374SOL     OW44968   6.370   1.141   6.400 -0.6039  0.1163 -0.4128
13374SOL    HW144969   6.282   1.154   6.435 -0.5980  0.2494 -0.4509
13374SOL    HW244970   6.424   1.124   6.478 -0.6463  0.1165 -0.3833
13375SOL     OW44971   4.806   5.845   9.585 -1.0446 -0.2101 -0.1812
13375SOL    HW144972   4.778   5.905   9.517  2.8075 -0.3743 -2.2034
13375SOL    HW244973   4.784   5.758   9.551 -2.6505 -0.1975  0.7170
13376SOL     OW44974   7.777   5.950   2.411 -0.5129 -0.3951  0.1928
13376SOL    HW144975   7.786   5.928   2.504  2.0301  2.3493  0.7388
13376SOL    HW244976   7.767   6.045   2.409 -1.0548 -0.4287 -2.3518
13377SOL     OW44977   1.063   4.640   5.613  0.1272 -0.1270  0.2249
13377SOL    HW144978   1.157   4.629   5.600 -0.1338 -0.5705 -1.6065
13377SOL    HW244979   1.054   4.669   5.704  1.9786 -0.6237  0.6035
13378SOL     OW44980   2.457   1.497   7.142  0.4929  0.3385  0.5112
13378SOL    HW144981   2.544   1.461   7.123  0.5849  1.5949 -1.6953
13378SOL    HW244982   2.409   1.489   7.060 -0.8643  1.4357  1.1599
13379SOL     OW44983   5.757   2.645   3.188 -0.3204  0.4631  0.7223
13379SOL    HW144984   5.740   2.706   3.260  0.9917 -0.4575  1.8741
13379SOL    HW244985   5.851   2.654   3.171 -0.9417  2.4427 -2.6284
13380SOL     OW44986   1.309   2.904   6.165 -0.2434 -0.0297  0.0334
13380SOL    HW144987   1.214   2.914   6.168 -0.3970 -1.4677  2.6118
13380SOL    HW244988   1.341   2.955   6.240  0.8089 -1.2066  0.4140
13381SOL     OW44989   3.191   2.599   1.668  0.6225 -0.8222  0.0251
13381SOL    HW144990   3.114   2.627   1.717  0.0588  4.0856 -2.8916
13381SOL    HW244991   3.265   2.633   1.718  0.2400  1.3179 -0.7258
13382SOL     OW44992   0.605   9.743   9.037  0.2484 -0.5668 -0.2880
13382SOL    HW144993   0.610   9.831   9.001  2.3041 -1.0142 -1.2786
13382SOL    HW244994   0.565   9.691   8.968 -1.0407 -0.4324  0.3273
13383SOL     OW44995   9.354   3.163   2.102  0.3369  0.4370 -0.4564
13383SOL    HW144996   9.295   3.173   2.028 -0.5793  0.4217  0.2535
13383SOL    HW244997   9.353   3.069   2.120 -1.2271  0.6760  0.9619
13384SOL     OW44998   0.094   4.945   5.503  0.3344 -1.1664  0.0802
13384SOL    HW144999   0.060   4.914   5.586 -1.0646  0.1060  0.0203
13384SOL    HW245000   0.149   5.020   5.526 -0.8306 -0.2075 -0.1883
13385SOL     OW45001   0.671   3.244   2.669  0.3160  0.0271 -0.1271
13385SOL    HW145002   0.754   3.257   2.713  1.3899 -3.2721 -0.8919
13385SOL    HW245003   0.692   3.189   2.593 -2.2696  0.8866 -1.6070
13386SOL     OW45004   1.551   1.999   1.593  0.7017 -0.1432 -0.1178
13386SOL    HW145005   1.500   2.073   1.558  0.9770  0.1702  0.1384
13386SOL    HW245006   1.535   2.001   1.687 -0.3210 -1.2035 -0.2452
13387SOL     OW45007   9.194   0.159   6.349  0.5775  0.5262  0.3013
13387SOL    HW145008   9.231   0.231   6.300  0.7974  0.8588  0.9500
13387SOL    HW245009   9.181   0.193   6.437 -0.9714  0.3274  0.1768
13388SOL     OW45010   4.072   7.653   7.557  0.0361  0.3855  0.0468
13388SOL    HW145011   4.050   7.601   7.635 -0.7117  0.4809 -0.0880
13388SOL    HW245012   4.153   7.615   7.525 -1.5499 -2.1430 -1.2949
13389SOL     OW45013   3.520   4.726   0.214 -0.2097 -0.2625  0.3150
13389SOL    HW145014   3.489   4.807   0.174 -2.1955 -1.0451  0.1343
13389SOL    HW245015   3.601   4.705   0.168 -1.1490  0.1513 -1.6213
13390SOL     OW45016   3.785   5.050   2.065 -0.3479 -0.5262  0.1369
13390SOL    HW145017   3.717   5.028   2.128  0.9819 -1.7191  1.2038
13390SOL    HW245018   3.822   5.133   2.098 -0.4336 -0.5433  0.2773
13391SOL     OW45019   0.542   3.853   3.478  0.4951  0.0494 -0.3247
13391SOL    HW145020   0.517   3.765   3.449 -2.0042  0.6221 -0.1455
13391SOL    HW245021   0.625   3.869   3.434  0.6058 -2.0652 -1.0324
13392SOL     OW45022   7.987   1.934   7.615 -0.0334  0.0491 -0.6226
13392SOL    HW145023   8.005   1.919   7.522 -1.3466 -1.7689 -0.6260
13392SOL    HW245024   7.898   1.901   7.628 -0.1952  1.0784  1.1099
13393SOL     OW45025   6.096   0.224   6.981 -0.2739  0.3015  0.1280
13393SOL    HW145026   6.097   0.145   6.927  1.2377 -1.3181  2.3628
13393SOL    HW245027   6.151   0.287   6.934  0.2340 -0.7095 -0.6508
13394SOL     OW45028   5.865   7.519   4.921  0.0393 -0.0304  0.1625
13394SOL    HW145029   5.787   7.465   4.915 -0.2605  0.3293  0.7691
13394SOL    HW245030   5.861   7.576   4.844  1.3326 -2.0904 -1.5730
13395SOL     OW45031   4.301   7.341   3.422  0.2990 -0.4973 -1.0620
13395SOL    HW145032   4.206   7.347   3.409  0.1283 -1.7828 -0.5303
13395SOL    HW245033   4.314   7.361   3.515  0.5262 -0.5855 -1.0735
13396SOL     OW45034   4.433   6.788   5.207 -0.6656 -0.4382  0.2068
13396SOL    HW145035   4.509   6.836   5.239  0.0018 -0.6741 -0.9799
13396SOL    HW245036   4.359   6.825   5.256 -0.1939  1.8398 -0.6975
13397SOL     OW45037   8.215   9.582   7.310 -0.3576  0.4282  0.4842
13397SOL    HW145038   8.219   9.577   7.406 -1.1722 -0.4971  0.4870
13397SOL    HW245039   8.302   9.610   7.284  0.8975 -2.2835  1.3421
13398SOL     OW45040   9.099   4.678   1.918  0.5349  0.6235  0.4656
13398SOL    HW145041   9.153   4.612   1.962 -0.4787 -2.0593 -2.0294
13398SOL    HW245042   9.019   4.683   1.970 -0.4778 -2.2041 -0.6207
13399SOL     OW45043   2.958   3.479   9.598 -0.2616 -0.3899 -0.3337
13399SOL    HW145044   2.959   3.463   9.693 -1.2399  0.3868 -0.1698
13399SOL    HW245045   3.003   3.404   9.560 -1.2573 -1.5297  0.6353
13400SOL     OW45046   1.385   2.420   0.913 -0.1030 -0.6398  0.2414
13400SOL    HW145047   1.296   2.433   0.880 -0.0513  2.2685  0.9609
13400SOL    HW245048   1.431   2.501   0.891  1.5658 -0.9367  2.2819
13401SOL     OW45049   2.924   5.665   8.549 -0.2697  0.4565  0.2704
13401SOL    HW145050   3.006   5.624   8.578  0.1326 -0.5218 -2.0583
13401SOL    HW245051   2.857   5.631   8.609  0.9708  1.3341  2.2650
13402SOL     OW45052   2.334   1.961   9.038  0.0112 -0.0332  0.2646
13402SOL    HW145053   2.389   1.884   9.053 -0.3876 -0.2697  0.5179
13402SOL    HW245054   2.394   2.027   9.003  0.0663 -0.9504 -1.4522
13403SOL     OW45055   3.161   6.351   1.180  0.0418 -0.1612  0.8497
13403SOL    HW145056   3.117   6.435   1.192  1.3946  0.4485  1.7587
13403SOL    HW245057   3.253   6.368   1.199  0.0411 -2.3124  3.3946
13404SOL     OW45058   6.537   0.788   9.707 -0.0387 -0.4387  0.3718
13404SOL    HW145059   6.588   0.857   9.749  0.0145 -0.6315  0.6263
13404SOL    HW245060   6.600   0.717   9.693  0.5016  0.3944 -2.0084
13405SOL     OW45061   0.323   5.265   0.840  0.0462  0.2426  0.1032
13405SOL    HW145062   0.403   5.216   0.859 -0.0060  0.4353  0.8691
13405SOL    HW245063   0.265   5.246   0.914 -0.4090  0.5460 -0.1667
13406SOL     OW45064   7.104   5.784   3.162  0.2395  0.3826 -0.0750
13406SOL    HW145065   7.013   5.775   3.189  0.8236  0.1060  1.9312
13406SOL    HW245066   7.127   5.875   3.183  0.8247  0.0440  0.8438
13407SOL     OW45067   6.492   5.335   3.933  1.0246  0.3795 -0.2003
13407SOL    HW145068   6.489   5.259   3.990  2.7542  0.9017  0.6408
13407SOL    HW245069   6.432   5.313   3.861 -0.0040 -0.9359  0.9875
13408SOL     OW45070   7.630   6.299   0.868  0.1293  0.6319  0.1803
13408SOL    HW145071   7.573   6.308   0.944 -0.4616  1.8639 -0.3790
13408SOL    HW245072   7.676   6.216   0.882 -1.4831 -0.1939  0.8560
13409SOL     OW45073   0.886   7.936   9.201 -0.0631 -0.2587 -0.1224
13409SOL    HW145074   0.962   7.881   9.219 -2.4902 -3.5805  1.1084
13409SOL    HW245075   0.868   7.921   9.108  0.3864  0.0150 -0.2577
13410SOL     OW45076   6.462   1.092   3.996  0.0064  0.3693  0.0929
13410SOL    HW145077   6.530   1.055   3.940  1.7389  0.2472  2.1251
13410SOL    HW245078   6.486   1.184   4.006 -0.7545  0.5846 -0.0196
13411SOL     OW45079   0.288   0.849   8.065  0.9155  0.5880  0.3313
13411SOL    HW145080   0.291   0.887   7.977  0.3710 -0.1740 -0.0168
13411SOL    HW245081   0.375   0.868   8.102  1.9031 -0.8839 -1.1233
13412SOL     OW45082   8.177   9.508   2.147  0.3385 -0.2679 -0.1529
13412SOL    HW145083   8.260   9.463   2.163  1.2080  1.6012  0.8427
13412SOL    HW245084   8.182   9.588   2.199 -1.4194  0.6751 -1.3310
13413SOL     OW45085   4.962   9.076   8.271  0.2427 -0.2047 -0.7040
13413SOL    HW145086   5.037   9.125   8.304  0.2805  0.0448 -1.1589
13413SOL    HW245087   4.977   8.986   8.301 -0.7114  0.3650  1.6621
13414SOL     OW45088   1.191   8.845   2.029 -0.4310 -0.0593 -0.6459
13414SOL    HW145089   1.099   8.818   2.038 -0.3526 -0.7977 -1.8898
13414SOL    HW245090   1.233   8.772   1.985  1.2323 -0.6355  1.6764
13415SOL     OW45091   1.888   9.008   8.337  0.6076  0.2050  0.4515
13415SOL    HW145092   1.957   9.037   8.278  0.9080 -0.9276  0.2267
13415SOL    HW245093   1.899   9.062   8.415  1.0255  0.8133 -0.0234
13416SOL     OW45094   5.025   5.860   4.555  0.0407  0.1160  0.2929
13416SOL    HW145095   5.066   5.868   4.641  1.2984  1.5824 -0.3910
13416SOL    HW245096   4.954   5.923   4.556  0.8279  1.0409 -0.1274
13417SOL     OW45097   3.891   9.753   0.861  0.4241  0.0315 -0.0262
13417SOL    HW145098   3.837   9.684   0.900 -1.2018  1.3100  0.0750
13417SOL    HW245099   3.951   9.706   0.803 -1.6440 -1.3766 -1.1482
13418SOL     OW45100   5.790   9.711   5.547 -0.1551 -0.7936 -0.5671
13418SOL    HW145101   5.867   9.694   5.492  0.3424  0.0097 -0.1220
13418SOL    HW245102   5.720   9.731   5.484  0.8268  1.8750 -0.9132
13419SOL     OW45103   9.683   3.895   8.615 -0.3491  0.1176  0.5200
13419SOL    HW145104   9.649   3.937   8.535 -0.3426  0.3936  0.6599
13419SOL    HW245105   9.620   3.919   8.683  0.9141  1.9428  1.1225
13420SOL     OW45106   1.173   3.894   5.206 -0.0702  0.1320 -0.3800
13420SOL    HW145107   1.165   3.923   5.297  0.3498 -1.8589  0.3464
13420SOL    HW245108   1.093   3.925   5.164 -0.5560  0.5684  0.8161
13421SOL     OW45109   4.996   7.986   9.673  0.5653 -0.4784 -0.7089
13421SOL    HW145110   5.018   7.925   9.602 -0.6241  0.6155 -2.0636
13421SOL    HW245111   5.039   8.068   9.649  0.3322 -0.1546 -0.0479
13422SOL     OW45112   4.127   3.304   5.094  0.3102 -0.1678 -0.1495
13422SOL    HW145113   4.098   3.366   5.161 -0.2659 -0.4963 -0.0914
13422SOL    HW245114   4.093   3.340   5.012  0.0062 -0.3868 -0.1200
13423SOL     OW45115   6.606   5.998   6.263 -0.4346  0.0587  0.1796
13423SOL    HW145116   6.565   6.061   6.322 -0.0164  0.4447  0.0567
13423SOL    HW245117   6.570   6.018   6.176  0.5519  0.8687 -0.0524
13424SOL     OW45118   4.480   9.437   2.534 -0.6046  0.0128  0.0602
13424SOL    HW145119   4.416   9.507   2.544 -0.7236  0.3366 -2.3732
13424SOL    HW245120   4.565   9.480   2.543 -0.6946  0.2287 -0.1223
13425SOL     OW45121   6.282   7.348   2.007 -0.0187  0.0820  0.0291
13425SOL    HW145122   6.309   7.425   2.057  0.0145 -0.9653  1.6952
13425SOL    HW245123   6.195   7.326   2.041  0.9732 -2.0564  1.4328
13426SOL     OW45124   7.562   5.425   3.196  0.0167 -0.9873  0.3094
13426SOL    HW145125   7.572   5.514   3.230 -1.9808 -0.9371  0.8403
13426SOL    HW245126   7.627   5.420   3.126 -1.9257  1.9921 -1.9267
13427SOL     OW45127   3.430   0.567   4.270  0.0690 -0.5548  0.0721
13427SOL    HW145128   3.374   0.602   4.339 -1.2617 -0.4251 -1.0116
13427SOL    HW245129   3.373   0.564   4.193  1.2848 -1.3996 -0.8337
13428SOL     OW45130   9.617   2.797   1.936  0.3595  0.7284 -0.7090
13428SOL    HW145131   9.549   2.770   1.874 -0.0088 -0.1960  0.0766
13428SOL    HW245132   9.575   2.792   2.022 -0.1526  4.9700 -0.4715
13429SOL     OW45133   5.278   5.950   9.070 -0.1382  0.0447 -0.7672
13429SOL    HW145134   5.204   6.011   9.071 -1.1412 -1.1200 -0.9389
13429SOL    HW245135   5.254   5.883   9.135  1.2121  0.1476 -0.1476
13430SOL     OW45136   1.090   0.352   9.109 -0.2823  0.1739  0.3307
13430SOL    HW145137   1.154   0.423   9.098 -0.5869  0.3818 -0.1370
13430SOL    HW245138   1.083   0.312   9.022 -2.2131  1.3853 -0.1383
13431SOL     OW45139   4.724   4.817   6.224  0.0866 -0.4573 -0.1318
13431SOL    HW145140   4.682   4.830   6.138 -0.2220  2.9920  0.3787
13431SOL    HW245141   4.654   4.780   6.279 -0.3620 -0.6987 -0.8464
13432SOL     OW45142   7.886   3.409   0.174  0.9131 -0.7919 -1.2191
13432SOL    HW145143   7.835   3.360   0.238  1.4511  0.3412  0.1194
13432SOL    HW245144   7.837   3.399   0.092 -1.7574  0.6117  0.0728
13433SOL     OW45145   0.323   0.307   9.435  1.0417 -0.2550  0.1466
13433SOL    HW145146   0.386   0.379   9.441 -0.8023  1.4127  0.4268
13433SOL    HW245147   0.371   0.230   9.466  2.6343  1.1330  1.2662
13434SOL     OW45148   1.560   1.979   1.880  0.5481  0.3158 -0.2432
13434SOL    HW145149   1.607   2.057   1.909  0.3832  0.5108 -0.4904
13434SOL    HW245150   1.491   1.966   1.945  1.1446 -0.1702  0.3103
13435SOL     OW45151   9.365   3.338   0.235 -0.1457 -0.0521 -0.3373
13435SOL    HW145152   9.392   3.248   0.216  0.7138  0.2741 -0.7359
13435SOL    HW245153   9.391   3.387   0.157 -1.4364  0.3884 -0.5112
13436SOL     OW45154   4.966   5.108   2.830  0.0522 -0.1278 -0.0715
13436SOL    HW145155   4.915   5.027   2.833 -3.4064  1.7792 -1.4728
13436SOL    HW245156   4.910   5.172   2.874  1.8558  1.8956 -0.5745
13437SOL     OW45157   4.099   7.417   3.111 -0.2901 -0.0314  0.1224
13437SOL    HW145158   4.184   7.454   3.089 -1.0117  0.7357 -1.5603
13437SOL    HW245159   4.110   7.323   3.098  0.1269  0.1308 -0.7563
13438SOL     OW45160   8.280   6.726   0.581  0.0763 -0.5095 -0.0826
13438SOL    HW145161   8.349   6.783   0.547  1.3100 -2.2129 -0.6103
13438SOL    HW245162   8.205   6.741   0.522  0.3521  0.5781 -0.1718
13439SOL     OW45163   0.765   3.763   1.047  0.1808 -0.3843 -0.2253
13439SOL    HW145164   0.860   3.754   1.060 -0.0473 -1.0920  1.0845
13439SOL    HW245165   0.753   3.855   1.024  1.1452 -0.1977 -0.0444
13440SOL     OW45166   5.180   2.240   8.673 -0.1214  0.0088  0.0940
13440SOL    HW145167   5.141   2.325   8.653  0.4444  0.4598  0.8499
13440SOL    HW245168   5.112   2.176   8.651 -0.6036  0.6648 -0.3434
13441SOL     OW45169   2.717   4.070   2.446  0.2528  0.2294 -0.2282
13441SOL    HW145170   2.799   4.120   2.440 -0.1998  0.8219 -2.5074
13441SOL    HW245171   2.718   4.032   2.534  3.7661 -1.1791 -0.7373
13442SOL     OW45172   6.893   5.022   8.128  0.3541 -0.4334 -0.3794
13442SOL    HW145173   6.928   5.111   8.115 -1.5695  0.4357  0.0501
13442SOL    HW245174   6.924   4.973   8.051 -1.1339  1.4740 -2.3145
13443SOL     OW45175   4.174   8.214   6.520 -0.2603 -0.2569 -0.4718
13443SOL    HW145176   4.094   8.256   6.550 -0.6234 -1.9176  1.0040
13443SOL    HW245177   4.152   8.122   6.513  0.9183 -0.4651 -2.2485
13444SOL     OW45178   8.106   2.100   2.959  0.1135 -0.4234 -0.0776
13444SOL    HW145179   8.064   2.185   2.960 -0.0923 -0.5243  0.1396
13444SOL    HW245180   8.047   2.044   3.010  0.1281 -0.7519 -0.4193
13445SOL     OW45181   1.176   8.646   2.983  0.1499  0.1971  0.7578
13445SOL    HW145182   1.255   8.686   3.017  0.2235  0.7158 -0.0023
13445SOL    HW245183   1.140   8.710   2.922  0.8459 -1.2600 -1.3234
13446SOL     OW45184   7.912   7.005   5.221  0.6426  0.0151  0.1090
13446SOL    HW145185   7.895   6.978   5.131  0.2016  0.9410 -0.0964
13446SOL    HW245186   7.858   6.946   5.274  1.4740 -1.0220 -0.1767
13447SOL     OW45187   4.446   6.860   1.596 -0.2780 -0.4037 -0.6442
13447SOL    HW145188   4.380   6.900   1.540 -0.1649  0.9148  0.1329
13447SOL    HW245189   4.437   6.904   1.681  0.7564 -1.0748 -0.1601
13448SOL     OW45190   4.376   1.474   8.562 -0.2120  0.3572 -0.1807
13448SOL    HW145191   4.453   1.421   8.540 -0.3042  0.7866 -1.6083
13448SOL    HW245192   4.407   1.564   8.559 -0.8605  0.5587 -1.2009
13449SOL     OW45193   4.336   3.741   3.427  0.2050 -0.3998 -0.3358
13449SOL    HW145194   4.299   3.662   3.386 -0.8187  0.0382 -0.2807
13449SOL    HW245195   4.428   3.718   3.443  0.0653 -1.3831 -0.8219
13450SOL     OW45196   6.370   7.452   9.679 -0.5488 -0.1882 -0.1726
13450SOL    HW145197   6.398   7.362   9.661  0.1382 -0.0138 -0.0093
13450SOL    HW245198   6.346   7.453   9.771  1.2368  0.2176  0.3315
13451SOL     OW45199   1.951   7.436   2.754 -0.2640 -0.0054 -0.2393
13451SOL    HW145200   1.928   7.363   2.695  1.3940  1.6815 -3.2098
13451SOL    HW245201   2.046   7.433   2.759 -0.0461  2.5509 -1.4147
13452SOL     OW45202   3.818   8.975   7.643 -0.2597  0.0702  0.5744
13452SOL    HW145203   3.771   8.934   7.716 -1.1818 -0.5838 -0.3555
13452SOL    HW245204   3.750   8.996   7.580  0.7778 -2.2661 -1.4880
13453SOL     OW45205   0.076   3.721   3.633  1.1135 -0.0208 -0.1219
13453SOL    HW145206  -0.006   3.748   3.673  1.5191 -0.6829  1.2347
13453SOL    HW245207   0.052   3.652   3.572  0.7773 -1.3187  1.4075
13454SOL     OW45208   7.342   4.646   6.638  0.9195 -0.7139  0.3836
13454SOL    HW145209   7.339   4.564   6.687  0.7512 -0.2051  1.2582
13454SOL    HW245210   7.279   4.702   6.683  1.4557  0.0868  0.1539
13455SOL     OW45211   4.691   1.143   9.703  0.1270  0.1159 -0.7043
13455SOL    HW145212   4.769   1.108   9.659  0.0557 -0.4898 -0.3677
13455SOL    HW245213   4.725   1.214   9.758  0.5283 -0.4407 -0.2086
13456SOL     OW45214   1.639   0.579   4.860 -0.0304 -0.0395 -0.4097
13456SOL    HW145215   1.608   0.653   4.913 -0.7260 -1.1797  0.8360
13456SOL    HW245216   1.559   0.540   4.824  0.2261 -0.8392 -0.1397
13457SOL     OW45217   1.871   2.137   3.911  0.6435  0.0937 -0.1911
13457SOL    HW145218   1.850   2.159   4.001  0.3109 -0.8149 -0.0447
13457SOL    HW245219   1.959   2.174   3.897 -0.1758  2.1764 -0.1986
13458SOL     OW45220   7.055   8.482   9.226 -0.2138 -0.1911 -0.6634
13458SOL    HW145221   6.990   8.414   9.208 -0.1312 -0.1912 -0.9596
13458SOL    HW245222   7.069   8.476   9.321 -1.0445  0.1738 -0.5079
13459SOL     OW45223   5.297   7.226   7.038  0.6983  0.3890  0.2447
13459SOL    HW145224   5.275   7.319   7.046 -0.9373  0.1060 -0.6537
13459SOL    HW245225   5.393   7.224   7.036  0.8495  1.8442  2.5320
13460SOL     OW45226   8.744   9.387   6.783 -0.0329 -0.4508 -0.0461
13460SOL    HW145227   8.742   9.305   6.733  1.4686  0.4813 -1.7483
13460SOL    HW245228   8.836   9.410   6.789 -0.1663 -0.2037  2.7894
13461SOL     OW45229   2.460   4.448   7.463 -0.4112 -0.0330 -0.0949
13461SOL    HW145230   2.452   4.368   7.515  1.3480  0.8641  1.6948
13461SOL    HW245231   2.460   4.518   7.528 -1.3485  1.4074 -1.5805
13462SOL     OW45232   9.573   8.448   5.151  0.2344  0.1999  0.9721
13462SOL    HW145233   9.667   8.436   5.138  0.3392  1.4828  0.3629
13462SOL    HW245234   9.538   8.455   5.062  0.0325  2.8192  1.1802
13463SOL     OW45235   9.215   9.312   8.549 -0.4596 -0.0601  0.5327
13463SOL    HW145236   9.278   9.250   8.586  0.7881  0.7021 -0.2820
13463SOL    HW245237   9.268   9.378   8.505 -1.7340  1.7047  1.5053
13464SOL     OW45238   8.846   9.509   7.335  0.4516  0.4315  1.1586
13464SOL    HW145239   8.905   9.552   7.397  0.6404  1.7672  0.0819
13464SOL    HW245240   8.901   9.446   7.289 -0.0936 -2.1300  3.6618
13465SOL     OW45241   2.109   6.715   8.543  0.2767  0.2205  0.2366
13465SOL    HW145242   2.113   6.676   8.631 -0.8641 -1.6704 -0.4675
13465SOL    HW245243   2.199   6.717   8.513  0.4897 -1.0524  0.7069
13466SOL     OW45244   7.604   8.868   6.480  0.0948 -0.1100 -0.0999
13466SOL    HW145245   7.537   8.831   6.423 -1.2171 -0.0689  1.3262
13466SOL    HW245246   7.687   8.836   6.445 -0.8293 -2.4279 -0.3621
13467SOL     OW45247   1.404   4.736   7.866  0.9760  0.1417 -0.1483
13467SOL    HW145248   1.374   4.732   7.776 -0.0502 -0.3573  0.1970
13467SOL    HW245249   1.405   4.645   7.895  0.0836  0.3908  0.7159
13468SOL     OW45250   7.585   3.396   0.775  0.5297 -0.3978 -0.5832
13468SOL    HW145251   7.636   3.454   0.832 -0.4863  0.7390 -0.7888
13468SOL    HW245252   7.526   3.350   0.834 -0.1569  0.3862 -0.6579
13469SOL     OW45253   6.501   2.790   6.511  0.0912  0.2575 -0.8267
13469SOL    HW145254   6.521   2.707   6.468 -0.9120 -0.2033 -0.4273
13469SOL    HW245255   6.496   2.768   6.604  1.1020  1.0259 -0.5632
13470SOL     OW45256   1.901   5.946   3.826  0.6413  0.1355 -0.4080
13470SOL    HW145257   1.826   5.985   3.780  0.4976 -0.4152 -0.6526
13470SOL    HW245258   1.864   5.909   3.906 -0.3529 -4.2398 -2.5384
13471SOL     OW45259   6.788   6.870   0.561 -0.2555  0.1751 -0.3833
13471SOL    HW145260   6.866   6.924   0.548 -0.7706  1.1815  0.5002
13471SOL    HW245261   6.731   6.891   0.487 -0.2418  0.4835 -0.3093
13472SOL     OW45262   0.854   4.676   8.947 -0.0932  0.2197 -0.7097
13472SOL    HW145263   0.867   4.764   8.911  1.1570  0.2630 -0.2115
13472SOL    HW245264   0.760   4.672   8.968 -0.1082  1.5590 -0.4291
13473SOL     OW45265   0.220   7.538   9.264 -0.2368 -0.0953  0.0265
13473SOL    HW145266   0.165   7.466   9.296 -1.0097 -0.4070 -1.8815
13473SOL    HW245267   0.164   7.616   9.272  0.0176  0.0384  0.5639
13474SOL     OW45268   6.978   6.890   3.062  0.0446  0.4530  0.7525
13474SOL    HW145269   6.923   6.833   3.008  0.4502 -0.2131  1.0254
13474SOL    HW245270   6.951   6.979   3.039 -0.8977  0.1459  0.6298
13475SOL     OW45271   1.045   5.241   2.264 -0.7849 -0.0535  0.2043
13475SOL    HW145272   1.138   5.255   2.246  0.0734 -2.8523  1.8824
13475SOL    HW245273   1.011   5.329   2.281  1.8555  0.9430  0.8860
13476SOL     OW45274   8.287   3.991   4.076 -0.0324 -0.0972  0.1058
13476SOL    HW145275   8.284   4.085   4.060 -1.4765  0.0677  1.0906
13476SOL    HW245276   8.203   3.972   4.119  0.9966 -1.4981  1.5964
13477SOL     OW45277   8.062   7.664   9.100  0.5957 -0.9877  0.4066
13477SOL    HW145278   7.995   7.677   9.167  0.8068 -1.2447  0.6748
13477SOL    HW245279   8.079   7.751   9.065  1.8541 -0.5242  2.0242
13478SOL     OW45280   1.855   5.507   4.437  0.7188 -0.5858 -0.2579
13478SOL    HW145281   1.924   5.567   4.465 -2.5998  3.4525  0.2916
13478SOL    HW245282   1.829   5.538   4.351 -2.5897  0.4418  0.9546
13479SOL     OW45283   0.991   8.575   9.606 -0.3182 -0.1625 -0.3123
13479SOL    HW145284   0.976   8.495   9.557  0.1069  0.4599 -1.5124
13479SOL    HW245285   0.926   8.637   9.572  1.4013  0.9515 -1.7886
13480SOL     OW45286   3.351   3.981   3.419  0.2629 -0.5407 -0.3344
13480SOL    HW145287   3.392   3.908   3.373 -0.2898 -0.9084 -0.2497
13480SOL    HW245288   3.259   3.958   3.424  0.4217 -0.9907  1.7829
13481SOL     OW45289   8.560   9.013   7.918 -0.0806  0.0954 -0.2831
13481SOL    HW145290   8.599   9.099   7.938 -0.3651  0.3066 -0.6246
13481SOL    HW245291   8.627   8.968   7.866  0.1117  0.0698 -0.0138
13482SOL     OW45292   5.305   0.728   5.839  0.0331 -0.3827 -0.1010
13482SOL    HW145293   5.215   0.756   5.825  0.3320  1.2036  0.7756
13482SOL    HW245294   5.311   0.713   5.934  1.1411  1.4904  0.1827
13483SOL     OW45295   5.372   2.530   2.939 -0.0299 -0.7608 -0.2392
13483SOL    HW145296   5.425   2.575   3.005 -0.8503 -0.1309  0.0104
13483SOL    HW245297   5.318   2.469   2.988 -0.5328 -0.4018 -0.3340
13484SOL     OW45298   3.155   9.062   1.713  0.3408  1.1140  0.0261
13484SOL    HW145299   3.105   9.001   1.767  0.8647 -0.6912 -1.4320
13484SOL    HW245300   3.128   9.148   1.744 -0.7061  0.1830  1.9209
13485SOL     OW45301   1.137   3.259   4.258  0.1932  1.2949 -0.0172
13485SOL    HW145302   1.184   3.286   4.179  1.1398  0.1439  0.1136
13485SOL    HW245303   1.183   3.180   4.287 -1.5917  0.3432  0.3596
13486SOL     OW45304   2.128   5.693   0.143  0.2494 -0.4118  0.1377
13486SOL    HW145305   2.111   5.759   0.075  1.4414 -1.4625 -1.2215
13486SOL    HW245306   2.216   5.712   0.173  0.7063 -1.5212 -0.4557
13487SOL     OW45307   9.472   5.187   1.507 -0.1470  0.2561 -0.7704
13487SOL    HW145308   9.473   5.141   1.591  0.6743 -0.7086 -1.2859
13487SOL    HW245309   9.448   5.121   1.443  2.6488  0.0464 -1.7494
13488SOL     OW45310   5.555   3.595   5.255 -0.5504  0.0466  0.7261
13488SOL    HW145311   5.566   3.509   5.213  0.1658  1.1030 -1.3901
13488SOL    HW245312   5.461   3.605   5.266 -0.7255 -0.5159 -0.1533
13489SOL     OW45313   5.572   2.208   2.524  0.4110  0.1435 -0.1475
13489SOL    HW145314   5.495   2.224   2.469  0.4421 -0.7533 -0.4682
13489SOL    HW245315   5.591   2.115   2.511 -1.1554 -0.8227  3.3559
13490SOL     OW45316   1.933   3.353   8.014  0.4295 -0.1006  1.0611
13490SOL    HW145317   1.993   3.301   8.066  0.2975 -0.3931  0.9234
13490SOL    HW245318   1.874   3.289   7.974 -0.1079  0.1907  1.3626
13491SOL     OW45319   1.349   6.256   7.162 -0.2656  0.7192 -0.8947
13491SOL    HW145320   1.313   6.255   7.073 -1.0538 -1.1038 -0.6130
13491SOL    HW245321   1.396   6.339   7.168 -1.1226  1.3919 -2.6350
13492SOL     OW45322   7.568   8.460   2.861  0.5817  0.2490  0.3373
13492SOL    HW145323   7.491   8.452   2.804  1.6740 -3.3232 -0.9242
13492SOL    HW245324   7.617   8.534   2.826 -0.7899  0.6780 -0.7624
13493SOL     OW45325   1.277   0.851   4.095  1.0042 -0.2414 -0.0513
13493SOL    HW145326   1.209   0.785   4.107  1.1477 -0.7512 -1.8247
13493SOL    HW245327   1.230   0.929   4.067  1.1716 -0.9135 -2.4106
13494SOL     OW45328   8.275   1.808   2.602 -0.3148  0.0586  0.2754
13494SOL    HW145329   8.186   1.803   2.636 -0.6384  1.3745 -0.3251
13494SOL    HW245330   8.296   1.902   2.600  0.7967 -0.1738 -0.3121
13495SOL     OW45331   5.589   8.052   5.435 -0.2398 -0.0297 -0.4384
13495SOL    HW145332   5.604   7.966   5.397  3.1527  0.4958 -0.5802
13495SOL    HW245333   5.654   8.058   5.506 -1.0249  2.0705  0.1674
13496SOL     OW45334   1.972   4.709   9.441 -0.0929  0.5660 -0.5716
13496SOL    HW145335   2.052   4.710   9.387 -0.3447  0.4480 -0.9548
13496SOL    HW245336   1.929   4.626   9.417  0.0700  0.2426  0.2299
13497SOL     OW45337   6.523   7.316   3.501 -0.4286 -0.1566 -0.1708
13497SOL    HW145338   6.612   7.349   3.492 -0.6331  0.1874 -1.0307
13497SOL    HW245339   6.532   7.236   3.552  0.5707 -1.0386 -1.6653
13498SOL     OW45340   8.868   3.564   6.163  0.3028 -0.2438 -0.1989
13498SOL    HW145341   8.806   3.575   6.235  0.0886 -3.7142  0.3034
13498SOL    HW245342   8.814   3.554   6.085  0.3851  0.0989 -0.3017
13499SOL     OW45343   2.979   8.693   7.155  0.0474  0.1904 -0.3540
13499SOL    HW145344   2.957   8.658   7.242  0.8164  0.3689 -0.0805
13499SOL    HW245345   3.039   8.765   7.173  1.8463 -1.0505 -1.1178
13500SOL     OW45346   1.596   5.189   4.222  0.9286  0.0884  0.2893
13500SOL    HW145347   1.561   5.234   4.299  0.6837  0.7150 -0.1793
13500SOL    HW245348   1.531   5.206   4.153  0.6012 -1.3760  0.2162
13501SOL     OW45349   6.480   0.086   8.024  0.0051  0.6184 -0.1273
13501SOL    HW145350   6.401   0.080   8.078 -0.4110 -1.6429 -0.8537
13501SOL    HW245351   6.550   0.051   8.079 -0.2365 -0.7629 -0.6367
13502SOL     OW45352   8.046   3.025   1.122  0.6880 -0.1475 -0.1246
13502SOL    HW145353   8.111   3.046   1.190  1.5504  0.0660 -0.9882
13502SOL    HW245354   7.976   3.089   1.136  1.7823  1.2478 -0.6740
13503SOL     OW45355   6.697   9.189   7.944 -0.3841 -0.2963 -0.4889
13503SOL    HW145356   6.682   9.152   8.030 -0.0843 -1.3975 -0.8940
13503SOL    HW245357   6.611   9.217   7.914 -0.4221  0.5526  0.3481
13504SOL     OW45358   8.808   2.769   3.062  0.2523  0.4995  0.2624
13504SOL    HW145359   8.820   2.684   3.105 -1.5009 -0.9755 -1.8994
13504SOL    HW245360   8.877   2.773   2.996  0.1470  0.6030  0.1573
13505SOL     OW45361   8.051   3.966   8.758 -0.0330 -0.3250  0.0234
13505SOL    HW145362   8.099   4.048   8.752  0.7942 -0.6528  1.6133
13505SOL    HW245363   8.117   3.898   8.743 -0.4999 -0.7275 -0.2463
13506SOL     OW45364   7.119   4.142   9.370  0.1013 -0.1997  0.6570
13506SOL    HW145365   7.043   4.183   9.412  0.9347 -0.4386  2.4835
13506SOL    HW245366   7.082   4.094   9.296 -1.3064  1.0458  0.5024
13507SOL     OW45367   1.589   8.281   7.382  0.0142 -0.1046  0.6176
13507SOL    HW145368   1.530   8.336   7.330 -0.0570 -0.6107  0.1492
13507SOL    HW245369   1.652   8.342   7.420 -1.7906  0.6904  2.5274
13508SOL     OW45370   3.339   0.846   3.660 -0.0651  0.4576 -0.1431
13508SOL    HW145371   3.253   0.833   3.621  0.4535  0.6835 -1.3971
13508SOL    HW245372   3.330   0.927   3.711 -1.0942 -0.5042  1.2947
13509SOL     OW45373   4.586   9.103   0.699  0.5396 -0.4178 -0.2105
13509SOL    HW145374   4.564   9.046   0.772  1.3637 -1.0682 -0.4533
13509SOL    HW245375   4.588   9.045   0.622 -0.5780  0.2971 -0.8051
13510SOL     OW45376   2.089   4.620   4.523  0.1669  0.9982 -0.2314
13510SOL    HW145377   2.151   4.687   4.551 -0.6243  1.7225 -0.1857
13510SOL    HW245378   2.005   4.664   4.520 -0.2833  0.1421 -0.7357
13511SOL     OW45379   3.678   1.507   4.873  0.2709  0.0873 -0.7655
13511SOL    HW145380   3.740   1.436   4.859  0.5058  0.7721 -4.0885
13511SOL    HW245381   3.594   1.474   4.840 -0.7182 -0.1122  1.7753
13512SOL     OW45382   3.789   7.007   1.153 -0.2411  0.2064 -0.7496
13512SOL    HW145383   3.758   6.925   1.114  1.4810 -0.7044 -0.2816
13512SOL    HW245384   3.782   7.071   1.082 -1.8945 -0.2384 -1.0374
13513SOL     OW45385   7.004   6.915   6.898  0.0994  0.3065  0.1907
13513SOL    HW145386   6.973   6.855   6.830  0.2567 -0.6496  0.9537
13513SOL    HW245387   7.025   6.859   6.972  2.1030  1.0759  0.2722
13514SOL     OW45388   4.537   1.841   3.582 -0.4165  0.0099 -0.7891
13514SOL    HW145389   4.586   1.779   3.528  0.8134  0.3477 -0.1015
13514SOL    HW245390   4.588   1.922   3.578 -0.3087  0.0588  0.8175
13515SOL     OW45391   6.422   4.463   5.707 -0.0438  0.2890 -0.1436
13515SOL    HW145392   6.499   4.500   5.662 -0.2830 -0.3052 -1.0824
13515SOL    HW245393   6.381   4.408   5.641 -2.3437  2.0257 -0.2899
13516SOL     OW45394   8.501   4.938   7.106  0.1371  0.1789  0.0595
13516SOL    HW145395   8.470   4.872   7.167  0.1179  1.2913  1.2863
13516SOL    HW245396   8.426   4.953   7.047  0.5912 -1.8362 -1.1244
13517SOL     OW45397   0.340   8.727   8.855  0.1939 -0.2278  0.1586
13517SOL    HW145398   0.364   8.804   8.804 -0.3024  0.1140  0.4266
13517SOL    HW245399   0.350   8.755   8.946 -0.9066 -0.1515  0.2784
13518SOL     OW45400   0.218   9.216   5.667 -0.3209 -0.1583  0.1649
13518SOL    HW145401   0.292   9.200   5.608 -0.6390 -1.5842  0.1303
13518SOL    HW245402   0.231   9.155   5.739 -0.3912  0.9967  1.1812
13519SOL     OW45403   7.127   7.756   2.887 -0.3314 -0.0778  0.2192
13519SOL    HW145404   7.131   7.757   2.983 -0.1846  0.4686  0.2062
13519SOL    HW245405   7.034   7.755   2.867 -0.4474  2.5380  0.3454
13520SOL     OW45406   5.446   7.319   0.508  0.3735  0.3191  0.2324
13520SOL    HW145407   5.356   7.349   0.494 -0.1636 -0.4665  1.8460
13520SOL    HW245408   5.462   7.332   0.601  1.7136 -0.2037  0.1023
13521SOL     OW45409   1.657   9.327   0.864  0.2036 -0.2069  0.1767
13521SOL    HW145410   1.749   9.349   0.875  0.7211 -1.6260 -1.0032
13521SOL    HW245411   1.627   9.384   0.793  1.0853 -1.8851 -1.6734
13522SOL     OW45412   6.699   2.345   5.524 -0.1724 -0.6468 -0.6741
13522SOL    HW145413   6.750   2.416   5.562 -0.7343  0.5692 -2.0751
13522SOL    HW245414   6.610   2.358   5.558 -0.2227 -0.8380 -0.7315
13523SOL     OW45415   8.395   8.552   7.199  0.5612  0.1692  0.2246
13523SOL    HW145416   8.344   8.623   7.160  1.3308 -0.3849 -1.9304
13523SOL    HW245417   8.479   8.591   7.221  0.8631  0.0116 -0.6386
13524SOL     OW45418   0.692   6.484   7.885  0.2687  0.0267  0.0163
13524SOL    HW145419   0.707   6.578   7.871  1.5116  0.1435  1.7033
13524SOL    HW245420   0.768   6.442   7.844  0.7928 -0.0599  1.0446
13525SOL     OW45421   7.820   7.559   1.407  0.5790  0.4083 -0.0892
13525SOL    HW145422   7.761   7.492   1.442 -0.2770  0.8687 -0.6240
13525SOL    HW245423   7.906   7.536   1.442  0.2557 -0.8379 -0.0850
13526SOL     OW45424   0.720   3.998   2.001 -0.0940 -0.7004 -0.2949
13526SOL    HW145425   0.706   4.047   2.083 -0.6620  1.9318 -1.8589
13526SOL    HW245426   0.759   3.915   2.030  0.9612  0.6377  2.5417
13527SOL     OW45427   0.442   5.343   3.077  0.0042  0.2350  0.5415
13527SOL    HW145428   0.459   5.280   3.147 -2.0200 -0.8840  0.1000
13527SOL    HW245429   0.352   5.324   3.049 -0.1471  2.3656 -0.6109
13528SOL     OW45430   8.087   6.510   3.875 -0.2906  0.3491  0.0376
13528SOL    HW145431   8.095   6.586   3.818 -0.1504 -0.5539 -1.1753
13528SOL    HW245432   8.177   6.478   3.885 -0.6042 -1.1370 -1.5546
13529SOL     OW45433   4.595   7.161   0.160 -0.1452  0.2466  0.3730
13529SOL    HW145434   4.651   7.225   0.203  0.1886  0.8224 -0.8703
13529SOL    HW245435   4.569   7.100   0.230 -0.4895  1.7284  1.5898
13530SOL     OW45436   6.240   7.824   3.389  0.3544 -0.0455  0.5715
13530SOL    HW145437   6.296   7.763   3.437  2.5229  2.6419  1.7477
13530SOL    HW245438   6.254   7.909   3.432 -4.0539  1.0261  0.3676
13531SOL     OW45439   0.142   9.654   5.776 -0.0336  0.1893 -0.4872
13531SOL    HW145440   0.199   9.731   5.777  0.1082  0.0827  0.3263
13531SOL    HW245441   0.197   9.583   5.743  0.2561  0.1254  0.1239
13532SOL     OW45442   1.449   4.090   9.558  0.0600 -0.2674 -0.3629
13532SOL    HW145443   1.398   4.015   9.588  0.9916 -1.5178 -1.7547
13532SOL    HW245444   1.478   4.066   9.470  2.1361  0.8203 -0.0529
13533SOL     OW45445   4.823   1.202   5.824  0.3569 -0.9405 -1.0630
13533SOL    HW145446   4.816   1.246   5.740 -0.4596 -1.5813 -1.3515
13533SOL    HW245447   4.916   1.179   5.832  0.7217  0.4804 -1.0662
13534SOL     OW45448   4.137   3.975   4.817 -0.1695  0.3026 -0.2809
13534SOL    HW145449   4.092   3.921   4.882 -0.3325 -1.4553 -1.7444
13534SOL    HW245450   4.184   4.040   4.868 -4.0567  2.1334  1.4068
13535SOL     OW45451   9.425   5.567   2.178  0.0985 -0.3000 -0.2953
13535SOL    HW145452   9.474   5.590   2.099  1.8475 -0.8704  0.5741
13535SOL    HW245453   9.380   5.648   2.203  1.1202  0.4343 -0.7855
13536SOL     OW45454   4.044   3.559   9.319  0.1887 -0.4542  0.0696
13536SOL    HW145455   3.978   3.526   9.258 -0.6004  0.1948  0.5543
13536SOL    HW245456   3.995   3.579   9.399  0.6299  1.7945 -0.1569
13537SOL     OW45457   5.235   7.762   9.283  0.2436  0.3547 -0.1791
13537SOL    HW145458   5.231   7.669   9.262 -0.9709  1.0796 -3.8969
13537SOL    HW245459   5.144   7.789   9.292  0.3962  1.5897 -1.7854
13538SOL     OW45460   4.845   4.685   2.567  0.1550  0.1481  0.5295
13538SOL    HW145461   4.776   4.627   2.602  1.0589 -1.5432 -0.3895
13538SOL    HW245462   4.926   4.647   2.600  0.8187  0.4201 -0.7541
13539SOL     OW45463   1.465   4.583   8.440  0.7512 -0.0079 -0.1534
13539SOL    HW145464   1.408   4.508   8.458  0.4923  0.1267 -0.3942
13539SOL    HW245465   1.515   4.595   8.520  0.1833  0.0912  0.1978
13540SOL     OW45466   7.042   3.124   4.347 -0.1748  0.3423 -0.6195
13540SOL    HW145467   7.077   3.185   4.282  0.1980  0.0804 -0.6641
13540SOL    HW245468   7.116   3.103   4.403 -0.2239 -0.3229 -0.7987
13541SOL     OW45469   7.246   6.614   0.705  0.0761 -0.3398 -0.2917
13541SOL    HW145470   7.161   6.644   0.673  0.1069 -0.1057 -0.1538
13541SOL    HW245471   7.265   6.536   0.652  0.7880  0.8561 -1.8956
13542SOL     OW45472   6.511   7.222   1.707 -0.2681 -0.0385 -0.4091
13542SOL    HW145473   6.519   7.239   1.801 -0.4319  2.5387 -0.7766
13542SOL    HW245474   6.442   7.283   1.678 -2.4856 -2.9507 -1.7313
13543SOL     OW45475   6.424   0.402   4.760 -0.1912  0.0564  0.1026
13543SOL    HW145476   6.453   0.484   4.801 -1.4806  1.0593 -0.9183
13543SOL    HW245477   6.371   0.359   4.827 -0.6938  0.7510  0.1580
13544SOL     OW45478   7.692   8.166   4.330  0.2365  0.2589 -0.1413
13544SOL    HW145479   7.784   8.162   4.303  0.7009  0.9986  1.1971
13544SOL    HW245480   7.654   8.234   4.275  0.3123 -0.4883 -1.1431
13545SOL     OW45481   6.380   4.971   1.575  0.1245  0.6697 -0.0505
13545SOL    HW145482   6.443   5.037   1.547  1.9241 -0.5141  0.9977
13545SOL    HW245483   6.418   4.934   1.655 -1.6112 -0.5383  0.2694
13546SOL     OW45484   0.228   8.268   6.625  0.1312 -0.5571 -0.4943
13546SOL    HW145485   0.150   8.221   6.595 -0.0522 -0.4860 -0.1344
13546SOL    HW245486   0.194   8.348   6.665  0.3972 -0.4732 -0.4345
13547SOL     OW45487   4.684   2.772   7.437 -0.3289 -0.2751  0.3951
13547SOL    HW145488   4.636   2.835   7.491  0.3398  1.8996 -1.3756
13547SOL    HW245489   4.625   2.698   7.428 -1.9607  0.8855  1.0207
13548SOL     OW45490   8.442   2.094   7.040  0.3227 -0.4769 -0.2273
13548SOL    HW145491   8.351   2.067   7.055 -0.1039  1.0777  0.1677
13548SOL    HW245492   8.459   2.070   6.949 -0.4337 -0.9193 -0.2624
13549SOL     OW45493   6.036   2.689   7.285  0.0368  0.4685  0.0096
13549SOL    HW145494   5.984   2.755   7.237  0.6766 -0.5341 -2.1917
13549SOL    HW245495   5.971   2.642   7.338 -0.8567  1.0700 -0.5116
13550SOL     OW45496   4.622   2.505   0.963  0.4569 -0.0227 -0.0024
13550SOL    HW145497   4.679   2.494   1.040  0.0298 -2.2471  0.0693
13550SOL    HW245498   4.533   2.492   0.997  0.1182  0.6488 -0.6003
13551SOL     OW45499   6.948   8.875   6.653  0.2274 -0.4455 -0.1820
13551SOL    HW145500   6.919   8.907   6.738 -0.2121 -0.5825 -0.2777
13551SOL    HW245501   6.914   8.938   6.590  1.6281  0.3635 -0.1713
13552SOL     OW45502   7.233   4.832   7.279  0.0481  0.5887 -0.0783
13552SOL    HW145503   7.296   4.804   7.345 -1.5103  0.2489  1.3241
13552SOL    HW245504   7.268   4.914   7.245  1.0625  0.5987  0.9397
13553SOL     OW45505   7.490   9.586   6.974 -0.4448 -0.1571  0.1437
13553SOL    HW145506   7.453   9.574   7.062  0.9629 -2.0686  0.5320
13553SOL    HW245507   7.584   9.575   6.986  0.2214  3.3243 -1.0348
13554SOL     OW45508   1.902   1.088   2.023  0.3579  0.6394 -0.2385
13554SOL    HW145509   1.813   1.114   2.046 -0.0896 -0.2230 -0.9222
13554SOL    HW245510   1.899   0.992   2.017  1.3421  0.5953 -0.2113
13555SOL     OW45511   3.600   3.563   6.710 -0.1197 -0.1861 -0.4537
13555SOL    HW145512   3.627   3.471   6.717 -2.2402 -0.8369 -0.1160
13555SOL    HW245513   3.600   3.582   6.617  1.6653 -0.0470 -0.4707
13556SOL     OW45514   3.255   9.716   2.090 -0.0135 -0.0266 -0.1942
13556SOL    HW145515   3.304   9.770   2.151  0.3654  0.1732 -0.6683
13556SOL    HW245516   3.163   9.733   2.112  0.1149 -0.7158  0.9595
13557SOL     OW45517   0.663   3.044   9.038  0.1096 -0.1425 -0.1004
13557SOL    HW145518   0.684   3.120   8.984 -0.6677  0.3402  0.2650
13557SOL    HW245519   0.749   3.006   9.061  0.5997  1.5276  1.0185
13558SOL     OW45520   4.532   8.478   3.360  0.6791  0.1898  0.1339
13558SOL    HW145521   4.473   8.422   3.409 -0.2725  0.7485 -0.3524
13558SOL    HW245522   4.617   8.468   3.404  0.7644 -2.2575 -0.4088
13559SOL     OW45523   0.595   8.824   8.144 -0.4772 -0.1161 -0.0850
13559SOL    HW145524   0.680   8.856   8.173  0.5755 -1.7718 -1.1995
13559SOL    HW245525   0.545   8.904   8.123  0.0063  0.9771  2.5099
13560SOL     OW45526   8.567   0.368   6.456  0.0170  0.3310 -0.0060
13560SOL    HW145527   8.554   0.460   6.481  2.0643  1.1351 -1.6154
13560SOL    HW245528   8.611   0.329   6.532  1.7601  1.4807 -0.3660
13561SOL     OW45529   3.396   6.376   6.150 -0.3137  0.0804  0.0193
13561SOL    HW145530   3.383   6.305   6.087 -0.9895  1.0365 -0.9644
13561SOL    HW245531   3.423   6.333   6.231 -2.4738 -1.4742 -0.0193
13562SOL     OW45532   8.953   9.536   0.253  0.0700 -0.5059 -0.1873
13562SOL    HW145533   8.913   9.619   0.280  1.9186 -0.1575  1.7816
13562SOL    HW245534   9.047   9.555   0.251  0.5231 -2.5301  0.2186
13563SOL     OW45535   3.094   3.259   0.269  0.3685  0.0084  0.7746
13563SOL    HW145536   3.095   3.299   0.356 -1.0986  0.7821  0.4738
13563SOL    HW245537   3.137   3.175   0.280 -1.0496 -0.5463  2.5847
13564SOL     OW45538   2.159   8.129   3.204  0.2348  0.2158  0.0705
13564SOL    HW145539   2.197   8.088   3.282  1.2200 -0.8570 -0.9397
13564SOL    HW245540   2.073   8.161   3.233  0.7580  0.2339  1.6992
13565SOL     OW45541   1.711   9.738   4.214 -0.4657  0.0933 -0.8241
13565SOL    HW145542   1.659   9.731   4.134 -0.3113 -2.4428 -0.7798
13565SOL    HW245543   1.796   9.771   4.184  0.0742 -2.1966 -2.0145
13566SOL     OW45544   8.718   0.665   4.195  0.1138 -0.2413  0.8594
13566SOL    HW145545   8.676   0.710   4.268  0.7658 -0.0556  1.1293
13566SOL    HW245546   8.812   0.674   4.212  0.3093  0.6899 -0.5106
13567SOL     OW45547   1.783   2.151   9.485  0.2902 -0.2605 -0.1346
13567SOL    HW145548   1.778   2.089   9.557  0.2416 -0.5038 -0.3481
13567SOL    HW245549   1.691   2.173   9.466  0.3423  1.1705  1.0522
13568SOL     OW45550   8.962   2.188   5.903  0.9410  0.2900  0.0752
13568SOL    HW145551   9.036   2.232   5.944 -0.7142  1.3929  2.0194
13568SOL    HW245552   8.928   2.252   5.840  0.3630  0.6217  0.7201
13569SOL     OW45553   3.433   1.729   2.810  0.2951  0.1818 -0.3527
13569SOL    HW145554   3.339   1.741   2.796  0.2814 -1.2824 -1.8265
13569SOL    HW245555   3.473   1.804   2.765 -0.1600  1.2658  0.9840
13570SOL     OW45556   1.508   0.947   5.291 -0.4503 -0.6499  0.2000
13570SOL    HW145557   1.559   0.902   5.224  2.0188  1.8411  0.1941
13570SOL    HW245558   1.427   0.971   5.247  1.1829  1.0961 -2.1088
13571SOL     OW45559   4.540   8.141   8.934  0.3610 -0.6328 -0.2424
13571SOL    HW145560   4.471   8.162   8.870 -0.4168  0.7925  0.9828
13571SOL    HW245561   4.492   8.115   9.013  1.2696 -1.3472  0.0876
13572SOL     OW45562   6.238   9.727   3.632 -0.1414  0.3829  0.5935
13572SOL    HW145563   6.169   9.778   3.673 -1.0366 -1.2283  1.1957
13572SOL    HW245564   6.195   9.646   3.603  0.8607  0.6229 -1.8261
13573SOL     OW45565   1.961   2.667   7.526  0.2159  0.7331  0.4497
13573SOL    HW145566   1.903   2.606   7.572 -0.1457 -0.0783 -1.0314
13573SOL    HW245567   1.903   2.739   7.501  0.8719  2.4221  3.2858
13574SOL     OW45568   6.418   6.283   9.173 -0.1386  0.1258 -0.4220
13574SOL    HW145569   6.339   6.289   9.226 -0.1771 -1.7440 -0.1814
13574SOL    HW245570   6.487   6.318   9.229 -0.0823 -2.2763  1.1900
13575SOL     OW45571   4.397   4.868   3.928 -0.1477 -0.2043 -0.1295
13575SOL    HW145572   4.322   4.893   3.982 -1.7717 -0.4159 -2.1713
13575SOL    HW245573   4.422   4.949   3.882  2.2118  0.3648  1.9306
13576SOL     OW45574   2.598   8.815   1.533  0.1241  0.1862  0.0210
13576SOL    HW145575   2.683   8.857   1.522 -0.9464  2.1564 -1.2725
13576SOL    HW245576   2.573   8.788   1.444  0.3765 -2.5496  0.6788
13577SOL     OW45577   1.187   2.415   2.547  0.3783  0.0273  0.0176
13577SOL    HW145578   1.156   2.491   2.498  0.7299 -0.9044 -1.7369
13577SOL    HW245579   1.209   2.350   2.480 -0.1974 -1.7549  1.4546
13578SOL     OW45580   2.970   0.529   9.272 -0.5678 -0.1045 -0.6197
13578SOL    HW145581   2.985   0.522   9.178  1.1067  1.7773 -0.5693
13578SOL    HW245582   2.888   0.579   9.280 -0.2292  0.5500 -1.1180
13579SOL     OW45583   1.848   3.236   7.264 -0.0984 -0.1583 -0.3113
13579SOL    HW145584   1.816   3.242   7.174  0.0564  0.8115 -0.3135
13579SOL    HW245585   1.777   3.271   7.317  0.6166  1.2441 -0.2480
13580SOL     OW45586   2.435   0.334   5.128  0.6428  0.1531  0.2375
13580SOL    HW145587   2.509   0.376   5.171 -0.8527  1.9027  1.2005
13580SOL    HW245588   2.374   0.313   5.198  0.2368 -1.4071 -0.5211
13581SOL     OW45589   0.774   6.927   6.949  0.3096 -0.5222  0.7905
13581SOL    HW145590   0.691   6.889   6.921 -0.0604  0.9322 -0.1565
13581SOL    HW245591   0.832   6.851   6.960 -0.1571 -1.3526 -1.8136
13582SOL     OW45592   0.923   2.194   4.355  0.6624 -0.2098  0.3172
13582SOL    HW145593   0.933   2.153   4.441  1.1200  0.8212  0.7713
13582SOL    HW245594   0.905   2.121   4.296 -1.0464 -0.8073  1.4987
13583SOL     OW45595   4.475   1.079   1.097  0.2136  0.5196 -0.7144
13583SOL    HW145596   4.388   1.052   1.070  0.3462  0.1653 -0.7959
13583SOL    HW245597   4.501   1.014   1.163  0.2128  0.9148 -0.3173
13584SOL     OW45598   7.483   6.386   8.597  0.1257  0.0108 -0.0554
13584SOL    HW145599   7.518   6.305   8.636  2.6184  1.1866  0.3418
13584SOL    HW245600   7.505   6.379   8.504 -1.2205 -0.4912 -0.3630
13585SOL     OW45601   8.341   7.401   3.637  0.0967 -0.3130  0.0767
13585SOL    HW145602   8.426   7.366   3.662 -0.4501 -2.2330 -0.5998
13585SOL    HW245603   8.294   7.327   3.598 -2.2890  0.3872  1.3811
13586SOL     OW45604   6.835   0.391   8.956 -0.2717  0.0560  0.2077
13586SOL    HW145605   6.858   0.404   8.864 -0.6596 -0.6937 -0.0022
13586SOL    HW245606   6.773   0.318   8.955  0.6748 -0.8014  1.1753
13587SOL     OW45607   2.927   1.515   6.601  0.3881  0.2434 -0.6801
13587SOL    HW145608   2.947   1.446   6.538  2.2608 -0.0108  0.1278
13587SOL    HW245609   2.848   1.557   6.567 -0.6982 -2.1372 -1.3227
13588SOL     OW45610   1.368   3.271   3.407  0.2760  0.3254  0.1691
13588SOL    HW145611   1.435   3.204   3.393 -0.4096 -0.0484 -1.5140
13588SOL    HW245612   1.412   3.354   3.389  0.6051  0.1861  0.3262
13589SOL     OW45613   6.297   6.728   2.805 -0.0056 -0.2055  0.0450
13589SOL    HW145614   6.290   6.651   2.749 -2.2628  0.6128 -0.9336
13589SOL    HW245615   6.256   6.702   2.887 -0.3420 -0.1908 -0.1181
13590SOL     OW45616   6.995   3.665   2.626 -0.2353  0.4385  0.4869
13590SOL    HW145617   7.016   3.754   2.654 -0.3528  0.2247  1.2887
13590SOL    HW245618   7.064   3.611   2.664 -0.3310  0.1521  0.2577
13591SOL     OW45619   9.391   8.062   8.493  0.0525  0.1280 -0.2349
13591SOL    HW145620   9.355   7.974   8.502 -0.0985  0.2486  0.3888
13591SOL    HW245621   9.483   8.048   8.471  0.2637 -0.2007  0.8083
13592SOL     OW45622   0.170   5.055   5.211  0.8383 -0.7152 -0.0493
13592SOL    HW145623   0.142   5.029   5.299  0.5938 -0.2726  0.0065
13592SOL    HW245624   0.233   5.126   5.226 -1.3902  1.4576 -0.2679
13593SOL     OW45625   0.409   7.696   5.889  0.0031 -0.2647 -0.9165
13593SOL    HW145626   0.383   7.613   5.850  0.8502 -0.9524 -0.0935
13593SOL    HW245627   0.428   7.674   5.981 -0.5046  0.9909 -0.4860
13594SOL     OW45628   1.562   3.856   1.757 -0.6448  0.9726  0.7179
13594SOL    HW145629   1.519   3.824   1.836  0.5156 -0.5520  0.7761
13594SOL    HW245630   1.649   3.816   1.759 -0.6054  0.8416 -1.3503
13595SOL     OW45631   1.481   3.652   1.939 -0.5918  1.4135  0.1549
13595SOL    HW145632   1.403   3.675   1.990 -0.7123  0.3256  0.4747
13595SOL    HW245633   1.448   3.595   1.870  0.1861 -0.8269  1.5540
13596SOL     OW45634   5.340   7.149   1.818 -0.5810  0.2562 -0.1812
13596SOL    HW145635   5.413   7.210   1.804 -1.5920  1.4741 -0.2277
13596SOL    HW245636   5.316   7.161   1.910 -0.7257 -0.1485 -0.1648
13597SOL     OW45637   3.362   9.552   1.265 -0.2206 -0.3677  0.5226
13597SOL    HW145638   3.438   9.596   1.301  0.0628  0.5030 -1.0684
13597SOL    HW245639   3.386   9.532   1.175 -1.8776 -0.0231 -0.0341
13598SOL     OW45640   6.863   2.115   5.141 -0.3225  0.4818  0.3436
13598SOL    HW145641   6.851   2.127   5.236  0.7527  0.9416  0.4364
13598SOL    HW245642   6.794   2.168   5.102 -1.2864 -0.3607  0.8725
13599SOL     OW45643   1.297   6.069   2.233 -0.1530  0.4227 -0.0369
13599SOL    HW145644   1.229   6.127   2.199 -1.1679 -1.4025 -1.3045
13599SOL    HW245645   1.379   6.108   2.202 -0.7868  1.2588 -0.7243
13600SOL     OW45646   0.643   0.538   2.841 -0.0436  0.4497 -0.4559
13600SOL    HW145647   0.676   0.450   2.821 -0.8240  0.0203  0.1145
13600SOL    HW245648   0.614   0.573   2.756 -0.6066 -0.2141 -0.5420
13601SOL     OW45649   2.583   9.314   9.312  0.5899 -0.1428  0.2068
13601SOL    HW145650   2.557   9.365   9.389  0.6525  1.3660 -0.7377
13601SOL    HW245651   2.636   9.242   9.348  2.1951  1.5727  1.4464
13602SOL     OW45652   8.716   2.669   5.304 -0.5088  0.3004 -0.3497
13602SOL    HW145653   8.754   2.744   5.258  2.7344 -1.0786 -0.1874
13602SOL    HW245654   8.701   2.700   5.393  1.0940  0.7402 -0.2004
13603SOL     OW45655   2.141   4.070   9.697  0.0545  0.1145 -0.2585
13603SOL    HW145656   2.053   4.096   9.726  0.8178  0.6184  1.7139
13603SOL    HW245657   2.191   4.059   9.777  2.3594  1.7951 -1.3698
13604SOL     OW45658   8.085   5.231   8.939 -0.0891  0.0410 -0.1092
13604SOL    HW145659   7.992   5.219   8.924 -0.7300  2.9622  0.7918
13604SOL    HW245660   8.118   5.269   8.857 -0.0442  0.3977  0.0690
13605SOL     OW45661   5.764   9.393   3.680 -0.3285  0.1034  0.5817
13605SOL    HW145662   5.812   9.386   3.598 -0.8023  0.4212  0.2710
13605SOL    HW245663   5.677   9.424   3.654 -1.2140 -1.9230  0.9591
13606SOL     OW45664   7.273   7.676   8.854 -0.3262  0.2459  0.1741
13606SOL    HW145665   7.251   7.751   8.909 -1.6797  0.0881 -0.1111
13606SOL    HW245666   7.358   7.699   8.815  0.2170  0.7414  1.6032
13607SOL     OW45667   6.022   2.519   7.007 -0.1218  0.0375  0.0452
13607SOL    HW145668   6.112   2.514   7.038  0.6039 -1.1894 -2.1070
13607SOL    HW245669   6.011   2.610   6.979 -0.7943  1.2057  3.5314
13608SOL     OW45670   1.985   1.579   8.687  0.1181  0.6354  0.0291
13608SOL    HW145671   1.938   1.660   8.707  1.8017  1.3773  1.2270
13608SOL    HW245672   2.076   1.598   8.710  0.8022 -1.1455 -1.0195
13609SOL     OW45673   6.356   5.093   0.625 -1.1643  0.0697 -0.5390
13609SOL    HW145674   6.298   5.158   0.587 -1.2341  0.3226 -0.0020
13609SOL    HW245675   6.298   5.019   0.646 -1.2311  0.1782 -0.3401
13610SOL     OW45676   4.261   3.748   9.279  0.3819 -0.3520 -0.1096
13610SOL    HW145677   4.272   3.773   9.371 -1.1952 -0.9334  0.2686
13610SOL    HW245678   4.181   3.696   9.278 -0.2418  0.5728 -2.0078
13611SOL     OW45679   8.720   4.580   7.190  0.1152  0.0937  0.4797
13611SOL    HW145680   8.743   4.611   7.277  0.8279  0.9326  0.0176
13611SOL    HW245681   8.730   4.657   7.134 -2.8420  0.2426  0.0281
13612SOL     OW45682   3.531   1.254   1.656 -0.1706  0.1425 -0.0188
13612SOL    HW145683   3.598   1.244   1.723 -1.4677 -2.7177  1.0585
13612SOL    HW245684   3.571   1.220   1.576 -0.0509 -0.8651  0.4516
13613SOL     OW45685   6.388   4.845   3.461  0.2704 -0.3552 -0.0209
13613SOL    HW145686   6.338   4.830   3.541  0.7874  0.3616  0.4522
13613SOL    HW245687   6.322   4.851   3.392 -0.0992 -2.4301  0.0896
13614SOL     OW45688   8.879   8.222   4.721 -0.6225  0.0030 -0.2018
13614SOL    HW145689   8.851   8.277   4.648 -2.9495  0.4325  0.9402
13614SOL    HW245690   8.829   8.254   4.796  1.3783 -0.6880  1.5285
13615SOL     OW45691   3.350   7.191   8.636 -0.4421 -0.3118 -0.5657
13615SOL    HW145692   3.275   7.250   8.642  1.3217  1.8988  2.4594
13615SOL    HW245693   3.362   7.158   8.725  0.8234 -2.5238 -1.4594
13616SOL     OW45694   2.512   8.882   1.055  0.5026 -0.1727  0.1627
13616SOL    HW145695   2.554   8.870   0.969 -0.3461  2.3843 -0.6977
13616SOL    HW245696   2.463   8.964   1.046 -2.6369 -1.6841  1.9147
13617SOL     OW45697   5.717   7.814   3.490  0.1650  0.7024  0.1347
13617SOL    HW145698   5.650   7.870   3.530 -0.1543  1.5276 -1.4703
13617SOL    HW245699   5.800   7.855   3.513 -0.0113  1.0954  0.0800
13618SOL     OW45700   4.547   0.304   6.070 -0.5195 -0.4385  0.0059
13618SOL    HW145701   4.493   0.366   6.119 -0.0911 -1.1843  1.4587
13618SOL    HW245702   4.599   0.259   6.137  0.8234 -0.7861 -1.2138
13619SOL     OW45703   5.409   3.131   9.604  0.3988  0.0952  0.1900
13619SOL    HW145704   5.449   3.080   9.675  1.0396  0.6850  0.2641
13619SOL    HW245705   5.361   3.201   9.649 -0.0218 -0.1176  0.0725
13620SOL     OW45706   0.131   3.400   1.282  0.2022 -0.1795 -0.1678
13620SOL    HW145707   0.212   3.369   1.243 -0.7760 -2.2522 -0.7490
13620SOL    HW245708   0.087   3.448   1.211 -0.1333 -1.1648 -0.6520
13621SOL     OW45709   4.789   6.727   4.557 -0.5314 -0.1364 -0.2727
13621SOL    HW145710   4.812   6.640   4.525  2.7455  0.6847 -0.5151
13621SOL    HW245711   4.801   6.784   4.481  1.4223  1.0070  0.8022
13622SOL     OW45712   6.880   0.669   8.512  0.0976  0.1292 -0.2349
13622SOL    HW145713   6.973   0.691   8.516  0.1589  0.3962 -2.1639
13622SOL    HW245714   6.834   0.753   8.520  0.0491  0.0919 -0.1132
13623SOL     OW45715   3.239   8.284   2.088  0.3492 -0.4124  0.7609
13623SOL    HW145716   3.277   8.231   2.158  1.4949  0.1470  0.6013
13623SOL    HW245717   3.145   8.277   2.100  0.3891 -3.2351  0.1840
13624SOL     OW45718   9.405   5.024   0.949  0.2654  0.6186 -0.3331
13624SOL    HW145719   9.365   5.068   1.024 -0.9072  0.5536 -0.9006
13624SOL    HW245720   9.412   5.092   0.882  0.3913  0.4437 -0.4973
13625SOL     OW45721   7.374   8.448   8.010 -0.3828 -0.8380 -0.5946
13625SOL    HW145722   7.292   8.425   7.967 -0.6169 -3.6046  1.1421
13625SOL    HW245723   7.359   8.434   8.103  1.7221 -0.3123 -0.1089
13626SOL     OW45724   1.972   8.684   7.198  0.3661 -0.4259 -0.7473
13626SOL    HW145725   2.049   8.638   7.230  2.0569  3.1824  1.0265
13626SOL    HW245726   1.924   8.709   7.277 -1.3246 -0.4958 -1.6905
13627SOL     OW45727   3.613   9.363   4.450  0.3168  0.1832  0.4194
13627SOL    HW145728   3.578   9.444   4.414 -0.7442 -0.1232  0.7312
13627SOL    HW245729   3.574   9.294   4.396 -0.6871 -0.2411  1.6438
13628SOL     OW45730   8.686   7.892   3.029  0.3867  0.4300  0.5464
13628SOL    HW145731   8.651   7.850   3.107 -2.3376  3.7694  1.3765
13628SOL    HW245732   8.694   7.822   2.965 -2.7185 -1.5690  2.1092
13629SOL     OW45733   6.168   3.354   1.238 -0.1593  0.3568  0.2216
13629SOL    HW145734   6.149   3.431   1.185  0.1356  0.2443 -0.0541
13629SOL    HW245735   6.164   3.281   1.176  0.0524  0.2108  0.3790
13630SOL     OW45736   5.037   9.641   7.377 -0.2490  0.2982  0.6234
13630SOL    HW145737   4.990   9.724   7.388  0.5346  1.1853 -1.9815
13630SOL    HW245738   5.108   9.646   7.441 -1.3449  0.7385  1.8427
13631SOL     OW45739   0.847   8.304   2.818 -0.5625  0.6798 -0.0373
13631SOL    HW145740   0.757   8.331   2.837 -1.9001 -2.7986 -0.7087
13631SOL    HW245741   0.850   8.295   2.723  0.7155  1.3032 -0.0794
13632SOL     OW45742   3.154   0.846   2.058 -0.3872 -0.2522  0.2216
13632SOL    HW145743   3.240   0.864   2.094 -1.1236  0.7931  1.5650
13632SOL    HW245744   3.129   0.928   2.015 -1.5189  0.1824  1.6222
13633SOL     OW45745   1.679   3.016   2.240 -0.0499  0.2188  0.0452
13633SOL    HW145746   1.614   3.019   2.170  0.2161  2.8969 -0.1702
13633SOL    HW245747   1.761   3.040   2.197 -0.0182  2.6921  1.3408
13634SOL     OW45748   6.736   8.889   6.223  0.0344  0.5340 -0.5988
13634SOL    HW145749   6.736   8.894   6.128  1.0068  0.5161 -0.6119
13634SOL    HW245750   6.740   8.795   6.242 -0.4417  0.5249 -0.5341
13635SOL     OW45751   8.165   5.779   3.050 -0.4574  0.3550 -0.8546
13635SOL    HW145752   8.090   5.838   3.043 -0.6953  0.2551  0.5588
13635SOL    HW245753   8.134   5.707   3.104  0.0585 -0.7251 -1.9334
13636SOL     OW45754   3.264   3.080   6.521 -0.6290  0.3177 -0.3431
13636SOL    HW145755   3.182   3.061   6.476  0.5443 -1.1695 -2.0325
13636SOL    HW245756   3.255   3.039   6.607 -1.1927 -0.9871 -0.9986
13637SOL     OW45757   3.938   6.861   4.744 -0.7379  1.0542 -0.1084
13637SOL    HW145758   3.980   6.837   4.661  0.1959  0.5854  0.4762
13637SOL    HW245759   3.890   6.782   4.769  0.5964  0.4830  0.7577
13638SOL     OW45760   0.905   2.906   0.840 -0.4655  0.0212  0.4281
13638SOL    HW145761   0.901   2.914   0.744 -0.3761 -0.2788  0.3986
13638SOL    HW245762   0.927   2.994   0.870  0.1345 -0.0256  0.1373
13639SOL     OW45763   8.562   2.667   9.046 -0.4138  0.5895 -0.7141
13639SOL    HW145764   8.500   2.667   9.119 -0.1508  0.9474 -0.4904
13639SOL    HW245765   8.552   2.580   9.007 -2.4904  1.3229 -1.9099
13640SOL     OW45766   5.780   0.565   6.237  0.0043 -0.1439  0.6957
13640SOL    HW145767   5.835   0.581   6.161  1.6427 -1.6686  1.4905
13640SOL    HW245768   5.731   0.647   6.249  2.4407  1.4909  0.1963
13641SOL     OW45769   7.694   0.418   7.819 -0.3449 -0.0121  0.2770
13641SOL    HW145770   7.679   0.431   7.913 -0.8417 -1.3013  0.3956
13641SOL    HW245771   7.789   0.417   7.810 -0.2885 -0.0878  0.8019
13642SOL     OW45772   8.210   2.491   0.018  0.3027 -0.2855  0.3450
13642SOL    HW145773   8.243   2.410   0.057 -1.8064 -0.5592  1.7336
13642SOL    HW245774   8.228   2.483  -0.075  2.4440 -1.1647  0.7802
13643SOL     OW45775   1.687   0.809   2.134 -0.2525 -0.5313 -0.2131
13643SOL    HW145776   1.646   0.855   2.207 -1.1865  0.1346 -1.1338
13643SOL    HW245777   1.769   0.775   2.170 -1.4862 -1.7678  1.6642
13644SOL     OW45778   6.960   4.229   7.094  0.6897  0.7651  0.2387
13644SOL    HW145779   6.945   4.284   7.171 -3.0189  0.8530 -0.3548
13644SOL    HW245780   6.984   4.291   7.025 -3.7251  1.9807 -0.4995
13645SOL     OW45781   3.314   3.887   1.359 -0.1968  0.5954 -0.1354
13645SOL    HW145782   3.337   3.803   1.400 -0.0640  0.5809 -0.2386
13645SOL    HW245783   3.285   3.942   1.431 -1.2902  0.1277 -0.1865
13646SOL     OW45784   9.074   5.381   5.493 -0.2613  0.3191  0.9733
13646SOL    HW145785   9.036   5.467   5.512  1.6499  1.1032  1.4656
13646SOL    HW245786   9.039   5.358   5.407 -0.8468  1.5604  0.8575
13647SOL     OW45787   0.735   6.446   5.279  0.3875  0.0098  0.5131
13647SOL    HW145788   0.641   6.457   5.298  0.3713  1.8177 -0.3865
13647SOL    HW245789   0.779   6.485   5.355  0.3682  1.0793 -0.0040
13648SOL     OW45790   8.044   6.564   8.200 -0.4668 -0.2528 -0.4459
13648SOL    HW145791   7.983   6.496   8.228  0.7947 -1.3611 -0.3092
13648SOL    HW245792   8.003   6.646   8.228 -1.8379 -0.9619 -0.2779
13649SOL     OW45793   7.412   1.696   4.961  0.2358 -0.3812 -0.1074
13649SOL    HW145794   7.456   1.700   4.876 -0.4116 -0.3463 -0.4492
13649SOL    HW245795   7.401   1.787   4.987 -1.2909 -0.3069 -0.9102
13650SOL     OW45796   5.571   1.344   0.968 -0.4007  0.1058  0.6285
13650SOL    HW145797   5.619   1.274   0.924  2.5429  1.9744  0.6171
13650SOL    HW245798   5.512   1.299   1.029 -1.1539 -2.3940 -1.7655
13651SOL     OW45799   2.743   7.328   5.131 -0.3061  0.4584 -0.3440
13651SOL    HW145800   2.729   7.248   5.183 -0.5098 -0.0559 -1.1767
13651SOL    HW245801   2.704   7.308   5.046 -0.0407  1.3238 -0.6710
13652SOL     OW45802   4.909   2.014   7.449 -0.4752 -0.0748 -0.0168
13652SOL    HW145803   4.978   2.072   7.418 -0.7033  0.6764  0.8189
13652SOL    HW245804   4.939   1.926   7.427  0.8094  0.2289  0.4422
13653SOL     OW45805   4.735   5.905   4.572  0.3090  0.6252  0.1327
13653SOL    HW145806   4.679   5.828   4.584 -1.3685  1.5779 -1.1799
13653SOL    HW245807   4.674   5.978   4.562  1.8283  2.4328  2.7360
13654SOL     OW45808   3.247   3.429   5.275  0.0719 -0.4858 -0.0480
13654SOL    HW145809   3.300   3.444   5.353  0.3864  2.3717 -0.7144
13654SOL    HW245810   3.297   3.469   5.204 -2.2483  0.9771 -0.9641
13655SOL     OW45811   3.725   1.936   9.683  0.1049 -0.5148 -0.2400
13655SOL    HW145812   3.686   1.874   9.622 -0.9179  0.5974 -0.7748
13655SOL    HW245813   3.757   2.008   9.628  0.9634 -0.3957  0.3853
13656SOL     OW45814   5.980   0.534   0.335  0.3138 -0.4934 -0.2092
13656SOL    HW145815   5.887   0.516   0.325  0.5245 -1.7423 -0.1037
13656SOL    HW245816   6.024   0.460   0.294  1.2279 -2.1674  3.3649
13657SOL     OW45817   5.053   8.920   2.015 -0.3948 -0.0759  0.2796
13657SOL    HW145818   5.099   8.882   2.089  1.3287  0.2854 -0.5569
13657SOL    HW245819   5.117   8.977   1.973 -2.1603  1.9177  0.1103
13658SOL     OW45820   5.774   6.649   4.208 -0.3284 -0.1884 -0.4703
13658SOL    HW145821   5.856   6.666   4.255 -1.2703 -2.4948  2.2545
13658SOL    HW245822   5.756   6.731   4.161  1.9025  1.4845  1.3767
13659SOL     OW45823   1.426   0.090   0.337  0.0163 -0.8147 -0.1715
13659SOL    HW145824   1.502   0.071   0.392  0.5533  0.8246 -0.2975
13659SOL    HW245825   1.444   0.176   0.299 -2.1217 -0.1413  0.1664
13660SOL     OW45826   0.917   6.474   0.196  0.1025  0.3112 -0.2793
13660SOL    HW145827   0.905   6.404   0.132  0.2427  0.6641 -0.6974
13660SOL    HW245828   0.829   6.503   0.218 -0.0142 -0.6751  0.6739
13661SOL     OW45829   9.379   9.455   9.571  0.0605 -0.5610  0.3685
13661SOL    HW145830   9.321   9.462   9.495  0.4573 -2.3339 -0.1402
13661SOL    HW245831   9.329   9.403   9.634 -0.3843  1.1331  1.4981
13662SOL     OW45832   1.146   0.527   9.741  0.2564 -0.5275 -0.1087
13662SOL    HW145833   1.145   0.435   9.716 -0.5798 -0.5613  0.0069
13662SOL    HW245834   1.163   0.527   9.835  0.7213 -0.5419 -0.1945
13663SOL     OW45835   7.746   5.754   6.860 -0.6155  0.0282 -0.3299
13663SOL    HW145836   7.753   5.850   6.859 -2.1120  0.1606 -0.3454
13663SOL    HW245837   7.764   5.728   6.770  0.0074  0.2732 -0.2801
13664SOL     OW45838   0.902   8.704   8.572 -0.2902 -0.2840  0.0250
13664SOL    HW145839   0.876   8.612   8.563 -1.1129 -0.1423  0.8369
13664SOL    HW245840   0.821   8.750   8.597  0.7075  0.1764  2.7443
13665SOL     OW45841   0.507   8.765   6.301 -0.1633 -0.0503  0.0056
13665SOL    HW145842   0.418   8.733   6.284  0.1239  0.1644 -2.2698
13665SOL    HW245843   0.497   8.860   6.307  0.1471  0.2288 -2.7086
13666SOL     OW45844   4.047   6.910   4.995  0.1548  0.0399 -0.3239
13666SOL    HW145845   4.067   6.999   4.965 -1.2237  0.1090 -1.1221
13666SOL    HW245846   4.010   6.867   4.918  1.2440 -1.3944 -0.0821
13667SOL     OW45847   6.735   0.431   3.437  0.0222 -0.1845 -0.3968
13667SOL    HW145848   6.737   0.466   3.527  0.8440  0.5393 -0.6807
13667SOL    HW245849   6.731   0.336   3.448 -0.5157 -0.0799  0.4014
13668SOL     OW45850   9.128   7.047   4.966 -0.7418  0.0487  0.1655
13668SOL    HW145851   9.167   7.040   5.054  1.2536  3.2752 -0.2779
13668SOL    HW245852   9.102   7.139   4.959 -3.4504 -0.7501 -1.6964
13669SOL     OW45853   3.244   5.461   8.831 -0.5819  0.2484  0.2619
13669SOL    HW145854   3.316   5.484   8.888  0.3063 -1.5021 -0.0596
13669SOL    HW245855   3.273   5.381   8.787 -1.9414  0.5567 -1.3223
13670SOL     OW45856   7.186   3.632   1.334 -0.1490 -0.5808  0.0510
13670SOL    HW145857   7.095   3.607   1.352 -0.0515 -0.3469  0.9098
13670SOL    HW245858   7.205   3.702   1.397 -0.1771  1.1836 -1.7823
13671SOL     OW45859   5.592   5.493   5.781 -0.0048 -0.0253  0.2826
13671SOL    HW145860   5.664   5.437   5.808  1.2146  1.9136  1.2710
13671SOL    HW245861   5.613   5.517   5.691 -1.2838 -2.1858 -0.6844
13672SOL     OW45862   8.889   5.533   8.209  0.2438 -0.1597 -0.6229
13672SOL    HW145863   8.977   5.524   8.172  0.5778  0.9475 -0.1358
13672SOL    HW245864   8.901   5.583   8.289 -0.8018 -0.2413 -0.3929
13673SOL     OW45865   3.283   8.080   6.317 -0.4492 -0.3826 -0.0642
13673SOL    HW145866   3.226   8.149   6.284  0.8114  0.0664 -1.4269
13673SOL    HW245867   3.263   8.004   6.262  1.2894  0.2208 -1.6516
13674SOL     OW45868   3.947   4.015   1.620  0.3394 -0.4920 -0.2628
13674SOL    HW145869   3.876   4.048   1.675 -0.8908 -0.2332 -1.9414
13674SOL    HW245870   3.985   3.943   1.670 -1.6442 -1.1921  0.3320
13675SOL     OW45871   2.290   3.710   3.387  0.5185 -0.3242 -0.5654
13675SOL    HW145872   2.331   3.701   3.473  0.9246 -0.6352 -0.7844
13675SOL    HW245873   2.206   3.751   3.404  1.0064  0.5211 -0.1164
13676SOL     OW45874   0.863   8.913   3.358  0.7384 -0.2023 -0.3321
13676SOL    HW145875   0.894   8.883   3.444 -2.7818  0.0672  1.2029
13676SOL    HW245876   0.820   8.837   3.320  1.6214 -0.1059 -1.5491
13677SOL     OW45877   1.958   6.848   6.142 -0.2652  0.4745  0.6215
13677SOL    HW145878   2.010   6.926   6.125 -2.5521  1.4813 -2.9491
13677SOL    HW245879   2.019   6.775   6.134  1.0731  1.7053 -1.0545
13678SOL     OW45880   2.592   7.898   0.455  0.6115 -0.1190 -0.0230
13678SOL    HW145881   2.675   7.932   0.424  0.0148  0.0352 -1.5470
13678SOL    HW245882   2.572   7.949   0.533  0.9098  1.3702 -0.8772
13679SOL     OW45883   3.599   0.302   6.513  0.0221 -0.4111  0.1131
13679SOL    HW145884   3.561   0.228   6.466  0.4533 -0.4760 -0.1396
13679SOL    HW245885   3.591   0.278   6.606 -0.9382 -0.2280  0.0873
13680SOL     OW45886   6.302   8.801   5.928 -0.3971 -0.5593  0.2454
13680SOL    HW145887   6.373   8.801   5.864 -1.4517 -0.7450 -0.9706
13680SOL    HW245888   6.233   8.748   5.887 -0.8861 -1.1659  1.7948
13681SOL     OW45889   1.972   9.254   7.212 -0.5467 -0.5954  0.2026
13681SOL    HW145890   1.997   9.202   7.136 -0.2590 -2.3650  1.4617
13681SOL    HW245891   1.884   9.223   7.234  0.0256 -1.3341  1.5795
13682SOL     OW45892   3.665   8.481   3.690  0.5844  0.5111 -0.1659
13682SOL    HW145893   3.621   8.516   3.613 -1.1930 -0.0073  0.5511
13682SOL    HW245894   3.654   8.549   3.757  0.1524  0.0491  0.2452
13683SOL     OW45895   4.560   7.538   7.988 -0.1410 -0.2654 -0.1886
13683SOL    HW145896   4.504   7.616   7.983 -0.9021 -0.7249  0.8407
13683SOL    HW245897   4.545   7.493   7.905  0.9332  1.0761 -1.1565
13684SOL     OW45898   2.578   3.398   0.752 -0.3125 -0.2541  0.0284
13684SOL    HW145899   2.581   3.306   0.777 -0.7191 -0.5639 -0.9926
13684SOL    HW245900   2.582   3.397   0.656 -0.6576  0.7681 -0.0129
13685SOL     OW45901   4.133   5.621   1.548  0.4412  0.4908  0.4787
13685SOL    HW145902   4.207   5.573   1.511  0.9131  0.9174  0.8465
13685SOL    HW245903   4.085   5.654   1.472  1.5720  1.6187  0.2196
13686SOL     OW45904   0.484   4.500   7.151  0.1533  0.0743 -0.5119
13686SOL    HW145905   0.531   4.534   7.075  1.8639  0.4203  0.6516
13686SOL    HW245906   0.464   4.409   7.128  0.2821  0.2942 -1.5300
13687SOL     OW45907   4.095   4.116   5.239  0.0385 -0.1150 -0.3167
13687SOL    HW145908   4.024   4.142   5.181  1.1570  1.5966 -0.9858
13687SOL    HW245909   4.174   4.124   5.186  0.9279 -0.0797  0.9618
13688SOL     OW45910   5.283   8.393   2.727 -0.1656  0.9401 -0.3026
13688SOL    HW145911   5.192   8.365   2.728  0.2844 -0.8295  1.9718
13688SOL    HW245912   5.323   8.345   2.655 -0.1047 -2.2395  1.6241
13689SOL     OW45913   1.098   6.365   4.168 -0.4950  0.4148  0.2585
13689SOL    HW145914   1.145   6.388   4.248  1.2762  0.0307 -0.6045
13689SOL    HW245915   1.124   6.274   4.151  0.1168  0.8497 -1.3373
13690SOL     OW45916   1.261   1.538   0.756 -0.2554 -0.3344  0.5975
13690SOL    HW145917   1.264   1.530   0.660 -1.9318  0.7807  0.3936
13690SOL    HW245918   1.225   1.626   0.771 -0.4653 -0.6706  2.2470
13691SOL     OW45919   4.782   6.800   0.332 -0.4873  0.5819 -0.1580
13691SOL    HW145920   4.795   6.755   0.248 -0.8447  0.8388 -0.3560
13691SOL    HW245921   4.870   6.814   0.366 -0.2158  2.0939 -1.3506
13692SOL     OW45922   5.358   3.847   5.409  0.2392 -0.0028 -0.4481
13692SOL    HW145923   5.347   3.879   5.320 -1.4706  1.4776  0.2245
13692SOL    HW245924   5.397   3.920   5.457  0.3997 -0.4962  0.2002
13693SOL     OW45925   5.305   9.499   6.535  0.4820 -0.0700  0.4993
13693SOL    HW145926   5.358   9.425   6.566  1.3970  0.0328 -0.7556
13693SOL    HW245927   5.356   9.576   6.559  0.5226  0.0646 -0.0217
13694SOL     OW45928   0.051   4.603   0.712 -0.5928  0.2587  0.3441
13694SOL    HW145929  -0.031   4.588   0.664 -1.2859  1.1911  1.1921
13694SOL    HW245930   0.117   4.613   0.644 -1.3771  0.5650 -0.3963
13695SOL     OW45931   7.335   6.181   9.289  1.0345 -0.5000 -0.0209
13695SOL    HW145932   7.360   6.271   9.306  0.2561 -0.3977  0.6670
13695SOL    HW245933   7.416   6.131   9.298  1.3005  0.0141  0.4782
13696SOL     OW45934   8.305   8.377   2.131  0.7849  0.0396 -0.1434
13696SOL    HW145935   8.275   8.336   2.211 -0.4773 -2.2974 -1.6965
13696SOL    HW245936   8.360   8.311   2.089 -0.9881 -0.0442 -2.5600
13697SOL     OW45937   3.071   0.728   7.245  0.0818 -0.0280 -0.5245
13697SOL    HW145938   2.990   0.747   7.197  0.5332  0.8152 -0.9771
13697SOL    HW245939   3.094   0.811   7.287 -0.6316 -0.8845  1.7042
13698SOL     OW45940   0.401   4.266   1.791  0.4257  0.2131  0.0253
13698SOL    HW145941   0.424   4.280   1.699 -1.8474 -0.7858 -0.7557
13698SOL    HW245942   0.442   4.182   1.813 -1.0751 -0.8123 -0.8963
13699SOL     OW45943   0.273   2.765   0.402 -0.1368 -0.5812 -0.2734
13699SOL    HW145944   0.348   2.709   0.422  1.3553  1.0736 -0.9524
13699SOL    HW245945   0.229   2.722   0.329  0.2023 -1.5158  0.0594
13700SOL     OW45946   7.187   9.464   3.977  0.2618 -0.3256  0.6688
13700SOL    HW145947   7.184   9.447   3.883 -0.4702  0.9096  0.4425
13700SOL    HW245948   7.108   9.514   3.995  0.1972 -0.8589  2.0260
13701SOL     OW45949   1.527   7.997   0.314  0.0515  0.1477  0.0395
13701SOL    HW145950   1.475   7.922   0.344 -0.1259  0.9411  1.8714
13701SOL    HW245951   1.468   8.072   0.324  0.1764  0.5682 -1.9015
13702SOL     OW45952   6.613   1.801   2.389  0.2589  0.2904  0.0627
13702SOL    HW145953   6.529   1.804   2.434  0.8188  0.4688  1.1511
13702SOL    HW245954   6.650   1.888   2.400 -0.0012  0.6325 -1.6192
13703SOL     OW45955   2.301   3.466   0.737 -0.4290 -0.4243 -0.1722
13703SOL    HW145956   2.394   3.454   0.716 -0.5871 -0.1158 -1.1215
13703SOL    HW245957   2.257   3.403   0.681 -0.6188 -3.5727  3.1675
13704SOL     OW45958   6.416   1.432   3.722 -0.7298 -0.2304  0.0866
13704SOL    HW145959   6.360   1.507   3.736  1.1901  1.1159  0.9861
13704SOL    HW245960   6.418   1.387   3.806  2.5057  1.9667  1.3987
13705SOL     OW45961   5.174   4.937   8.669 -0.3994 -0.1638  0.1854
13705SOL    HW145962   5.079   4.932   8.671 -0.5335  1.8219  1.0217
13705SOL    HW245963   5.195   5.022   8.709  1.6601 -0.0405 -0.9768
13706SOL     OW45964   8.027   9.106   8.044 -0.1595  0.0796  0.3347
13706SOL    HW145965   8.119   9.081   8.052 -0.3220 -0.3164  0.9911
13706SOL    HW245966   8.030   9.201   8.028  0.3180  0.2812  1.5420
13707SOL     OW45967   6.602   4.434   8.677  0.4209  0.2067 -0.0919
13707SOL    HW145968   6.560   4.411   8.759  0.0297 -0.5620 -0.4987
13707SOL    HW245969   6.541   4.494   8.634 -0.8655 -1.8063 -1.2085
13708SOL     OW45970   3.916   6.182   6.943  0.1589 -0.1930  0.0160
13708SOL    HW145971   3.915   6.086   6.941 -2.1695 -0.2008 -1.2691
13708SOL    HW245972   3.921   6.207   6.850  1.2632  0.9647  0.3632
13709SOL     OW45973   8.362   7.667   5.898 -0.4279 -0.1205  0.0568
13709SOL    HW145974   8.410   7.585   5.905 -0.1276 -0.0220 -0.7543
13709SOL    HW245975   8.270   7.642   5.903 -0.4836 -0.8667 -2.8882
13710SOL     OW45976   8.952   0.350   4.162  0.7646  0.5067  0.2079
13710SOL    HW145977   8.904   0.407   4.102  0.1049  0.5366  0.7648
13710SOL    HW245978   8.980   0.277   4.106  2.3979  1.7563 -0.7241
13711SOL     OW45979   5.387   2.490   2.296  0.3956 -0.1066 -0.5863
13711SOL    HW145980   5.394   2.582   2.270  1.6076 -0.3545 -1.2188
13711SOL    HW245981   5.424   2.488   2.385  0.4820  0.0028 -0.6192
13712SOL     OW45982   0.463   5.798   4.608  0.1562  0.4127 -0.2136
13712SOL    HW145983   0.369   5.785   4.594  0.2192 -0.5402  0.2054
13712SOL    HW245984   0.469   5.878   4.660 -0.3565  1.1034 -1.1849
13713SOL     OW45985   8.603   1.427   2.790 -0.1717 -0.0518  0.0186
13713SOL    HW145986   8.557   1.353   2.829 -0.7571  0.1673 -0.2566
13713SOL    HW245987   8.609   1.492   2.860 -1.1538  0.3111 -0.2237
13714SOL     OW45988   0.727   2.090   5.356 -0.2589  0.0154 -0.1101
13714SOL    HW145989   0.671   2.015   5.337 -1.0320 -0.1441  2.4445
13714SOL    HW245990   0.666   2.161   5.376  0.4729  0.6610 -0.1216
13715SOL     OW45991   0.696   0.166   2.486  0.3282 -0.1624 -0.5682
13715SOL    HW145992   0.726   0.223   2.415 -0.7947 -0.4124 -1.2572
13715SOL    HW245993   0.673   0.084   2.444  1.7165 -1.0895  0.3949
13716SOL     OW45994   5.515   1.486   5.098  0.6499 -0.1558 -0.2727
13716SOL    HW145995   5.423   1.512   5.100 -0.0517 -2.4978 -0.2904
13716SOL    HW245996   5.543   1.489   5.189  0.7405  1.0723 -0.3239
13717SOL     OW45997   9.120   7.635   8.628 -0.6609  0.0181 -0.5033
13717SOL    HW145998   9.109   7.622   8.723 -0.7524 -1.4966 -0.6999
13717SOL    HW245999   9.032   7.621   8.592 -0.4712 -0.1751 -0.8910
13718SOL     OW46000   1.690   2.495   9.514  0.0646  0.2259  0.0819
13718SOL    HW146001   1.642   2.489   9.596  0.1997  2.8425  0.4237
13718SOL    HW246002   1.773   2.534   9.537  0.9418 -0.8770 -1.0543
13719SOL     OW46003   0.529   4.486   2.155  0.2076  0.8573 -0.3306
13719SOL    HW146004   0.607   4.538   2.135 -0.0219  0.1161 -3.8297
13719SOL    HW246005   0.550   4.398   2.122 -1.4536  0.1892  0.2849
13720SOL     OW46006   9.086   6.137   6.843 -0.1231  0.5306 -0.2827
13720SOL    HW146007   9.034   6.108   6.919  1.1873  1.8707  1.1974
13720SOL    HW246008   9.122   6.056   6.807 -1.7989 -0.2572 -0.3100
13721SOL     OW46009   5.376   1.108   8.371 -0.1094  0.4143  0.5955
13721SOL    HW146010   5.447   1.102   8.434  1.2842 -0.7051 -0.9719
13721SOL    HW246011   5.339   1.019   8.368 -2.5467  1.2909  2.3871
13722SOL     OW46012   1.057   0.410   2.688  0.0173  0.1509  0.2885
13722SOL    HW146013   1.031   0.475   2.754 -1.6965 -1.4989  1.3429
13722SOL    HW246014   1.112   0.347   2.737  0.1143 -0.1934 -0.2596
13723SOL     OW46015   4.723   5.687   7.707 -0.4067  0.2520  0.0529
13723SOL    HW146016   4.813   5.690   7.674 -0.3141  1.0388  0.3486
13723SOL    HW246017   4.703   5.594   7.715  0.6133  0.0652  0.6059
13724SOL     OW46018   7.104   3.829   4.080 -0.2715  0.3336  0.6955
13724SOL    HW146019   7.015   3.829   4.044  0.2278  0.2116 -0.6165
13724SOL    HW246020   7.127   3.921   4.086 -0.4639  0.3639  0.9833
13725SOL     OW46021   9.608   3.946   9.609  0.8920  0.4962  0.0230
13725SOL    HW146022   9.655   3.976   9.531  2.2426  1.4574  1.1495
13725SOL    HW246023   9.618   3.851   9.609  1.1631  0.5235 -0.7966
13726SOL     OW46024   7.024   1.428   0.107  0.0633  0.4452  0.8718
13726SOL    HW146025   6.957   1.409   0.041  0.4609  2.3225 -0.1470
13726SOL    HW246026   7.092   1.362   0.091 -0.1704  0.4294 -0.1292
13727SOL     OW46027   8.877   7.894   4.220  0.0147  0.6047  0.0644
13727SOL    HW146028   8.951   7.834   4.226  0.6851  1.4296  0.0492
13727SOL    HW246029   8.814   7.859   4.283 -0.0061 -0.6615 -0.6251
13728SOL     OW46030   8.662   6.925   1.958 -0.0975 -0.1990 -0.0011
13728SOL    HW146031   8.585   6.979   1.941  0.2619 -0.0152 -1.0825
13728SOL    HW246032   8.732   6.964   1.905  1.1207  0.4680  1.9947
13729SOL     OW46033   2.176   7.700   8.576 -0.3091 -0.1081  0.3098
13729SOL    HW146034   2.243   7.755   8.617  0.8282 -0.6073 -0.8135
13729SOL    HW246035   2.156   7.745   8.494 -0.5264 -0.5474  0.1226
13730SOL     OW46036   1.167   4.737   8.957  0.5879  0.2331  0.1515
13730SOL    HW146037   1.124   4.811   8.913 -2.0640  0.7242  3.1906
13730SOL    HW246038   1.244   4.775   8.998  0.4972  0.7991 -0.1869
13731SOL     OW46039   9.055   4.443   4.048  0.2687  0.1385 -0.2204
13731SOL    HW146040   9.119   4.505   4.012  0.6203 -0.3526 -0.4621
13731SOL    HW246041   9.030   4.480   4.132 -1.2027  1.7541 -1.3042
13732SOL     OW46042   7.835   8.263   9.664  0.0898  0.3565 -0.1032
13732SOL    HW146043   7.903   8.304   9.610  1.1083  3.0802  2.9057
13732SOL    HW246044   7.755   8.271   9.612  1.4447  0.2091 -2.3268
13733SOL     OW46045   3.035   8.028   2.175  0.4026 -0.1445 -0.3563
13733SOL    HW146046   3.011   7.955   2.232  1.4379 -0.9427 -0.8917
13733SOL    HW246047   3.005   8.001   2.088 -1.5124  1.2289 -0.1823
13734SOL     OW46048   7.434   9.623   0.437  0.1598  0.1376 -0.9497
13734SOL    HW146049   7.529   9.623   0.449  0.1154  2.4559 -0.0425
13734SOL    HW246050   7.403   9.550   0.491  1.4672 -1.2868 -2.0627
13735SOL     OW46051   2.595   7.331   1.855 -0.4915 -0.4511  0.4796
13735SOL    HW146052   2.526   7.393   1.831 -1.1954 -1.1502  0.6424
13735SOL    HW246053   2.548   7.251   1.880  0.4111 -1.2113 -0.1757
13736SOL     OW46054   1.908   3.821   2.113 -0.2985 -0.0728  0.3050
13736SOL    HW146055   1.879   3.827   2.022 -1.6847 -1.1806  0.6396
13736SOL    HW246056   1.837   3.775   2.158  0.5186  0.1382  1.8808
13737SOL     OW46057   3.541   2.252   7.265 -0.5542  0.3759  0.6249
13737SOL    HW146058   3.483   2.176   7.260  0.7517 -0.5867 -1.6899
13737SOL    HW246059   3.583   2.245   7.350 -1.0927 -1.0220  0.7963
13738SOL     OW46060   9.037   1.550   8.152 -0.3872 -0.1351 -0.0706
13738SOL    HW146061   8.955   1.568   8.105  0.1100  0.3622 -0.7557
13738SOL    HW246062   9.057   1.459   8.130 -1.0849 -0.4754  0.6228
13739SOL     OW46063   2.415   5.794   0.959  0.1989  0.0670 -0.2101
13739SOL    HW146064   2.352   5.722   0.962 -0.5747  0.7464  1.6550
13739SOL    HW246065   2.365   5.867   0.921 -0.1443  0.5481  1.0820
13740SOL     OW46066   2.600   9.106   4.816 -0.7848 -0.1607  0.0466
13740SOL    HW146067   2.532   9.169   4.839 -0.2560  0.6491 -0.5371
13740SOL    HW246068   2.680   9.159   4.808 -0.4692 -0.7836 -1.1751
13741SOL     OW46069   1.437   3.243   9.137 -0.3851  0.5200  0.8415
13741SOL    HW146070   1.405   3.190   9.064  0.6359  1.5670 -0.4139
13741SOL    HW246071   1.474   3.321   9.096  0.0394  1.2470  2.5057
13742SOL     OW46072   5.521   3.363   6.291  0.7108  0.7285 -0.3848
13742SOL    HW146073   5.568   3.433   6.336  2.3164 -0.4153 -0.1717
13742SOL    HW246074   5.590   3.316   6.243 -0.2549 -0.8733 -0.2698
13743SOL     OW46075   4.148   4.298   5.440  0.0073  0.2730  0.2110
13743SOL    HW146076   4.239   4.277   5.461 -0.4358 -0.4202  1.5171
13743SOL    HW246077   4.137   4.270   5.349  1.2411  0.8750 -0.1355
13744SOL     OW46078   5.506   5.532   3.397  0.3670 -0.2990  0.5902
13744SOL    HW146079   5.410   5.536   3.394  0.4106  0.3975 -0.4010
13744SOL    HW246080   5.531   5.597   3.462  0.1965  0.3603  0.0135
13745SOL     OW46081   1.810   3.895   7.306  0.2406  0.4405  0.3733
13745SOL    HW146082   1.774   3.928   7.224 -0.8771 -0.4620  0.4681
13745SOL    HW246083   1.871   3.826   7.280 -0.3839 -0.0915  0.3044
13746SOL     OW46084   1.689   8.815   0.875  1.0466  0.5267  0.1417
13746SOL    HW146085   1.775   8.854   0.893  0.9753 -0.4646  3.2161
13746SOL    HW246086   1.627   8.886   0.887  1.2662  0.6027  0.9181
13747SOL     OW46087   2.541   8.261   3.082 -0.0945  0.1110 -0.5579
13747SOL    HW146088   2.633   8.284   3.074 -0.0037 -0.6368 -1.9342
13747SOL    HW246089   2.508   8.261   2.992 -1.5297  0.6738 -0.0731
13748SOL     OW46090   6.359   1.342   9.634  0.0246  0.0744 -0.1072
13748SOL    HW146091   6.431   1.288   9.602  1.1735  1.9027 -0.7478
13748SOL    HW246092   6.401   1.412   9.684 -1.5469 -0.8049  2.6574
13749SOL     OW46093   5.309   3.474   1.618  0.1954 -0.1320  0.7301
13749SOL    HW146094   5.313   3.504   1.709 -0.7938 -1.7216  1.3191
13749SOL    HW246095   5.216   3.458   1.602  0.2233  1.1111 -0.9241
13750SOL     OW46096   3.668   4.359   4.338  0.8446 -0.0885  0.0788
13750SOL    HW146097   3.749   4.308   4.340  0.4660 -0.9172 -2.4287
13750SOL    HW246098   3.625   4.332   4.257 -0.8743  1.9872  0.2231
13751SOL     OW46099   1.468   2.489   2.058 -0.5123 -1.1981 -0.0007
13751SOL    HW146100   1.513   2.460   2.137  1.4716  1.2817 -0.0705
13751SOL    HW246101   1.506   2.435   1.988  1.5078 -0.0447  0.1354
13752SOL     OW46102   4.985   7.623   2.909  0.4869  0.1083 -0.2787
13752SOL    HW146103   5.017   7.583   2.990  0.2031 -0.8495 -0.6236
13752SOL    HW246104   4.909   7.674   2.936  0.2549 -0.3891  0.0328
13753SOL     OW46105   7.945   3.911   4.411 -0.5173 -0.1441  0.1112
13753SOL    HW146106   7.868   3.968   4.399 -0.2208  0.1994 -0.1797
13753SOL    HW246107   7.930   3.869   4.495 -2.1739 -1.8228 -0.9352
13754SOL     OW46108   5.506   5.019   8.001  0.8035 -0.3304  0.0422
13754SOL    HW146109   5.454   4.988   7.927  1.0991  0.2813 -0.4296
13754SOL    HW246110   5.441   5.049   8.065  0.5338 -1.3638  0.2709
13755SOL     OW46111   5.726   9.066   7.406 -0.0454  0.1532 -0.0152
13755SOL    HW146112   5.721   8.970   7.414  0.0428  0.1987  0.5669
13755SOL    HW246113   5.797   9.080   7.343  1.6358 -0.1102  1.7518
13756SOL     OW46114   7.019   4.427   6.580 -0.4777 -0.6286  0.1686
13756SOL    HW146115   7.042   4.515   6.549 -0.2764 -0.8419 -0.3032
13756SOL    HW246116   6.936   4.407   6.536 -0.6518 -0.5717  0.4737
13757SOL     OW46117   9.365   5.286   4.655  0.4419  0.5093 -0.2689
13757SOL    HW146118   9.295   5.329   4.705  0.0884 -1.7416  1.3554
13757SOL    HW246119   9.324   5.206   4.622  1.4393  0.6511 -1.9623
13758SOL     OW46120   1.413   7.372   2.958 -0.4762  0.0468 -0.3140
13758SOL    HW146121   1.351   7.358   2.886 -2.8887 -0.8177  1.7905
13758SOL    HW246122   1.458   7.288   2.968 -1.1089 -0.2623  0.0077
13759SOL     OW46123   0.201   7.724   6.800 -0.4797 -0.6989 -0.4617
13759SOL    HW146124   0.139   7.684   6.861  0.2503 -1.1651 -0.0053
13759SOL    HW246125   0.230   7.804   6.844  1.0122 -1.6697  0.4359
13760SOL     OW46126   7.319   1.767   2.285 -0.3004 -0.4847  0.6511
13760SOL    HW146127   7.261   1.835   2.318 -1.3948 -0.0892 -1.8328
13760SOL    HW246128   7.404   1.786   2.325 -0.8725  1.5934  0.9789
13761SOL     OW46129   5.876   9.677   6.945 -0.3279 -0.4000  0.2002
13761SOL    HW146130   5.970   9.685   6.962 -0.2109  2.7604 -1.0775
13761SOL    HW246131   5.836   9.746   6.998 -1.6914 -0.5646 -0.5599
13762SOL     OW46132   1.100   7.976   6.846 -0.0138 -0.3419 -0.3030
13762SOL    HW146133   1.112   7.912   6.776  0.4239 -0.0687 -0.4874
13762SOL    HW246134   1.114   8.061   6.803 -0.3096 -0.1423 -0.0055
13763SOL     OW46135   4.266   8.403   6.259  0.1281  0.3835 -0.2873
13763SOL    HW146136   4.361   8.400   6.248  0.2563  0.0465  0.7921
13763SOL    HW246137   4.249   8.491   6.294  0.1305  0.1857  0.2188
13764SOL     OW46138   7.712   1.391   3.600  0.2265  0.0497 -0.1653
13764SOL    HW146139   7.803   1.402   3.628 -0.0262  0.5567  0.4876
13764SOL    HW246140   7.696   1.297   3.606  0.9887 -0.1620 -1.2018
13765SOL     OW46141   2.607   3.141   0.838 -0.3553  0.2285  0.6377
13765SOL    HW146142   2.675   3.103   0.783  1.3884  1.9083  1.4961
13765SOL    HW246143   2.617   3.097   0.922  0.4461  1.2228  1.0867
13766SOL     OW46144   7.083   2.870   6.813 -0.0858 -0.6471  0.1912
13766SOL    HW146145   7.086   2.964   6.795  0.0755 -1.1670 -2.9824
13766SOL    HW246146   7.160   2.855   6.868 -0.0891  1.0451  0.7369
13767SOL     OW46147   3.397   2.574   9.105  0.7705 -0.3774 -0.6782
13767SOL    HW146148   3.325   2.593   9.046 -0.0425 -0.6963  0.1843
13767SOL    HW246149   3.402   2.479   9.108 -0.6495 -0.4613  1.4053
13768SOL     OW46150   8.602   4.616   2.098  0.3996  0.4958 -0.4487
13768SOL    HW146151   8.640   4.544   2.048  0.9368  0.4280  0.0445
13768SOL    HW246152   8.508   4.608   2.085  0.4984  0.0904 -0.9197
13769SOL     OW46153   7.161   6.025   3.817  0.3625  0.0834  0.1901
13769SOL    HW146154   7.225   5.973   3.866  1.1844  1.3412  0.5061
13769SOL    HW246155   7.139   6.098   3.875 -1.0760 -0.1015 -0.0818
13770SOL     OW46156   9.205   5.697   7.662  0.2787  0.0742 -0.5339
13770SOL    HW146157   9.228   5.737   7.746 -0.3921  0.3889 -0.4956
13770SOL    HW246158   9.271   5.729   7.601  0.7141 -0.0782 -0.1492
13771SOL     OW46159   9.404   0.251   1.932  1.0164  0.5326  0.1721
13771SOL    HW146160   9.478   0.304   1.903  0.3724  1.0246 -0.6091
13771SOL    HW246161   9.433   0.211   2.014  2.5679 -0.1630 -0.6718
13772SOL     OW46162   6.621   6.073   3.170  0.3415  0.6800 -0.4511
13772SOL    HW146163   6.542   6.019   3.162 -0.0882  1.4037 -1.2042
13772SOL    HW246164   6.594   6.149   3.221  1.2127 -0.2895  1.5385
13773SOL     OW46165   7.691   1.889   8.886 -0.4944 -0.0428  0.0940
13773SOL    HW146166   7.775   1.857   8.853 -0.8254 -1.6230  0.6884
13773SOL    HW246167   7.713   1.967   8.937  0.8614 -1.4249  1.7317
13774SOL     OW46168   2.192   8.343   2.825  0.3523  0.6516  0.0205
13774SOL    HW146169   2.211   8.274   2.761  0.0989 -1.5691  2.2155
13774SOL    HW246170   2.278   8.366   2.861  0.2113 -0.4760  1.1487
13775SOL     OW46171   7.962   7.192   9.009  0.1677 -0.1061 -0.8846
13775SOL    HW146172   7.946   7.131   8.937  1.6254  0.4901 -1.7504
13775SOL    HW246173   7.971   7.277   8.967  0.9861  0.2646 -0.0016
13776SOL     OW46174   6.938   8.796   8.064  0.0088  0.0644  0.2516
13776SOL    HW146175   6.997   8.841   8.123  1.4996  0.1504 -1.2379
13776SOL    HW246176   6.973   8.812   7.976 -2.7067  0.8411 -0.8115
13777SOL     OW46177   9.336   5.737   8.559 -0.2748  0.1832 -0.2872
13777SOL    HW146178   9.260   5.794   8.565  0.8004  1.5327  1.2560
13777SOL    HW246179   9.401   5.776   8.618  1.9912 -0.3503 -2.2632
13778SOL     OW46180   1.655   6.823   6.482 -0.0825 -0.1030  0.6598
13778SOL    HW146181   1.597   6.756   6.446 -0.9128  1.9219 -2.1689
13778SOL    HW246182   1.602   6.903   6.482  1.2967  0.8950  2.5445
13779SOL     OW46183   0.903   0.230   5.153  1.0612 -0.2777 -0.5169
13779SOL    HW146184   0.860   0.214   5.237 -1.6369 -0.7806 -1.8601
13779SOL    HW246185   0.848   0.295   5.110  3.0892  0.9134 -1.4385
13780SOL     OW46186   7.131   7.430   2.450 -0.3229  0.1048 -0.9017
13780SOL    HW146187   7.192   7.457   2.382 -0.2905 -0.2636 -1.0215
13780SOL    HW246188   7.157   7.481   2.527 -0.4847  0.6648 -1.2170
13781SOL     OW46189   8.191   8.413   6.674  0.0159 -0.4853 -0.0608
13781SOL    HW146190   8.178   8.413   6.579  0.2519 -0.0601 -0.0950
13781SOL    HW246191   8.206   8.505   6.696  1.0560 -0.7191  0.2366
13782SOL     OW46192   5.863   5.155   4.012 -0.1629  0.4245  0.3939
13782SOL    HW146193   5.793   5.118   4.066 -0.5838  0.9856  0.2399
13782SOL    HW246194   5.865   5.248   4.035  0.9415  0.3020  0.8349
13783SOL     OW46195   3.514   7.297   3.417  0.9824 -0.4077 -0.2686
13783SOL    HW146196   3.427   7.266   3.441  0.8254 -0.2834 -0.6562
13783SOL    HW246197   3.526   7.267   3.327  2.0340 -1.8754  0.3310
13784SOL     OW46198   8.938   5.493   7.917  0.8918 -0.1127 -0.1902
13784SOL    HW146199   9.024   5.534   7.929 -0.0115  1.5355  0.9877
13784SOL    HW246200   8.899   5.493   8.004 -0.3462 -0.7975 -0.7217
13785SOL     OW46201   1.680   1.069   5.916 -0.5585  0.6472  0.7694
13785SOL    HW146202   1.608   1.059   5.978 -0.2296 -1.2882  0.9279
13785SOL    HW246203   1.745   1.005   5.946 -0.1290  0.1050 -1.1905
13786SOL     OW46204   9.626   1.464   9.612  0.0712 -0.1148  0.0234
13786SOL    HW146205   9.686   1.526   9.653 -0.3485  0.3005  0.0127
13786SOL    HW246206   9.587   1.513   9.540 -1.1971  0.0205  0.7742
13787SOL     OW46207   5.652   7.953   2.549 -0.6021  0.8353  0.2504
13787SOL    HW146208   5.680   7.867   2.521 -0.5167  1.9035 -3.3896
13787SOL    HW246209   5.727   7.989   2.597  0.2370 -0.1962 -0.2556
13788SOL     OW46210   8.689   7.816   4.403  0.8168  0.1576  0.4161
13788SOL    HW146211   8.623   7.751   4.427  1.2366 -0.2398  0.5102
13788SOL    HW246212   8.716   7.854   4.486  0.5307  0.4922  0.3554
13789SOL     OW46213   7.762   3.389   4.239  0.9192  0.6592  0.7400
13789SOL    HW146214   7.743   3.468   4.290 -0.4629  0.1386  1.0780
13789SOL    HW246215   7.723   3.407   4.153  2.9279  1.3884 -0.0964
13790SOL     OW46216   1.180   4.117   6.401  0.6748 -0.0976 -0.2418
13790SOL    HW146217   1.159   4.170   6.477 -0.5822 -0.9782  0.0625
13790SOL    HW246218   1.109   4.053   6.396  0.6160  0.0536 -2.2644
13791SOL     OW46219   9.624   1.145   8.881 -0.0824  0.5109 -0.2954
13791SOL    HW146220   9.571   1.077   8.838 -1.4786  0.8415  0.8253
13791SOL    HW246221   9.684   1.174   8.813  1.4401 -2.6619 -0.5155
13792SOL     OW46222   2.508   4.852   8.248  0.3730 -0.0803  0.1968
13792SOL    HW146223   2.590   4.831   8.292 -0.2592 -0.8950  1.0312
13792SOL    HW246224   2.534   4.889   8.163  1.5826 -0.3424  0.4431
13793SOL     OW46225   8.150   7.037   1.605  0.1568 -0.0964  0.3924
13793SOL    HW146226   8.112   6.982   1.536 -0.3236 -1.2662  1.5348
13793SOL    HW246227   8.219   6.983   1.643  0.6469  0.6680  0.6074
13794SOL     OW46228   3.136   3.516   6.483  0.3543  0.8932 -0.3650
13794SOL    HW146229   3.068   3.523   6.550 -1.8352 -0.2197 -2.3624
13794SOL    HW246230   3.136   3.601   6.439 -1.8885  0.0169 -2.2280
13795SOL     OW46231   0.246   4.419   8.374 -0.6508  0.0388  0.3274
13795SOL    HW146232   0.152   4.406   8.367 -0.4914 -0.4303 -1.2969
13795SOL    HW246233   0.271   4.461   8.292  0.5238  0.3529  0.8237
13796SOL     OW46234   6.777   0.912   3.107 -0.7539 -0.0696  0.3929
13796SOL    HW146235   6.719   0.848   3.065 -1.5206  0.8709 -0.0376
13796SOL    HW246236   6.750   0.996   3.069 -2.0712  0.9752  3.3482
13797SOL     OW46237   9.753   8.276   5.956  0.6012 -0.4166 -0.4313
13797SOL    HW146238   9.747   8.292   6.050  0.8546 -0.3441 -0.4248
13797SOL    HW246239   9.670   8.308   5.920  0.5318 -0.3857 -0.2393
13798SOL     OW46240   2.327   9.234   6.325  0.4408  0.3791  0.0736
13798SOL    HW146241   2.359   9.231   6.235  1.5138  1.5590  0.3819
13798SOL    HW246242   2.261   9.303   6.325  0.6731  0.6059  0.2413
13799SOL     OW46243   4.333   4.666   1.144 -0.3757 -0.3798 -0.0214
13799SOL    HW146244   4.277   4.708   1.079 -0.0546  0.7652  0.4180
13799SOL    HW246245   4.400   4.621   1.093 -0.1880  0.4165 -0.4798
13800SOL     OW46246   7.055   2.348   1.810  0.2393 -0.4064  0.4721
13800SOL    HW146247   7.111   2.288   1.762  0.5573  0.2919 -0.0391
13800SOL    HW246248   7.081   2.435   1.781 -0.0203  0.0024  1.4118
13801SOL     OW46249   6.960   3.551   9.354  0.2451  0.1018 -0.2742
13801SOL    HW146250   6.966   3.483   9.422 -2.2617  0.6477  0.5942
13801SOL    HW246251   6.904   3.513   9.287 -0.8746  1.1180  0.0427
13802SOL     OW46252   2.371   1.659   6.144  0.0772 -0.2791 -0.4331
13802SOL    HW146253   2.331   1.609   6.072 -2.5321 -0.4734  1.0081
13802SOL    HW246254   2.348   1.750   6.126  1.5483 -0.0172 -1.0818
13803SOL     OW46255   8.656   8.455   4.166 -0.5890  0.0569 -0.2729
13803SOL    HW146256   8.688   8.531   4.116  3.2905 -1.0596  0.1885
13803SOL    HW246257   8.692   8.379   4.120  0.2149 -1.1634  2.1805
13804SOL     OW46258   8.012   4.492   6.237 -0.2201  0.4938  0.3283
13804SOL    HW146259   7.982   4.401   6.238  0.7007  0.0719 -2.2840
13804SOL    HW246260   7.937   4.543   6.266 -2.0931 -0.8422 -1.8496
13805SOL     OW46261   3.560   1.974   7.097 -0.3275 -0.5933  0.3016
13805SOL    HW146262   3.568   2.058   7.051  0.0874 -0.6672  0.2367
13805SOL    HW246263   3.498   1.924   7.044 -0.4918 -0.3683  0.2796
13806SOL     OW46264   8.612   1.580   1.781 -0.0925  0.8231  0.3700
13806SOL    HW146265   8.658   1.513   1.731  0.0100  1.3270 -0.2267
13806SOL    HW246266   8.633   1.662   1.736 -0.9121  1.1556  0.5750
13807SOL     OW46267   3.736   9.550   6.329  0.2066  0.3150  0.5738
13807SOL    HW146268   3.655   9.578   6.370  1.0684  2.3389  1.0112
13807SOL    HW246269   3.768   9.480   6.386 -0.9708 -0.1714  0.6639
13808SOL     OW46270   3.735   7.158   2.651  0.7188  0.5211 -0.7585
13808SOL    HW146271   3.760   7.066   2.639 -1.0647 -0.2646  1.0930
13808SOL    HW246272   3.640   7.156   2.658  0.6752  2.4951 -0.3580
13809SOL     OW46273   3.890   1.361   0.007  0.5456  0.0633  0.0615
13809SOL    HW146274   3.816   1.323   0.055  1.1844 -1.9233 -0.4292
13809SOL    HW246275   3.850   1.424  -0.053 -0.6982 -0.5981  0.1587
13810SOL     OW46276   0.547   1.005   5.898 -0.2658  0.7754 -0.0204
13810SOL    HW146277   0.541   1.082   5.841  1.7866  0.2092 -1.0947
13810SOL    HW246278   0.640   0.984   5.900 -0.4981 -0.3064  2.1547
13811SOL     OW46279   1.919   5.734   8.430 -0.1855  0.0877  0.0979
13811SOL    HW146280   1.868   5.675   8.486 -0.8911  0.2735 -0.3339
13811SOL    HW246281   1.892   5.822   8.458  1.3751  0.2343  1.2157
13812SOL     OW46282   5.330   1.766   8.813  0.1222 -0.7373 -0.2620
13812SOL    HW146283   5.250   1.754   8.863 -0.2492 -0.6448 -0.8253
13812SOL    HW246284   5.308   1.831   8.747  0.6594 -0.7124 -0.4241
13813SOL     OW46285   0.702   0.462   5.988  0.3689  0.7700 -0.3282
13813SOL    HW146286   0.783   0.462   6.037  0.0266 -1.9715  0.4219
13813SOL    HW246287   0.670   0.552   5.993  1.1046  0.9784  3.2305
13814SOL     OW46288   1.122   8.482   1.744 -0.0445 -0.7699  0.4048
13814SOL    HW146289   1.114   8.568   1.702 -1.4243  0.4116  2.8786
13814SOL    HW246290   1.213   8.456   1.729  0.5843  1.4133  0.1009
13815SOL     OW46291   1.781   8.547   3.493 -0.3356  0.0936  0.3835
13815SOL    HW146292   1.807   8.518   3.580 -0.2986  0.5879  0.5395
13815SOL    HW246293   1.705   8.492   3.470 -0.2448 -0.1445  0.6565
13816SOL     OW46294   3.673   5.188   0.029  0.3557 -0.0870  0.2455
13816SOL    HW146295   3.609   5.226  -0.032  0.1664 -0.4246  0.2299
13816SOL    HW246296   3.670   5.246   0.105 -0.3295 -0.3729  0.4425
13817SOL     OW46297   4.140   5.188   3.648 -0.3784  0.2882 -0.0106
13817SOL    HW146298   4.107   5.099   3.660  0.7983 -0.3958 -1.4703
13817SOL    HW246299   4.134   5.228   3.735  2.3628 -2.3845  1.5969
13818SOL     OW46300   1.359   8.492   4.947 -0.7957  0.1038  0.8450
13818SOL    HW146301   1.378   8.552   5.019  0.5566  0.5574  0.1513
13818SOL    HW246302   1.283   8.529   4.904  0.1754  1.5160  0.2688
13819SOL     OW46303   7.766   5.405   1.957  0.3020 -0.1945 -0.0852
13819SOL    HW146304   7.785   5.424   2.049  0.9291  1.1596 -0.4691
13819SOL    HW246305   7.693   5.463   1.935  2.1533  1.8229 -1.2500
13820SOL     OW46306   1.232   5.620   2.083 -0.2399 -0.4335  0.3327
13820SOL    HW146307   1.188   5.647   2.164 -0.0981  0.6446  0.0554
13820SOL    HW246308   1.222   5.694   2.024  0.9215 -0.6471 -0.1498
13821SOL     OW46309   3.336   7.996   1.475 -0.7068  0.5251  0.3484
13821SOL    HW146310   3.338   7.904   1.448  0.9539  0.6006  0.0676
13821SOL    HW246311   3.427   8.025   1.467 -1.1625  2.1463  0.6204
13822SOL     OW46312   6.403   1.172   7.206 -0.9082  0.0103 -0.1559
13822SOL    HW146313   6.480   1.212   7.246 -0.6681 -0.0217 -0.5846
13822SOL    HW246314   6.385   1.226   7.129 -1.8093  0.5126  0.3883
13823SOL     OW46315   3.790   2.471   6.861 -0.6824 -0.1386  0.4427
13823SOL    HW146316   3.834   2.473   6.776 -5.2117 -0.5597 -2.2771
13823SOL    HW246317   3.813   2.386   6.898  1.8435  0.2848 -0.0041
13824SOL     OW46318   9.577   4.343   3.142 -0.0380  0.2643 -0.4623
13824SOL    HW146319   9.555   4.428   3.104  2.2027  1.7064  1.1969
13824SOL    HW246320   9.507   4.285   3.112 -1.2281  2.4751 -2.3229
13825SOL     OW46321   0.902   5.991   9.097  0.3327  0.2900  0.2047
13825SOL    HW146322   0.850   5.931   9.044 -0.5923 -0.8913  2.3209
13825SOL    HW246323   0.880   5.969   9.187  1.9215  2.1186  1.1237
13826SOL     OW46324   3.960   4.368   0.077  0.1386 -0.5393  0.5064
13826SOL    HW146325   3.961   4.412   0.162  0.0937 -1.1438  0.8256
13826SOL    HW246326   4.038   4.312   0.078  0.9129  0.4976 -0.4200
13827SOL     OW46327   2.638   5.193   2.255  0.2849  0.5033 -0.0041
13827SOL    HW146328   2.660   5.136   2.181 -1.5895  1.5866 -1.4643
13827SOL    HW246329   2.632   5.133   2.330  1.1176 -0.7852 -0.9177
13828SOL     OW46330   6.180   0.592   0.800  0.0035 -0.5547 -0.2885
13828SOL    HW146331   6.138   0.673   0.769  1.1583  0.1460 -0.0867
13828SOL    HW246332   6.131   0.522   0.757 -1.0000  0.2464 -0.4979
13829SOL     OW46333   7.579   8.207   6.420  0.3439  0.1607 -0.2914
13829SOL    HW146334   7.632   8.128   6.436  0.8313  0.5514  0.0460
13829SOL    HW246335   7.613   8.271   6.482 -0.8564  0.2753  0.2730
13830SOL     OW46336   3.640   7.377   9.430  0.1990 -1.1853 -0.0466
13830SOL    HW146337   3.649   7.447   9.495 -1.5894  0.0065 -1.0056
13830SOL    HW246338   3.579   7.316   9.469  0.2217 -1.1981 -0.0308
13831SOL     OW46339   5.115   3.030   6.907 -0.3508  0.2133  0.1051
13831SOL    HW146340   5.157   2.973   6.842 -1.1314 -0.5346  0.2400
13831SOL    HW246341   5.080   2.969   6.972  1.7811  0.9908  2.0968
13832SOL     OW46342   9.174   3.618   6.450 -0.2659 -0.2381  0.5387
13832SOL    HW146343   9.245   3.644   6.391 -1.6403  1.0241 -0.6485
13832SOL    HW246344   9.197   3.658   6.534  0.1965  0.5500  0.0470
13833SOL     OW46345   3.693   2.095   8.723  0.4969 -0.0787  0.1304
13833SOL    HW146346   3.618   2.139   8.682  0.6985 -1.0714 -1.3580
13833SOL    HW246347   3.660   2.067   8.809 -0.7274 -0.1734 -0.3436
13834SOL     OW46348   2.310   1.637   9.392  0.0133  0.6838  0.3845
13834SOL    HW146349   2.220   1.647   9.423 -0.2421  0.9813 -0.4373
13834SOL    HW246350   2.364   1.654   9.469 -0.6472 -3.0082  1.8958
13835SOL     OW46351   3.204   9.389   0.103 -0.2265  0.4904 -0.2108
13835SOL    HW146352   3.245   9.421   0.023  0.4643  1.3187  0.4533
13835SOL    HW246353   3.132   9.450   0.119 -1.9067 -1.0639 -1.4741
13836SOL     OW46354   7.663   8.147   6.711 -0.3734 -1.0000  0.4687
13836SOL    HW146355   7.628   8.226   6.751 -0.0435 -1.6729  2.1424
13836SOL    HW246356   7.618   8.074   6.755  0.8324 -1.7867  0.4629
13837SOL     OW46357   8.734   6.623   4.195  0.4162 -0.2740  0.0528
13837SOL    HW146358   8.824   6.654   4.210  0.4270 -0.7242  0.9359
13837SOL    HW246359   8.686   6.702   4.168  0.6851  0.3181  1.2448
13838SOL     OW46360   5.745   7.846   0.027 -0.4309  1.1401 -0.2814
13838SOL    HW146361   5.840   7.851   0.017 -0.2566  0.0195  0.5094
13838SOL    HW246362   5.716   7.795  -0.048 -0.2525  0.4744  0.0951
13839SOL     OW46363   6.754   9.024   9.701 -0.0613  0.2199 -0.0384
13839SOL    HW146364   6.834   8.994   9.659  0.7983 -0.3300  1.8648
13839SOL    HW246365   6.771   9.116   9.724 -1.5464  1.4042 -3.1486
13840SOL     OW46366   0.021   5.752   7.448 -0.3240 -0.4173  0.2753
13840SOL    HW146367   0.002   5.668   7.407 -1.0294 -0.3008  0.3374
13840SOL    HW246368   0.015   5.735   7.542 -0.4634 -0.3084  0.2884
13841SOL     OW46369   6.513   0.201   0.277  0.3067  0.2047 -0.0845
13841SOL    HW146370   6.450   0.211   0.348 -1.4668  3.7008 -1.8840
13841SOL    HW246371   6.465   0.156   0.208 -0.0137  1.9158 -1.0559
13842SOL     OW46372   8.598   3.460   3.683 -0.5066  0.7144  0.3334
13842SOL    HW146373   8.663   3.527   3.663 -1.3308  1.0650 -1.4367
13842SOL    HW246374   8.574   3.475   3.774  1.4460  0.9323  0.8522
13843SOL     OW46375   5.569   1.431   4.796  0.1921 -0.2321  0.4177
13843SOL    HW146376   5.532   1.442   4.708  0.0548 -2.6118  0.1081
13843SOL    HW246377   5.498   1.455   4.855 -1.0598 -2.3021 -0.1679
13844SOL     OW46378   4.480   5.687   1.667 -0.6691 -0.7502  0.1038
13844SOL    HW146379   4.437   5.661   1.748 -1.4716 -1.3709 -0.4935
13844SOL    HW246380   4.493   5.605   1.619  2.3610 -0.7773  0.7626
13845SOL     OW46381   1.839   6.276   1.316 -0.1443 -1.1945 -0.2169
13845SOL    HW146382   1.804   6.353   1.271 -0.9749 -1.5343 -0.1696
13845SOL    HW246383   1.862   6.307   1.403  1.2160 -0.5954 -0.7620
13846SOL     OW46384   3.468   4.767   5.469  0.2728 -0.0441  0.0513
13846SOL    HW146385   3.390   4.719   5.494 -0.8836  0.0155 -3.0206
13846SOL    HW246386   3.442   4.859   5.471  1.1262  0.2035  1.5504
13847SOL     OW46387   3.885   3.993   3.585 -0.2052 -0.0479  0.2341
13847SOL    HW146388   3.977   4.012   3.567 -0.5045  1.4552  0.2024
13847SOL    HW246389   3.873   3.904   3.552  0.8675  0.2680 -1.1117
13848SOL     OW46390   5.553   6.211   7.956  0.3824  0.9360  0.0768
13848SOL    HW146391   5.509   6.167   7.883 -0.9542 -0.9482  1.9167
13848SOL    HW246392   5.507   6.294   7.965 -1.2378  0.0397  0.4049
13849SOL     OW46393   0.251   1.136   7.518  0.5500  0.0911 -0.4041
13849SOL    HW146394   0.328   1.142   7.461 -0.2880  1.0595 -1.4841
13849SOL    HW246395   0.176   1.144   7.459 -0.4270 -1.7242  0.5149
13850SOL     OW46396   2.875   0.984   4.325 -0.3064  0.4270 -0.2162
13850SOL    HW146397   2.815   0.952   4.258  0.5016 -0.0552 -0.7259
13850SOL    HW246398   2.959   0.944   4.303  0.0908  0.6906  0.7761
13851SOL     OW46399   9.463   3.209   4.248  0.4058 -0.1949  0.7298
13851SOL    HW146400   9.429   3.218   4.159 -0.4740 -1.1003  0.9617
13851SOL    HW246401   9.538   3.268   4.251  0.1704  0.1849 -0.4721
13852SOL     OW46402   6.625   3.218   6.543  0.0486 -0.1975 -0.2072
13852SOL    HW146403   6.671   3.153   6.596 -0.6998 -0.5411  0.0377
13852SOL    HW246404   6.694   3.268   6.501  0.6602  0.0557  1.0527
13853SOL     OW46405   4.702   1.571   3.642 -0.2122  0.5263  0.3068
13853SOL    HW146406   4.687   1.620   3.723  0.9910 -0.2730  1.0336
13853SOL    HW246407   4.794   1.588   3.620  1.3438 -3.8726  2.3869
13854SOL     OW46408   5.479   0.937   5.317 -0.6647 -0.4962 -0.6315
13854SOL    HW146409   5.540   0.980   5.258 -1.0709  0.1486 -0.5863
13854SOL    HW246410   5.397   0.986   5.308 -0.7213 -0.3568  0.5021
13855SOL     OW46411   8.488   8.425   8.523  0.2654  0.0338 -0.5008
13855SOL    HW146412   8.537   8.502   8.554 -0.6266 -0.1503  1.5555
13855SOL    HW246413   8.396   8.447   8.540 -0.3178 -0.1457 -3.0798
13856SOL     OW46414   5.928   6.577   0.374 -0.4433 -0.1586  0.1567
13856SOL    HW146415   5.985   6.512   0.415  2.3180  2.4866  0.8479
13856SOL    HW246416   5.988   6.636   0.329 -2.8652  1.4919 -1.1096
13857SOL     OW46417   6.020   6.210   4.263 -0.1686 -0.6254  0.0907
13857SOL    HW146418   5.949   6.151   4.237 -0.2099 -0.3125 -0.5290
13857SOL    HW246419   6.009   6.287   4.208 -1.3906  0.9048  2.3094
13858SOL     OW46420   8.769   2.442   0.792  0.0475  0.0799  0.2718
13858SOL    HW146421   8.830   2.373   0.819 -0.6347 -0.4059  0.5914
13858SOL    HW246422   8.774   2.507   0.862  0.5538  0.2738  0.0605
13859SOL     OW46423   1.800   8.633   6.111 -0.3429  0.3957  0.3714
13859SOL    HW146424   1.792   8.570   6.039  1.0754  0.7971 -0.1667
13859SOL    HW246425   1.731   8.697   6.093  0.6674  1.0989 -1.3118
13860SOL     OW46426   5.705   7.472   8.728 -0.3834  0.1419 -0.3835
13860SOL    HW146427   5.673   7.457   8.817 -1.2295 -1.4187 -0.9124
13860SOL    HW246428   5.801   7.469   8.736 -0.4671 -1.2722  0.2873
13861SOL     OW46429   3.184   5.369   0.636  0.1575  0.4615 -0.2150
13861SOL    HW146430   3.092   5.378   0.660 -0.5512 -0.9715 -2.1884
13861SOL    HW246431   3.207   5.280   0.664 -0.0689 -0.4316 -2.6115
13862SOL     OW46432   0.590   2.254   5.973  0.2081 -0.2114 -0.0211
13862SOL    HW146433   0.524   2.305   6.021  2.1196  0.2517  2.2985
13862SOL    HW246434   0.539   2.190   5.924 -2.0824  1.5685 -0.1763
13863SOL     OW46435   4.844   8.837   0.991 -0.3876 -0.4296  0.1895
13863SOL    HW146436   4.842   8.744   0.966 -0.6941 -0.1263 -0.9913
13863SOL    HW246437   4.775   8.877   0.938  3.4447  1.5677 -3.9300
13864SOL     OW46438   9.207   0.204   8.890  0.2235  0.3136 -0.3930
13864SOL    HW146439   9.293   0.223   8.852  0.3595  1.0996  0.2702
13864SOL    HW246440   9.173   0.290   8.915  0.6059 -0.1982  2.1835
13865SOL     OW46441   0.087   9.170   1.703  0.4220 -0.4510  0.1244
13865SOL    HW146442   0.053   9.133   1.621  0.1523 -0.8492  0.4119
13865SOL    HW246443   0.034   9.130   1.772 -1.8273  2.5356  0.3487
13866SOL     OW46444   6.898   1.535   1.431 -0.0718  0.1011  0.5058
13866SOL    HW146445   6.913   1.461   1.490  1.6519  1.4139  1.8281
13866SOL    HW246446   6.925   1.612   1.481  2.1558  1.2389 -2.1893
13867SOL     OW46447   2.228   8.407   3.207 -0.0175  0.1787  0.0818
13867SOL    HW146448   2.263   8.319   3.195  0.3298  0.4894 -1.3244
13867SOL    HW246449   2.302   8.465   3.190  0.5120  0.7607  3.6627
13868SOL     OW46450   6.240   3.010   5.579 -0.2453 -0.1346 -0.0015
13868SOL    HW146451   6.144   3.009   5.585 -0.2377 -1.7424  0.1593
13868SOL    HW246452   6.259   2.972   5.493  0.2660 -0.4356  0.2406
13869SOL     OW46453   8.535   1.027   7.727 -0.3416 -0.1612 -0.1618
13869SOL    HW146454   8.477   1.001   7.799  0.4294 -1.3241  0.0724
13869SOL    HW246455   8.572   1.111   7.756 -3.5974  1.8338 -1.3505
13870SOL     OW46456   6.253   8.157   4.009 -0.2441 -0.8839 -0.1406
13870SOL    HW146457   6.260   8.079   4.065  0.8119 -0.4007  0.4398
13870SOL    HW246458   6.320   8.144   3.942  0.0111 -0.4281  0.0261
13871SOL     OW46459   1.038   6.858   4.619 -0.6394 -0.6043 -0.7668
13871SOL    HW146460   1.041   6.950   4.645 -0.4045 -0.3611 -1.6326
13871SOL    HW246461   1.057   6.810   4.700 -3.0956  0.0007  0.2383
13872SOL     OW46462   1.100   4.926   4.691 -0.9233  0.0051 -0.2208
13872SOL    HW146463   1.103   4.830   4.698  1.2542  0.0243 -0.1746
13872SOL    HW246464   1.007   4.946   4.681 -1.6311 -1.9669  1.6319
13873SOL     OW46465   1.360   1.996   2.250  0.4765 -0.0491 -0.4289
13873SOL    HW146466   1.391   2.083   2.224  0.5140  0.3419  0.8496
13873SOL    HW246467   1.269   1.993   2.219 -0.1881  1.2581  1.2420
13874SOL     OW46468   5.634   1.520   2.961  0.1567 -0.5458  0.9372
13874SOL    HW146469   5.646   1.471   2.880 -0.2058 -1.1597  1.2485
13874SOL    HW246470   5.696   1.480   3.023  0.5894  0.0618  0.9051
13875SOL     OW46471   4.496   7.912   8.735 -0.2018  0.4374 -0.3675
13875SOL    HW146472   4.437   7.901   8.810  0.8785 -2.2843  0.2106
13875SOL    HW246473   4.438   7.904   8.659 -0.8755 -0.1287  0.1821
13876SOL     OW46474   6.594   7.474   0.612  0.3546 -0.0540 -0.8995
13876SOL    HW146475   6.521   7.520   0.571 -1.2767 -0.3429  1.4915
13876SOL    HW246476   6.558   7.438   0.693  3.3311  0.3870  0.7591
13877SOL     OW46477   5.214   8.575   2.010 -0.4447  0.4993  0.3815
13877SOL    HW146478   5.241   8.658   1.972  0.5079  0.2369  0.4325
13877SOL    HW246479   5.218   8.513   1.936  1.5427 -0.0392  0.8706
13878SOL     OW46480   1.552   8.040   2.141 -0.4954  0.7700  0.5010
13878SOL    HW146481   1.457   8.049   2.148 -0.4475  1.3325  0.4797
13878SOL    HW246482   1.566   7.989   2.062 -0.7999  0.1590  0.8299
13879SOL     OW46483   9.213   9.606   0.717  0.0498 -0.7361  0.2157
13879SOL    HW146484   9.299   9.631   0.686  0.7903 -2.1824  0.9786
13879SOL    HW246485   9.155   9.622   0.643  0.9496  0.3182 -0.2837
13880SOL     OW46486   0.979   0.408   4.008 -0.8050  0.0687 -0.0617
13880SOL    HW146487   1.057   0.361   4.037 -0.6425 -0.0470 -0.6638
13880SOL    HW246488   0.937   0.438   4.089 -0.4183 -0.3185  0.2879
13881SOL     OW46489   0.881   3.408   6.996 -0.3377  0.8782  0.4892
13881SOL    HW146490   0.860   3.325   7.040 -3.0698  0.3437 -1.5656
13881SOL    HW246491   0.847   3.476   7.054 -0.1091  0.4566  1.1304
13882SOL     OW46492   4.821   0.697   2.284  0.1780 -0.0238 -0.0809
13882SOL    HW146493   4.858   0.741   2.361 -1.4024  1.0355  0.1173
13882SOL    HW246494   4.744   0.749   2.261 -0.5869 -1.5371 -1.1114
13883SOL     OW46495   7.854   4.158   5.675  0.2790  0.1362 -0.2420
13883SOL    HW146496   7.943   4.126   5.664 -0.3396 -2.1742  0.8445
13883SOL    HW246497   7.811   4.092   5.729 -2.0147  1.3359 -0.4629
13884SOL     OW46498   9.480   0.045   4.253  0.0761  0.1384 -0.3573
13884SOL    HW146499   9.395   0.086   4.268  1.4726  2.8262  1.0146
13884SOL    HW246500   9.498   0.061   4.161 -0.4487  0.5394 -0.4004
13885SOL     OW46501   1.191   6.231   3.023  0.0430 -0.0334  0.0298
13885SOL    HW146502   1.261   6.249   2.960  0.3500  1.2334  0.6965
13885SOL    HW246503   1.139   6.163   2.981  2.2852 -1.8431  0.0047
13886SOL     OW46504   4.276   4.485   0.624  0.1271 -0.5186 -0.7846
13886SOL    HW146505   4.313   4.546   0.560 -0.2074  0.2648 -0.2442
13886SOL    HW246506   4.350   4.463   0.682 -0.3246  1.5382  0.6785
13887SOL     OW46507   9.215   3.921   7.623  0.0685 -1.0376  0.6816
13887SOL    HW146508   9.241   3.891   7.710 -0.0435 -1.0115  0.7244
13887SOL    HW246509   9.189   3.842   7.577  1.5270 -1.2653  0.1750
13888SOL     OW46510   2.939   2.475   5.380  0.2459 -0.5917 -0.5748
13888SOL    HW146511   2.876   2.530   5.334  0.4445 -1.9681 -2.6461
13888SOL    HW246512   3.010   2.534   5.405 -0.6944  0.5122 -0.4394
13889SOL     OW46513   0.958   1.245   2.107 -0.4668  0.5588  0.5883
13889SOL    HW146514   0.978   1.336   2.085 -0.9529  1.1338  2.3608
13889SOL    HW246515   1.041   1.199   2.095  0.1244  1.4986  0.9786
13890SOL     OW46516   8.342   2.605   5.078 -0.4280 -0.2060 -0.0613
13890SOL    HW146517   8.377   2.687   5.045 -0.2163 -0.4705 -0.5112
13890SOL    HW246518   8.388   2.537   5.028  0.3883 -0.6552  1.2409
13891SOL     OW46519   9.528   6.210   8.589 -0.0846  0.4298 -0.1854
13891SOL    HW146520   9.488   6.291   8.557  0.4742  2.0277  2.8326
13891SOL    HW246521   9.476   6.185   8.665  2.5801  0.7477  1.8792
13892SOL     OW46522   4.372   8.822   5.783  0.2332 -0.6127 -0.3243
13892SOL    HW146523   4.453   8.833   5.733 -0.2486 -0.9161 -1.1902
13892SOL    HW246524   4.306   8.870   5.734  0.0888  0.5586  0.9614
13893SOL     OW46525   3.591   4.353   3.816 -0.3466  0.1135 -0.2113
13893SOL    HW146526   3.545   4.334   3.734  0.1503 -1.1080 -0.2158
13893SOL    HW246527   3.583   4.448   3.825 -1.8829  0.0799 -0.7928
13894SOL     OW46528   5.307   3.908   2.984 -0.3736 -0.0485 -0.5829
13894SOL    HW146529   5.304   3.848   2.910  0.0713  1.6939 -2.0950
13894SOL    HW246530   5.357   3.861   3.051  1.3794 -0.7676 -2.3034
13895SOL     OW46531   9.742   1.521   9.259  0.3082  0.6293  0.6092
13895SOL    HW146532   9.655   1.520   9.219 -0.3316  0.8470  1.9324
13895SOL    HW246533   9.802   1.502   9.187 -0.9796 -1.8020  0.0661
13896SOL     OW46534   3.920   4.597   9.069 -0.1127 -0.2622  0.5572
13896SOL    HW146535   3.842   4.647   9.094  0.6773  0.8084  0.9865
13896SOL    HW246536   3.926   4.608   8.974 -0.8380 -0.9120  0.4224
13897SOL     OW46537   3.071   4.293   1.906  0.4664 -0.0166  0.2871
13897SOL    HW146538   3.072   4.267   1.998  0.9882  2.3385  1.0094
13897SOL    HW246539   3.108   4.381   1.906 -0.3087  0.3664 -2.0856
13898SOL     OW46540   1.467   9.138   9.355 -0.2568 -0.0939 -0.2412
13898SOL    HW146541   1.413   9.193   9.411  0.0470 -2.3082  2.4558
13898SOL    HW246542   1.404   9.086   9.304 -0.5612  0.9338 -0.9284
13899SOL     OW46543   3.204   2.576   9.660 -0.0345 -0.0480 -0.1117
13899SOL    HW146544   3.168   2.597   9.574  0.5295 -2.5021 -1.0297
13899SOL    HW246545   3.130   2.541   9.710  0.0135 -0.3252 -0.2338
13900SOL     OW46546   5.639   7.314   3.980  0.2713  0.1453 -0.0438
13900SOL    HW146547   5.612   7.258   4.053 -0.8451 -0.4532 -0.8904
13900SOL    HW246548   5.725   7.280   3.955  0.7024  0.4092  1.0344
13901SOL     OW46549   1.336   1.825   0.426 -0.4825 -0.2068  0.0475
13901SOL    HW146550   1.264   1.811   0.487 -0.5218  1.0674  0.3391
13901SOL    HW246551   1.329   1.918   0.402  0.3105 -0.3729 -0.8906
13902SOL     OW46552   5.161   1.403   2.176  0.9435 -0.0942 -0.0222
13902SOL    HW146553   5.239   1.393   2.230  1.0467 -2.3006 -0.4809
13902SOL    HW246554   5.149   1.498   2.168  1.2652  0.3456  3.2957
13903SOL     OW46555   5.052   3.820   2.023 -0.3020 -0.2405  0.3003
13903SOL    HW146556   5.034   3.903   1.979  0.8310 -0.7675 -1.2545
13903SOL    HW246557   5.132   3.838   2.074  0.4116 -0.5464 -0.6679
13904SOL     OW46558   3.008   3.868   6.731 -0.2211 -0.0937 -0.2693
13904SOL    HW146559   2.930   3.849   6.679  0.9743 -1.5467 -1.6424
13904SOL    HW246560   3.018   3.963   6.726 -1.3916  0.0172 -0.8089
13905SOL     OW46561   0.142   7.550   6.025  0.1851 -0.0770  0.0613
13905SOL    HW146562   0.214   7.491   6.048  0.2985  0.4990  1.2329
13905SOL    HW246563   0.137   7.612   6.097 -0.5547  0.7821 -0.6985
13906SOL     OW46564   2.333   1.258   1.741 -0.2314 -0.2143  0.2720
13906SOL    HW146565   2.328   1.304   1.825 -1.9116 -0.2707  0.2433
13906SOL    HW246566   2.255   1.202   1.740 -0.9118  0.6844 -1.8429
13907SOL     OW46567   6.843   6.747   5.073  0.0663  0.0295  0.6189
13907SOL    HW146568   6.843   6.722   5.165 -0.6906 -3.3361 -0.1456
13907SOL    HW246569   6.751   6.770   5.055  0.3988  1.6593  0.8731
13908SOL     OW46570   1.943   9.142   5.062  0.1381 -0.3152  0.3454
13908SOL    HW146571   1.958   9.219   5.007  0.4792  0.1072  1.0109
13908SOL    HW246572   1.848   9.133   5.065 -0.0660  1.6140  2.2772
13909SOL     OW46573   6.643   0.025   0.427 -0.3124 -0.0223  0.1979
13909SOL    HW146574   6.587  -0.050   0.408  0.2747  0.1361 -2.5897
13909SOL    HW246575   6.629   0.084   0.353  0.5849  1.8276  1.4253
13910SOL     OW46576   6.164   8.392   1.570  0.4368 -0.1727  0.2711
13910SOL    HW146577   6.226   8.321   1.585  1.3452  0.6560  0.5247
13910SOL    HW246578   6.218   8.471   1.564 -0.2875  0.2119 -2.6095
13911SOL     OW46579   5.337   2.189   2.392  0.5123 -0.2174  0.3482
13911SOL    HW146580   5.307   2.269   2.348  0.0401  0.2314  1.4433
13911SOL    HW246581   5.257   2.144   2.417  0.7799 -0.7507  0.2556
13912SOL     OW46582   0.418   9.546   7.419  0.0991  0.1518  0.4112
13912SOL    HW146583   0.404   9.554   7.325 -0.1327  2.5778  0.5913
13912SOL    HW246584   0.511   9.562   7.432 -0.0370  0.7604  0.6655
13913SOL     OW46585   9.528   6.461   5.279  0.3200 -0.4335 -0.0858
13913SOL    HW146586   9.474   6.492   5.351  1.4584 -0.1115  0.6720
13913SOL    HW246587   9.578   6.538   5.252  2.2344 -1.2312  0.9568
13914SOL     OW46588   8.929   2.929   2.808 -0.4303 -0.2757  0.4657
13914SOL    HW146589   8.907   2.850   2.759 -1.3287  0.4321 -0.3195
13914SOL    HW246590   9.025   2.931   2.809 -0.3538 -0.0240 -1.8127
13915SOL     OW46591   8.175   1.089   4.284 -0.2746 -0.1931  0.2269
13915SOL    HW146592   8.103   1.028   4.269 -0.9840  0.5992  0.3508
13915SOL    HW246593   8.243   1.060   4.223 -1.1948 -0.1481 -0.8679
13916SOL     OW46594   7.982   3.080   1.681 -0.3010 -0.4215 -0.2335
13916SOL    HW146595   8.036   3.158   1.687 -0.5037 -0.3168  0.2992
13916SOL    HW246596   7.892   3.112   1.695 -0.3199 -0.8339  0.6904
13917SOL     OW46597   0.790   2.869   4.932 -0.0789  0.0299 -0.2188
13917SOL    HW146598   0.703   2.908   4.927  0.0837  0.2217 -2.6112
13917SOL    HW246599   0.845   2.938   4.969 -0.9034 -0.0572  1.2170
13918SOL     OW46600   5.336   6.513   1.211  0.5641  0.0439  0.6256
13918SOL    HW146601   5.370   6.428   1.238  0.8721 -0.4274 -1.1503
13918SOL    HW246602   5.278   6.494   1.138 -0.7488  1.2039  1.3107
13919SOL     OW46603   0.128   8.782   1.110  0.5894 -0.0834 -0.2014
13919SOL    HW146604   0.206   8.737   1.076  0.9228 -0.0532  0.5163
13919SOL    HW246605   0.155   8.874   1.117  0.3951 -0.0239 -0.2140
13920SOL     OW46606   3.120   1.645   6.440 -0.5449 -0.6208 -0.5100
13920SOL    HW146607   3.064   1.646   6.517 -1.8072  0.7642 -1.4042
13920SOL    HW246608   3.196   1.698   6.464 -0.2703 -1.3276  0.2219
13921SOL     OW46609   5.277   5.374   5.234  0.8077  0.2266 -0.0267
13921SOL    HW146610   5.304   5.448   5.288 -0.1234 -0.4688  1.4632
13921SOL    HW246611   5.192   5.349   5.269  0.6630 -0.9214 -1.1503
13922SOL     OW46612   6.891   3.408   7.256  0.3627  0.0985  0.2895
13922SOL    HW146613   6.901   3.485   7.312 -0.9188  1.0255 -0.6947
13922SOL    HW246614   6.832   3.351   7.305 -0.4044  0.7078  0.0921
13923SOL     OW46615   8.026   8.147   0.691 -0.2296  0.2661 -0.0476
13923SOL    HW146616   8.081   8.220   0.663  0.7021  0.2466  1.5999
13923SOL    HW246617   8.085   8.071   0.690 -0.3849  0.1117  1.0679
13924SOL     OW46618   3.481   6.412   8.399  0.0486 -0.1437  0.0601
13924SOL    HW146619   3.457   6.475   8.330  0.1613  0.2507  0.3765
13924SOL    HW246620   3.547   6.356   8.357  0.8035  0.6712  0.1086
13925SOL     OW46621   8.701   8.390   0.323  0.1600 -0.0961 -0.7965
13925SOL    HW146622   8.762   8.317   0.334  0.6348  0.3855 -0.2132
13925SOL    HW246623   8.754   8.461   0.288  0.3004  0.8319  1.1830
13926SOL     OW46624   7.020   0.547   2.772 -0.2436  0.0992  0.1043
13926SOL    HW146625   7.083   0.477   2.753 -0.4060 -0.8333  2.5785
13926SOL    HW246626   6.956   0.542   2.701  0.2820 -1.6415 -0.2914
13927SOL     OW46627   9.224   3.537   7.861 -0.0839 -0.5182  0.1981
13927SOL    HW146628   9.233   3.619   7.812  0.9450 -0.1362  0.9951
13927SOL    HW246629   9.294   3.540   7.926 -0.0613 -2.0099  0.2809
13928SOL     OW46630   7.528   9.273   3.553 -0.1009  0.7376 -0.5420
13928SOL    HW146631   7.478   9.198   3.520 -1.9177  1.6865 -0.0946
13928SOL    HW246632   7.472   9.311   3.621  1.0774  2.1019 -0.2821
13929SOL     OW46633   9.642   4.212   9.185  0.3832 -0.0699  0.5113
13929SOL    HW146634   9.695   4.273   9.133 -0.3929  1.0465  0.9984
13929SOL    HW246635   9.591   4.268   9.243 -0.3102 -1.1992  1.0217
13930SOL     OW46636   8.418   6.847   7.250  0.5104 -0.3937 -0.0706
13930SOL    HW146637   8.337   6.823   7.206  0.5983  0.3136 -0.6474
13930SOL    HW246638   8.395   6.849   7.343  0.3016 -1.8256 -0.0730
13931SOL     OW46639   7.666   2.960   6.166  0.2050 -0.4630 -0.0094
13931SOL    HW146640   7.644   3.043   6.124  1.2310  0.2004  0.6980
13931SOL    HW246641   7.612   2.895   6.121 -1.1833  0.6867 -0.0629
13932SOL     OW46642   4.332   1.419   2.165  0.6537 -0.3896 -0.1288
13932SOL    HW146643   4.334   1.325   2.185  1.2093 -0.2317  0.5959
13932SOL    HW246644   4.296   1.424   2.076 -1.0455 -1.1649  0.4765
13933SOL     OW46645   1.276   7.960   7.884 -0.1589 -0.0304 -1.0396
13933SOL    HW146646   1.222   7.991   7.811  1.3144  0.4658 -1.9780
13933SOL    HW246647   1.342   8.028   7.895 -1.0351  0.5086  1.6043
13934SOL     OW46648   3.645   5.712   3.518  0.4020  0.8261  1.0586
13934SOL    HW146649   3.658   5.641   3.581 -0.9433 -1.3234 -0.9231
13934SOL    HW246650   3.564   5.755   3.547  0.5277  0.7352  1.5551
13935SOL     OW46651   9.589   5.304   3.509 -0.4273  0.3054 -0.6829
13935SOL    HW146652   9.622   5.310   3.419 -1.7524  1.4652 -1.1384
13935SOL    HW246653   9.666   5.282   3.562  1.0488  2.5759 -1.7069
13936SOL     OW46654   1.838   8.964   1.804  0.0032 -0.2732 -0.2024
13936SOL    HW146655   1.805   8.876   1.825 -0.7671 -0.1481 -0.8469
13936SOL    HW246656   1.779   8.996   1.736  1.0708  0.2302 -0.9048
13937SOL     OW46657   6.727   8.559   4.819 -0.0905 -0.4690  0.2402
13937SOL    HW146658   6.655   8.622   4.823 -1.1274 -1.6338  0.5023
13937SOL    HW246659   6.773   8.581   4.738 -1.0794 -0.0598 -0.2332
13938SOL     OW46660   5.799   9.240   8.516 -0.4386  0.5823 -0.8197
13938SOL    HW146661   5.728   9.268   8.458  0.1643  0.8548 -1.4411
13938SOL    HW246662   5.829   9.157   8.479 -1.2653 -0.1981  0.1855
13939SOL     OW46663   7.699   2.381   3.003 -0.0260  0.5185  0.2578
13939SOL    HW146664   7.690   2.438   2.927 -0.4667  0.6438  0.4011
13939SOL    HW246665   7.620   2.327   3.002 -0.0406  0.5295  0.6341
13940SOL     OW46666   1.939   6.216   0.485  0.6061  0.3906  0.2165
13940SOL    HW146667   1.981   6.179   0.562 -0.1559  0.5945  0.7399
13940SOL    HW246668   1.867   6.269   0.519 -0.7350 -0.7647 -0.6799
13941SOL     OW46669   7.811   0.213   4.706  0.2434 -0.0270 -0.4445
13941SOL    HW146670   7.765   0.247   4.782 -0.5942  0.1694 -1.0185
13941SOL    HW246671   7.904   0.220   4.728  0.0140 -0.5856  0.8161
13942SOL     OW46672   3.404   4.997   1.630 -0.2144 -1.2458 -0.0330
13942SOL    HW146673   3.319   4.952   1.628  0.2629 -2.1287 -1.1308
13942SOL    HW246674   3.456   4.953   1.563  0.9199 -0.3142  0.2151
13943SOL     OW46675   9.329   3.623   2.295 -0.1691 -0.0352 -0.1856
13943SOL    HW146676   9.376   3.704   2.310 -0.7309  0.0999  1.0041
13943SOL    HW246677   9.396   3.555   2.300  0.3185  0.3380 -1.2744
13944SOL     OW46678   5.066   2.173   1.482  0.0553  0.3630  0.3069
13944SOL    HW146679   5.022   2.090   1.503  0.5353 -0.3393 -1.3236
13944SOL    HW246680   5.012   2.240   1.523 -1.4201 -0.6281  0.0440
13945SOL     OW46681   1.600   6.563   6.327  0.0182 -0.8077 -0.0137
13945SOL    HW146682   1.513   6.545   6.290 -0.3811  0.2378  0.3591
13945SOL    HW246683   1.648   6.607   6.257 -0.5300  0.6197  0.4685
13946SOL     OW46684   9.253   4.168   1.184  0.6486 -0.2979  0.6646
13946SOL    HW146685   9.324   4.112   1.215 -0.2214 -2.1074 -0.4205
13946SOL    HW246686   9.177   4.109   1.180 -0.4119  1.0759 -0.1295
13947SOL     OW46687   1.506   7.343   9.301  0.1112  0.0799 -0.0119
13947SOL    HW146688   1.564   7.413   9.334  0.6382  0.5380 -1.7892
13947SOL    HW246689   1.554   7.262   9.319  0.6305  0.3560 -0.1215
13948SOL     OW46690   1.202   5.451   0.415  0.1305  0.1323  0.0341
13948SOL    HW146691   1.233   5.381   0.473  0.7456  0.8216  0.5636
13948SOL    HW246692   1.214   5.416   0.327 -0.7326 -0.8966  0.3007
13949SOL     OW46693   0.705   7.021   2.304  0.3120 -0.4114 -0.5191
13949SOL    HW146694   0.666   7.100   2.267 -0.2793 -0.3348  0.2472
13949SOL    HW246695   0.633   6.979   2.351  0.8586 -0.9145 -0.1239
13950SOL     OW46696   0.938   0.722   6.516  0.3963  0.0078  0.3601
13950SOL    HW146697   0.992   0.657   6.472 -2.5928  0.4234 -4.6145
13950SOL    HW246698   0.995   0.799   6.523  1.4447 -0.4787 -1.8403
13951SOL     OW46699   9.627   6.551   7.006  0.6115 -0.0271  0.1879
13951SOL    HW146700   9.653   6.633   6.965  1.5763 -0.1027  0.6158
13951SOL    HW246701   9.558   6.576   7.068  0.0315  0.2635 -0.5557
13952SOL     OW46702   2.366   0.901   2.405  0.3156 -0.3274  0.4714
13952SOL    HW146703   2.334   0.907   2.495 -1.5744 -1.6237 -0.0342
13952SOL    HW246704   2.460   0.919   2.411  0.5252 -1.7653  2.9055
13953SOL     OW46705   6.922   4.777   6.939  0.3560  0.2496 -0.2531
13953SOL    HW146706   6.828   4.776   6.921  0.5231  2.8257 -1.8975
13953SOL    HW246707   6.929   4.796   7.032 -0.7425 -0.8519  0.0662
13954SOL     OW46708   3.379   3.361   6.774  0.0629 -0.0364 -0.3868
13954SOL    HW146709   3.387   3.447   6.733 -0.3247  0.2682  0.1695
13954SOL    HW246710   3.460   3.316   6.749  0.3650  0.5582 -0.5129
13955SOL     OW46711   5.273   0.771   1.092  0.5252  0.1906 -0.1942
13955SOL    HW146712   5.357   0.724   1.090 -0.8635 -2.6167  0.8512
13955SOL    HW246713   5.257   0.797   1.001  1.1847 -1.9516 -0.9833
13956SOL     OW46714   9.609   6.152   0.371  0.7074  0.4695  0.4413
13956SOL    HW146715   9.696   6.188   0.356  0.2639  1.5300  0.2873
13956SOL    HW246716   9.549   6.219   0.337 -0.1561 -1.1245 -1.3983
13957SOL     OW46717   6.454   9.026   2.110 -0.2670  0.0255  0.0947
13957SOL    HW146718   6.543   8.991   2.102 -0.7880 -0.8901 -3.8654
13957SOL    HW246719   6.410   8.965   2.170  0.9654 -1.4086 -0.3883
13958SOL     OW46720   3.101   0.171   7.288 -0.4323  0.0866 -0.1079
13958SOL    HW146721   3.189   0.156   7.254  0.0164  0.9458  0.6266
13958SOL    HW246722   3.076   0.256   7.250 -0.2349  0.6815  1.0573
13959SOL     OW46723   1.283   9.422   3.553 -0.0455  0.2483  0.2328
13959SOL    HW146724   1.225   9.373   3.611 -1.6333  2.7080  0.8622
13959SOL    HW246725   1.270   9.382   3.467 -2.5258  0.5095  0.4095
13960SOL     OW46726   6.255   4.694   2.119  0.4255  0.2016 -0.4036
13960SOL    HW146727   6.248   4.713   2.213  0.3707  0.9032 -0.5450
13960SOL    HW246728   6.177   4.734   2.081  0.5075  0.0181 -0.7621
13961SOL     OW46729   6.638   9.273   9.171 -0.1214 -0.2529  0.1807
13961SOL    HW146730   6.616   9.215   9.244 -1.5629  0.8606  0.6662
13961SOL    HW246731   6.554   9.302   9.137  0.5150 -0.7819 -1.9984
13962SOL     OW46732   0.208   0.525   8.182  0.3945  0.1221 -0.2045
13962SOL    HW146733   0.299   0.534   8.153  0.9355 -2.1499  0.5748
13962SOL    HW246734   0.166   0.473   8.114 -0.4507  1.4236 -0.7163
13963SOL     OW46735   4.679   5.142   8.452  0.1524  0.1143 -0.4535
13963SOL    HW146736   4.773   5.135   8.465 -0.0017 -0.2324  0.5869
13963SOL    HW246737   4.660   5.085   8.377  0.3459 -2.4835  1.3609
13964SOL     OW46738   8.998   2.805   7.815 -0.0741 -0.2650 -0.3334
13964SOL    HW146739   9.004   2.794   7.720 -1.6045  0.6473 -0.5726
13964SOL    HW246740   8.936   2.876   7.826 -1.2705 -1.5207  1.3994
13965SOL     OW46741   5.663   0.494   2.666 -0.1217 -1.1208 -0.3428
13965SOL    HW146742   5.650   0.410   2.709 -0.5357 -0.9820 -0.1968
13965SOL    HW246743   5.671   0.472   2.573 -1.7764 -1.1880 -0.4951
13966SOL     OW46744   5.441   5.137   5.425 -0.1708 -0.1468 -0.6409
13966SOL    HW146745   5.486   5.218   5.448  0.7893 -0.9345  0.3345
13966SOL    HW246746   5.379   5.123   5.497  1.1623 -1.3672  0.3149
13967SOL     OW46747   8.133   2.927   8.911  0.6134 -0.1890  0.2050
13967SOL    HW146748   8.163   2.916   9.001 -0.4489  0.6235  0.6836
13967SOL    HW246749   8.063   2.862   8.901  0.3255  0.1219  0.1711
13968SOL     OW46750   3.094   3.854   1.919  0.0101  0.1377 -0.1627
13968SOL    HW146751   3.031   3.848   1.847  1.1150 -1.0629 -1.0749
13968SOL    HW246752   3.177   3.872   1.875  0.3691  1.5170  1.0088
13969SOL     OW46753   3.815   1.336   2.135 -0.3299 -0.4017  0.2666
13969SOL    HW146754   3.758   1.383   2.075 -0.0709  0.2133  0.4938
13969SOL    HW246755   3.880   1.400   2.162 -0.9179 -0.4172  1.8302
13970SOL     OW46756   4.404   0.740   0.797  0.2398  0.0411 -0.2702
13970SOL    HW146757   4.364   0.653   0.792  2.7215 -1.2520  0.5214
13970SOL    HW246758   4.461   0.743   0.720  0.4475  0.8426 -0.0857
13971SOL     OW46759   2.474   0.593   7.094 -0.1192 -0.3145 -0.1282
13971SOL    HW146760   2.542   0.610   7.029 -1.1970  0.4049 -1.1007
13971SOL    HW246761   2.429   0.515   7.063 -0.6209  0.0131 -0.2421
13972SOL     OW46762   4.925   6.198   7.319  0.1875 -0.2076  0.0850
13972SOL    HW146763   4.982   6.148   7.260 -0.6877  0.0652 -1.0244
13972SOL    HW246764   4.984   6.238   7.382  1.1048 -0.8919 -0.3257
13973SOL     OW46765   5.167   2.340   7.711  0.0369 -0.1109 -0.2244
13973SOL    HW146766   5.144   2.382   7.794  1.2506  0.6499 -0.2468
13973SOL    HW246767   5.084   2.325   7.668 -0.5013  1.3747  0.2245
13974SOL     OW46768   2.470   7.127   0.414  0.5750 -0.2332 -0.3085
13974SOL    HW146769   2.558   7.110   0.380  1.6416  2.4051  0.8654
13974SOL    HW246770   2.416   7.139   0.336  2.6674  4.3502 -1.3949
13975SOL     OW46771   6.829   2.885   4.071 -0.0892  0.2651 -0.2309
13975SOL    HW146772   6.904   2.826   4.080 -0.1939  0.1484 -0.1391
13975SOL    HW246773   6.860   2.952   4.009  0.1436  0.3042 -0.0731
13976SOL     OW46774   3.655   8.257   2.364 -0.3361 -0.0972  0.1707
13976SOL    HW146775   3.650   8.171   2.324 -1.3984  0.0499 -0.0411
13976SOL    HW246776   3.749   8.279   2.363  0.0047 -1.4304  0.6531
13977SOL     OW46777   2.213   8.827   9.138  0.4674 -0.1209 -0.0190
13977SOL    HW146778   2.307   8.841   9.125  0.3890  3.1235  1.8242
13977SOL    HW246779   2.174   8.852   9.054  1.1117  1.2311  0.0597
13978SOL     OW46780   6.072   9.522   2.546  0.5571 -0.1961  0.6761
13978SOL    HW146781   6.005   9.466   2.586 -0.1492 -0.2607 -0.5412
13978SOL    HW246782   6.128   9.548   2.619 -0.4079 -0.6836  1.6266
13979SOL     OW46783   9.053   8.165   3.970 -0.5390  0.0587 -0.2724
13979SOL    HW146784   9.018   8.079   3.947 -2.4109  0.4150  1.0367
13979SOL    HW246785   8.995   8.198   4.039 -1.1619  3.2352 -2.0904
13980SOL     OW46786   6.609   8.302   6.741  0.0392 -0.3569  0.0338
13980SOL    HW146787   6.694   8.297   6.696  0.4551  1.8701  0.4772
13980SOL    HW246788   6.625   8.260   6.825  0.6234 -0.1878  0.0126
13981SOL     OW46789   5.940   9.628   1.495  0.3444  0.3340 -0.3326
13981SOL    HW146790   5.882   9.560   1.530 -0.4349  0.5419 -1.1700
13981SOL    HW246791   5.986   9.662   1.572  1.1960 -1.5315  0.0303
13982SOL     OW46792   0.256   4.954   4.216 -0.3145  0.4251  0.0113
13982SOL    HW146793   0.343   4.917   4.232 -0.3456  0.7252  0.9433
13982SOL    HW246794   0.265   5.047   4.240 -0.7724  0.5663 -0.3383
13983SOL     OW46795   1.885   7.129   6.411 -0.2403  0.0515 -0.2428
13983SOL    HW146796   1.902   7.130   6.505  0.3429  0.2981 -0.3443
13983SOL    HW246797   1.909   7.040   6.383  0.6427  0.3080 -0.3347
13984SOL     OW46798   8.356   6.955   3.782 -0.8421 -0.1232 -0.6441
13984SOL    HW146799   8.429   6.906   3.745 -0.6268 -0.4432  0.1866
13984SOL    HW246800   8.336   6.910   3.864 -1.4317  0.4580 -0.4617
13985SOL     OW46801   0.831   2.847   2.581 -0.1179 -0.0108 -0.2140
13985SOL    HW146802   0.751   2.797   2.593  1.3243 -2.0261  2.0512
13985SOL    HW246803   0.861   2.823   2.493 -1.3561 -0.1824 -0.6132
13986SOL     OW46804   8.692   2.671   3.893  0.4103 -0.2883  0.0848
13986SOL    HW146805   8.675   2.637   3.805 -3.1173  0.9787  0.1103
13986SOL    HW246806   8.699   2.594   3.948 -1.0204 -1.1059 -0.8082
13987SOL     OW46807   8.494   7.501   8.394  0.5679 -0.5625 -0.1482
13987SOL    HW146808   8.535   7.579   8.355 -0.4954  0.0469 -0.0776
13987SOL    HW246809   8.404   7.502   8.361 -1.0477  1.0681  3.7535
13988SOL     OW46810   9.124   5.941   4.782 -0.1400  0.6138 -0.1666
13988SOL    HW146811   9.031   5.940   4.759 -0.5025  2.0190  1.0691
13988SOL    HW246812   9.157   5.858   4.749 -1.7725  0.1812 -0.8565
13989SOL     OW46813   4.189   2.832   3.608  0.7797  0.1918  0.0855
13989SOL    HW146814   4.246   2.909   3.606  0.5447  0.4123  1.0641
13989SOL    HW246815   4.101   2.867   3.589  0.6842  0.1680  0.4630
13990SOL     OW46816   0.317   5.320   6.717  0.2421  0.1621 -0.7406
13990SOL    HW146817   0.261   5.366   6.779  0.0231 -0.7504 -0.2503
13990SOL    HW246818   0.271   5.238   6.699  1.4776 -0.6766 -0.1997
13991SOL     OW46819   8.423   3.477   1.356 -0.2251 -0.2306 -0.2835
13991SOL    HW146820   8.451   3.413   1.290 -1.4636  0.8598 -1.9498
13991SOL    HW246821   8.331   3.457   1.372  0.1893 -0.8495  1.6365
13992SOL     OW46822   8.974   2.074   3.197  0.0211  0.2444 -0.3849
13992SOL    HW146823   8.928   2.116   3.125 -0.2016 -0.0558 -0.4180
13992SOL    HW246824   8.979   1.982   3.172  1.2831  0.3852 -0.7324
13993SOL     OW46825   3.899   0.723   7.780 -0.4888  0.3260 -0.0753
13993SOL    HW146826   3.871   0.648   7.727 -1.4959  0.5668  0.0909
13993SOL    HW246827   3.893   0.798   7.721  0.7671  0.2529 -0.3150
13994SOL     OW46828   7.683   4.330   0.640  0.6066  0.0713 -0.0477
13994SOL    HW146829   7.697   4.353   0.732 -0.5018 -0.4896  0.2793
13994SOL    HW246830   7.683   4.235   0.638 -1.2928  0.0243 -0.2658
13995SOL     OW46831   7.187   3.092   9.525 -0.2556  0.1529  0.0283
13995SOL    HW146832   7.275   3.131   9.528  0.1965 -0.5629 -2.1831
13995SOL    HW246833   7.179   3.045   9.608  1.8292 -0.4468 -0.0469
13996SOL     OW46834   4.094   0.378   2.917 -0.4192  0.2124 -0.2876
13996SOL    HW146835   4.146   0.321   2.861  1.6686  1.4670  0.2715
13996SOL    HW246836   4.150   0.454   2.933 -2.0321  1.1636  1.2307
13997SOL     OW46837   1.540   0.191   9.645 -0.2850 -0.3406 -0.1062
13997SOL    HW146838   1.460   0.206   9.595 -0.4058 -2.5109 -0.6758
13997SOL    HW246839   1.574   0.108   9.611  1.8838  0.2128  0.5483
13998SOL     OW46840   9.575   8.215   1.846 -0.2358 -0.5642 -0.1029
13998SOL    HW146841   9.515   8.260   1.905 -0.7990  0.1078 -1.1622
13998SOL    HW246842   9.662   8.242   1.875 -0.5549  1.2072 -0.6804
13999SOL     OW46843   3.950   5.794   1.333  0.5276  0.3149  0.6879
13999SOL    HW146844   3.969   5.787   1.240 -0.8579  1.5968  0.2618
13999SOL    HW246845   3.899   5.715   1.353 -0.6618  0.8461 -0.0911
14000SOL     OW46846   4.117   1.337   4.387 -0.3811  0.2932 -0.0826
14000SOL    HW146847   4.178   1.403   4.422 -0.4358 -0.2821  1.1820
14000SOL    HW246848   4.047   1.333   4.452 -0.4038 -0.9526 -0.1575
14001SOL     OW46849   7.561   8.658   4.954 -0.1471  0.3334  0.1312
14001SOL    HW146850   7.653   8.659   4.926 -0.7475 -1.8193 -2.3720
14001SOL    HW246851   7.542   8.566   4.972 -1.5194  0.8976  1.8507
14002SOL     OW46852   7.940   5.862   8.902 -0.3922 -0.4857 -0.1077
14002SOL    HW146853   7.936   5.864   8.997 -1.4717 -0.8956 -0.1251
14002SOL    HW246854   7.945   5.769   8.880 -0.2483 -0.3992 -0.4512
14003SOL     OW46855   8.371   5.938   2.939  0.4029 -0.3372 -0.1713
14003SOL    HW146856   8.304   5.878   2.972 -0.2936  0.4837 -0.0575
14003SOL    HW246857   8.434   5.946   3.011  0.9737 -1.5769 -0.4940
14004SOL     OW46858   8.208   0.290   3.839  0.2023 -0.1751 -0.5111
14004SOL    HW146859   8.250   0.345   3.905  0.9140 -0.2390 -0.9056
14004SOL    HW246860   8.279   0.260   3.784 -0.2612 -1.0109 -0.6637
14005SOL     OW46861   3.806   4.427   3.405 -0.2040 -0.5186 -0.3094
14005SOL    HW146862   3.756   4.346   3.414 -1.5670  0.4826  2.1625
14005SOL    HW246863   3.897   4.399   3.406 -0.6498 -2.0490  0.3587
14006SOL     OW46864   7.164   7.122   6.731  0.0280 -0.3590  0.5846
14006SOL    HW146865   7.092   7.104   6.791 -0.6098 -0.2078 -0.1317
14006SOL    HW246866   7.122   7.143   6.648  0.8889 -0.0001  0.2292
14007SOL     OW46867   8.687   9.056   0.377 -0.9806  0.2053  0.1774
14007SOL    HW146868   8.668   9.036   0.286  2.1738 -0.1408 -0.5061
14007SOL    HW246869   8.711   8.972   0.416  0.9996  0.8100  0.3685
14008SOL     OW46870   7.464   5.066   7.469 -0.2035 -0.1746 -0.0261
14008SOL    HW146871   7.494   5.137   7.412  0.5053 -1.4068 -1.2428
14008SOL    HW246872   7.369   5.064   7.456 -0.1476  0.0965 -0.5202
14009SOL     OW46873   4.717   2.776   0.021  0.1392  0.1646  0.0147
14009SOL    HW146874   4.774   2.810   0.090  0.8608 -0.1076 -0.4259
14009SOL    HW246875   4.628   2.786   0.055  0.4175  1.1150  0.4878
14010SOL     OW46876   7.560   3.063   5.835  0.2187  0.4343  0.2049
14010SOL    HW146877   7.560   3.155   5.861  0.5327  0.7698 -0.9283
14010SOL    HW246878   7.468   3.041   5.826  0.1510  1.0238 -0.7532
14011SOL     OW46879   0.956   1.515   5.106  0.6462  0.1400  0.0244
14011SOL    HW146880   0.899   1.440   5.091  1.7322 -0.6461 -0.2372
14011SOL    HW246881   0.922   1.582   5.046 -0.8962  0.2075  0.9094
14012SOL     OW46882   8.557   8.646   2.148 -0.7866  0.1109  0.7868
14012SOL    HW146883   8.521   8.730   2.174 -0.1406  0.1158  1.6903
14012SOL    HW246884   8.563   8.596   2.229  1.3790  0.1670  0.7127
14013SOL     OW46885   0.299   3.855   5.527 -0.2215 -0.8485  0.1000
14013SOL    HW146886   0.296   3.946   5.497  0.3440 -0.4196  1.2664
14013SOL    HW246887   0.254   3.806   5.459 -1.5304  0.4574 -0.0370
14014SOL     OW46888   5.516   3.110   2.942 -0.1333  0.3033  0.2193
14014SOL    HW146889   5.529   3.016   2.954  0.6550  0.4888  0.9405
14014SOL    HW246890   5.421   3.121   2.937 -0.2360 -0.5143  0.2706
14015SOL     OW46891   3.138   4.250   7.255 -0.1150  0.0590 -1.2222
14015SOL    HW146892   3.122   4.162   7.292  0.4627  0.2775 -0.4208
14015SOL    HW246893   3.154   4.234   7.162  1.2498 -0.8480 -0.8678
14016SOL     OW46894   5.619   4.879   5.435 -0.6418  0.3916 -0.2087
14016SOL    HW146895   5.618   4.906   5.344  0.1046  1.3584  0.0429
14016SOL    HW246896   5.561   4.941   5.480 -2.1913 -0.9946 -0.2377
14017SOL     OW46897   8.310   7.795   3.263  0.4280  0.0633  0.0087
14017SOL    HW146898   8.361   7.809   3.342 -0.9912 -0.4413  1.0659
14017SOL    HW246899   8.373   7.762   3.199  1.9470  2.1140  0.3407
14018SOL     OW46900   3.568   7.338   8.706  0.1328 -0.3868  0.2460
14018SOL    HW146901   3.491   7.290   8.677  0.9045 -1.7963  0.4661
14018SOL    HW246902   3.633   7.325   8.636  0.8097 -0.8239  0.9429
14019SOL     OW46903   4.949   8.379   0.818  1.2322  0.5177  0.2098
14019SOL    HW146904   5.039   8.378   0.851  1.1123  0.5860  0.5422
14019SOL    HW246905   4.912   8.460   0.851  1.7888  1.7345 -1.9563
14020SOL     OW46906   3.410   1.098   7.876 -0.6578  0.2001  0.0591
14020SOL    HW146907   3.421   1.191   7.857 -0.9060  0.1956 -0.1083
14020SOL    HW246908   3.448   1.087   7.964 -1.6177  0.6760  0.5428
14021SOL     OW46909   4.503   9.136   3.281 -0.1020 -0.3393 -0.0346
14021SOL    HW146910   4.576   9.141   3.219 -0.4080 -0.8086 -0.4389
14021SOL    HW246911   4.430   9.104   3.229 -0.1777 -1.4808  0.7314
14022SOL     OW46912   6.482   1.747   4.402  0.0641  0.2710  0.2179
14022SOL    HW146913   6.508   1.655   4.401 -0.8932 -0.0081 -0.0257
14022SOL    HW246914   6.413   1.754   4.335  0.5649  1.2985 -0.2166
14023SOL     OW46915   8.359   5.158   6.478  0.1648 -0.2474 -0.1726
14023SOL    HW146916   8.334   5.231   6.535 -0.8470 -0.5502 -0.2268
14023SOL    HW246917   8.455   5.162   6.476  0.1317  1.0231 -0.1043
14024SOL     OW46918   3.762   7.007   1.837 -0.3514 -0.1949 -0.3635
14024SOL    HW146919   3.698   7.057   1.787  0.8247  0.7685 -0.9704
14024SOL    HW246920   3.826   6.979   1.772  0.3535 -0.3112  0.3630
14025SOL     OW46921   8.464   9.275   8.360 -0.2728 -0.3268  0.1589
14025SOL    HW146922   8.451   9.369   8.349 -1.1287 -0.6130 -1.5910
14025SOL    HW246923   8.548   9.267   8.406  0.0905  1.2717 -0.1767
14026SOL     OW46924   3.054   7.356   5.687 -0.3040  0.0748  0.4206
14026SOL    HW146925   3.047   7.267   5.654  1.8165 -0.2846  0.8414
14026SOL    HW246926   3.022   7.351   5.777 -2.4026  0.2648 -0.2659
14027SOL     OW46927   8.249   8.664   3.525  0.3969 -0.4377 -0.0151
14027SOL    HW146928   8.336   8.702   3.536  0.6840 -1.4224  1.3588
14027SOL    HW246929   8.191   8.739   3.517  1.3611  0.2365 -1.0768
14028SOL     OW46930   8.918   5.381   6.981  0.3798  0.1906 -0.1473
14028SOL    HW146931   8.918   5.291   7.013 -0.4984 -0.0502 -0.8160
14028SOL    HW246932   8.976   5.379   6.905  0.8377  0.3325  0.1888
14029SOL     OW46933   3.289   6.407   7.818 -0.1410 -0.1798 -0.2624
14029SOL    HW146934   3.358   6.342   7.802 -0.3405 -0.7972  1.2287
14029SOL    HW246935   3.233   6.367   7.884 -2.7791 -0.2951 -2.3678
14030SOL     OW46936   6.079   0.220   0.781  0.2497  0.3954  0.1096
14030SOL    HW146937   6.130   0.155   0.733  0.9521  1.2734 -0.3488
14030SOL    HW246938   6.075   0.296   0.723  0.1583  1.0680  0.9721
14031SOL     OW46939   8.923   5.256   1.972  0.1573 -0.1010 -0.2972
14031SOL    HW146940   8.849   5.197   1.985  0.8502 -0.5781  1.8732
14031SOL    HW246941   8.984   5.205   1.918  0.2384 -0.9214  0.5456
14032SOL     OW46942   2.505   0.835   8.791 -0.1027 -0.5039 -0.0990
14032SOL    HW146943   2.534   0.850   8.701  0.4172 -0.1833  0.1198
14032SOL    HW246944   2.585   0.822   8.841 -0.2991  0.7726  0.5835
14033SOL     OW46945   7.919   8.909   4.618 -0.6587 -0.1819 -0.2269
14033SOL    HW146946   7.939   8.991   4.574 -1.5448  0.4478  0.5119
14033SOL    HW246947   7.840   8.877   4.574 -0.9222 -0.0982  0.1763
14034SOL     OW46948   9.273   6.850   8.316  0.0305 -0.3618 -0.7294
14034SOL    HW146949   9.196   6.892   8.278  0.2412 -0.4062 -1.2114
14034SOL    HW246950   9.339   6.919   8.319  0.2098 -0.5168 -1.0285
14035SOL     OW46951   2.393   2.702   3.527 -0.0201 -0.6774  0.6741
14035SOL    HW146952   2.420   2.748   3.606  1.4920  0.1391 -0.2837
14035SOL    HW246953   2.327   2.759   3.488  1.3782  0.4272 -0.1672
14036SOL     OW46954   0.020   7.479   2.608  0.3227  0.0683 -0.1266
14036SOL    HW146955  -0.009   7.438   2.689 -1.4847  2.5845  0.5963
14036SOL    HW246956   0.073   7.411   2.565 -1.0324 -2.3514  1.7597
14037SOL     OW46957   5.230   2.839   0.769  0.3240 -0.1356  0.5486
14037SOL    HW146958   5.237   2.825   0.674  1.7746 -0.0848  0.6272
14037SOL    HW246959   5.235   2.934   0.779 -0.5451 -0.0938  0.6375
14038SOL     OW46960   7.693   3.037   9.413  0.3981  0.1732 -0.0870
14038SOL    HW146961   7.692   3.064   9.504  1.1094  0.2362 -0.0926
14038SOL    HW246962   7.618   2.978   9.404  0.2012  0.3326  0.4784
14039SOL     OW46963   2.222   4.734   7.842 -0.1132  0.0770  0.4964
14039SOL    HW146964   2.151   4.747   7.779  0.9738 -1.8832 -1.2631
14039SOL    HW246965   2.268   4.817   7.845 -1.4730  0.8602  0.3838
14040SOL     OW46966   6.795   7.437   3.477  0.3221  0.0584 -0.8378
14040SOL    HW146967   6.802   7.526   3.444 -0.2284 -0.0700 -1.2964
14040SOL    HW246968   6.886   7.413   3.499  0.2486  1.5116  1.3798
14041SOL     OW46969   2.142   9.056   0.315  0.2419 -0.3188 -0.9703
14041SOL    HW146970   2.064   9.111   0.320  0.6429  0.3861 -2.0692
14041SOL    HW246971   2.160   9.031   0.405 -1.3488 -0.6481 -0.7164
14042SOL     OW46972   6.935   1.837   3.827 -0.1554  0.1233 -0.6051
14042SOL    HW146973   6.960   1.820   3.737  2.1567 -0.4547  0.0822
14042SOL    HW246974   6.841   1.820   3.829 -0.0172 -1.1864 -2.5875
14043SOL     OW46975   1.058   3.763   6.598 -0.8097 -0.4231 -0.0166
14043SOL    HW146976   1.114   3.693   6.631  0.5349  1.4988  2.0391
14043SOL    HW246977   0.989   3.771   6.664  0.0880  1.3507  0.7562
14044SOL     OW46978   9.541   6.857   4.614  0.4008  0.5387  0.0996
14044SOL    HW146979   9.468   6.893   4.663 -2.1964 -0.1153 -2.9849
14044SOL    HW246980   9.572   6.784   4.667 -0.1773  1.7142  2.1515
14045SOL     OW46981   4.013   5.770   7.326  0.0058 -0.4304 -0.3174
14045SOL    HW146982   4.038   5.833   7.394 -1.9280  0.0777  0.0068
14045SOL    HW246983   4.088   5.766   7.268  0.4723  1.6769  0.0412
14046SOL     OW46984   5.344   5.909   5.274  0.4386 -0.3270 -0.7671
14046SOL    HW146985   5.286   5.979   5.245  0.8194  0.0368 -0.6575
14046SOL    HW246986   5.429   5.952   5.287  0.6106 -0.7574 -0.4542
14047SOL     OW46987   4.764   5.233   0.239  0.1829 -0.7674  0.7375
14047SOL    HW146988   4.846   5.183   0.232  0.7360  0.0013  1.5364
14047SOL    HW246989   4.756   5.254   0.332  0.4609  1.3982  0.3238
14048SOL     OW46990   8.856   8.587   0.184 -0.0516 -0.1617 -0.1402
14048SOL    HW146991   8.897   8.649   0.244 -0.2798  0.5767 -0.7329
14048SOL    HW246992   8.926   8.562   0.124 -0.4013  0.9572 -1.0384
14049SOL     OW46993   8.165   8.520   5.108 -0.0861  0.1923 -0.1431
14049SOL    HW146994   8.201   8.599   5.068 -0.2331  0.9291  1.1166
14049SOL    HW246995   8.100   8.552   5.171 -1.2741 -1.0067 -0.7003
14050SOL     OW46996   7.577   2.790   9.370 -0.4561  0.1643  0.7374
14050SOL    HW146997   7.668   2.769   9.350 -0.5433 -0.7170  1.1693
14050SOL    HW246998   7.527   2.723   9.325 -1.0169  1.5781 -0.8189
14051SOL     OW46999   7.823   4.698   9.189 -0.3093  0.4004 -1.2630
14051SOL    HW147000   7.885   4.763   9.221  1.7927 -1.0904 -2.0641
14051SOL    HW247001   7.871   4.615   9.191 -2.6075 -1.0309 -1.0483
14052SOL     OW47002   2.640   2.542   8.440 -0.0933 -0.5245 -0.1187
14052SOL    HW147003   2.712   2.485   8.466  0.1488  0.5645  1.7655
14052SOL    HW247004   2.561   2.487   8.450  0.4148 -1.9436 -2.8591
14053SOL     OW47005   7.893   2.215   1.644  0.2593  0.5751 -0.3513
14053SOL    HW147006   7.808   2.240   1.681  1.0507  1.7028  0.7859
14053SOL    HW247007   7.941   2.178   1.717  1.6118  2.2099 -0.3450
14054SOL     OW47008   2.185   4.047   0.214  0.0052  0.1567 -0.3671
14054SOL    HW147009   2.224   4.118   0.266  0.5227  0.6803 -1.4440
14054SOL    HW247010   2.109   4.019   0.265 -0.5412  1.8630 -0.1927
14055SOL     OW47011   5.389   1.555   6.241 -0.0196 -0.6049  0.3351
14055SOL    HW147012   5.341   1.520   6.315 -0.5925 -0.9561 -0.1935
14055SOL    HW247013   5.325   1.560   6.170 -0.5071  3.1811  0.8018
14056SOL     OW47014   4.363   6.236   8.617  0.1630  0.1084  0.1646
14056SOL    HW147015   4.301   6.206   8.550  0.0967  1.1503 -0.2609
14056SOL    HW247016   4.308   6.277   8.683  0.2276 -0.9391  0.8922
14057SOL     OW47017   2.788   3.276   3.401  0.0892  0.1210  0.8150
14057SOL    HW147018   2.805   3.298   3.310 -1.8726  1.0427  0.6040
14057SOL    HW247019   2.874   3.262   3.440  0.9695  0.0181 -1.0917
14058SOL     OW47020   9.381   0.017   7.443  0.4572 -0.7731  0.3569
14058SOL    HW147021   9.454   0.072   7.469  0.0640  0.0125 -0.1522
14058SOL    HW247022   9.393  -0.065   7.491  1.4659 -0.5211  0.5413
14059SOL     OW47023   7.598   7.649   9.327  0.3452 -0.1189 -1.2025
14059SOL    HW147024   7.504   7.650   9.312  0.3918 -0.2882 -1.5051
14059SOL    HW247025   7.615   7.729   9.377  0.3336  1.0340 -2.9566
14060SOL     OW47026   2.712   3.937   2.688 -0.3456 -0.1949  0.1349
14060SOL    HW147027   2.665   3.980   2.760 -0.2738  0.0760  0.0186
14060SOL    HW247028   2.651   3.869   2.658 -1.2942  1.1048 -0.9913
14061SOL     OW47029   1.437   5.708   5.427  0.0652 -0.3528 -0.3939
14061SOL    HW147030   1.342   5.719   5.426  0.0620  0.0537  1.3436
14061SOL    HW247031   1.459   5.695   5.519  1.9171  1.6048 -0.4776
14062SOL     OW47032   1.454   8.641   1.248 -0.4925 -0.4637 -0.3581
14062SOL    HW147033   1.490   8.726   1.273 -0.1543  0.0950 -2.5193
14062SOL    HW247034   1.430   8.599   1.331 -0.4663  1.6323  0.7684
14063SOL     OW47035   3.091   0.634   9.749 -0.2842  0.0029  0.3643
14063SOL    HW147036   3.111   0.542   9.767 -0.9724 -0.3075 -0.3473
14063SOL    HW247037   3.073   0.672   9.835  0.4186 -0.4204  0.7072
14064SOL     OW47038   0.239   1.685   4.940  0.0290 -0.5142  0.0415
14064SOL    HW147039   0.273   1.649   4.858 -1.1291 -2.1347  0.2342
14064SOL    HW247040   0.153   1.721   4.917  0.3171  0.3308  0.2646
14065SOL     OW47041   9.383   1.522   8.768  0.1723 -0.6922  0.4704
14065SOL    HW147042   9.307   1.464   8.769  0.4323 -1.0307  1.3601
14065SOL    HW247043   9.406   1.530   8.676 -0.1072 -1.6866  0.3067
14066SOL     OW47044   0.391   6.517   6.094  0.0659  0.4524 -0.1967
14066SOL    HW147045   0.349   6.437   6.062 -0.3094  0.5802 -0.0223
14066SOL    HW247046   0.482   6.510   6.064  0.0362 -0.0431 -0.1746
14067SOL     OW47047   7.490   5.723   2.685  0.0936 -0.2047 -0.4642
14067SOL    HW147048   7.485   5.745   2.778 -0.7796  0.3066 -0.6260
14067SOL    HW247049   7.522   5.803   2.643  1.0920 -0.6291 -0.5396
14068SOL     OW47050   1.077   0.273   1.147  0.4454  0.8160  0.2216
14068SOL    HW147051   1.152   0.275   1.087 -0.0553  0.5722 -0.4168
14068SOL    HW247052   1.059   0.180   1.161 -0.4166  0.8584 -0.4980
14069SOL     OW47053   5.545   4.837   4.758 -0.1069  0.3814 -0.0478
14069SOL    HW147054   5.535   4.903   4.690 -1.6849 -0.8020 -1.0594
14069SOL    HW247055   5.468   4.849   4.814  0.2818  0.2490  0.5151
14070SOL     OW47056   5.211   1.184   1.799 -0.2659  0.0338  0.4256
14070SOL    HW147057   5.171   1.269   1.816  1.7286  0.8022  1.6273
14070SOL    HW247058   5.189   1.132   1.877 -2.9289 -1.2510 -1.0148
14071SOL     OW47059   2.895   9.651   7.017  0.0531  0.2214  0.0346
14071SOL    HW147060   2.945   9.650   6.935 -1.4796 -1.3488 -0.9386
14071SOL    HW247061   2.838   9.727   7.010 -0.3577 -0.1327 -0.5648
14072SOL     OW47062   9.127   3.053   9.755  0.4937  0.1123  0.2465
14072SOL    HW147063   9.132   2.982   9.690  1.0686 -0.2768  0.7090
14072SOL    HW247064   9.189   3.119   9.724  1.6329 -0.5821  1.0005
14073SOL     OW47065   1.770   4.349   9.158 -0.4371  0.6445  0.3124
14073SOL    HW147066   1.859   4.318   9.141 -1.9129 -2.7023 -2.4350
14073SOL    HW247067   1.726   4.274   9.197 -2.5697  1.5936 -0.1519
14074SOL     OW47068   1.042   1.511   9.714  0.7177 -0.4125  0.1327
14074SOL    HW147069   1.016   1.544   9.628  2.6394 -1.8348 -1.0873
14074SOL    HW247070   0.962   1.470   9.749 -0.6377  1.9151  0.0023
14075SOL     OW47071   2.801   3.148   5.305 -0.2561  0.1679 -0.1728
14075SOL    HW147072   2.821   3.125   5.395 -0.5933  0.7364  0.0495
14075SOL    HW247073   2.877   3.199   5.275  0.0340 -0.3545 -0.3426
14076SOL     OW47074   5.169   9.168   9.668  0.2812  0.5544 -0.2223
14076SOL    HW147075   5.171   9.261   9.648  1.1645  1.1682  2.2670
14076SOL    HW247076   5.227   9.159   9.744  0.4537 -2.0742 -0.5801
14077SOL     OW47077   6.279   0.357   1.158 -0.0154 -0.0475  0.6339
14077SOL    HW147078   6.267   0.358   1.253 -0.7454 -1.8142  0.5998
14077SOL    HW247079   6.221   0.426   1.126  1.3264  1.5691  1.5371
14078SOL     OW47080   1.181   5.439   1.894  0.1559  0.0696  0.3908
14078SOL    HW147081   1.222   5.491   1.963  1.1470 -0.8022  0.4872
14078SOL    HW247082   1.207   5.349   1.914  1.4044 -0.0932 -1.7355
14079SOL     OW47083   0.070   7.315   7.294  0.5452  0.0834  0.1961
14079SOL    HW147084   0.106   7.227   7.288 -1.2830 -0.8907  2.3235
14079SOL    HW247085  -0.016   7.309   7.252  1.0703  1.3276 -1.1503
14080SOL     OW47086   7.792   4.083   7.881  0.1768  0.0170  0.0796
14080SOL    HW147087   7.878   4.098   7.843  0.9415 -1.5082  1.0926
14080SOL    HW247088   7.734   4.073   7.806  1.5569 -2.4824 -0.7971
14081SOL     OW47089   6.386   5.644   3.391 -0.4426 -0.2073  0.3111
14081SOL    HW147090   6.413   5.553   3.376  2.8443  0.6586  0.1921
14081SOL    HW247091   6.330   5.664   3.316  2.3816 -0.9230 -2.2369
14082SOL     OW47092   7.600   3.509   8.485  0.1013  0.2057 -0.3377
14082SOL    HW147093   7.527   3.519   8.425  0.3758  0.1084 -0.6883
14082SOL    HW247094   7.624   3.599   8.509 -0.1848  0.2349 -0.1572
14083SOL     OW47095   2.527   7.449   6.921  0.9921 -0.2147  0.2804
14083SOL    HW147096   2.487   7.527   6.883 -0.8467 -0.8016  0.9059
14083SOL    HW247097   2.607   7.481   6.963  1.0876  1.0470 -0.8099
14084SOL     OW47098   0.552   7.515   7.002  0.0297 -0.3306 -0.6436
14084SOL    HW147099   0.585   7.601   6.976 -0.6855 -0.5865 -2.5486
14084SOL    HW247100   0.570   7.510   7.096 -0.4991  2.1387 -0.3454
14085SOL     OW47101   5.419   2.600   0.721 -0.6037  0.1547 -0.5890
14085SOL    HW147102   5.363   2.523   0.724  0.2419 -0.6536 -2.8501
14085SOL    HW247103   5.414   2.630   0.630 -0.0472  2.1287 -0.0401
14086SOL     OW47104   1.438   8.670   0.593 -0.6004 -0.1512  0.2720
14086SOL    HW147105   1.497   8.724   0.539 -1.2437 -0.6971 -1.0089
14086SOL    HW247106   1.403   8.605   0.533  0.5926 -2.4168  1.8975
14087SOL     OW47107   9.727   4.412   8.308 -0.0590 -0.3757 -0.2974
14087SOL    HW147108   9.667   4.394   8.235 -0.1330  0.6105 -0.4928
14087SOL    HW247109   9.696   4.495   8.344  1.4469  0.3641 -0.6632
14088SOL     OW47110   2.180   1.382   9.155  0.3360  0.5600 -0.1040
14088SOL    HW147111   2.128   1.354   9.080  0.8376  1.5894 -0.8620
14088SOL    HW247112   2.118   1.430   9.210  0.5370  2.0988 -1.1818
14089SOL     OW47113   5.893   7.701   7.776  0.4034  0.4808 -0.1239
14089SOL    HW147114   5.989   7.701   7.779  0.4514 -0.6985 -0.9738
14089SOL    HW247115   5.867   7.659   7.858  0.6236  0.5682 -0.0091
14090SOL     OW47116   5.124   2.987   2.112  0.3954  0.2793  0.2542
14090SOL    HW147117   5.207   3.034   2.100 -0.6027  2.3369  0.9046
14090SOL    HW247118   5.132   2.947   2.199  1.4369 -1.2433 -0.4927
14091SOL     OW47119   9.154   0.331   3.481 -0.0894  0.2382  0.4315
14091SOL    HW147120   9.176   0.383   3.558 -0.8294 -0.3162  1.0350
14091SOL    HW247121   9.170   0.240   3.508  0.6999  0.0946 -0.4376
14092SOL     OW47122   2.119   3.890   2.390  0.0793  0.2175 -0.0206
14092SOL    HW147123   2.150   3.800   2.393 -0.3420  0.0272 -1.0840
14092SOL    HW247124   2.033   3.887   2.432 -0.2047  0.0070 -0.6162
14093SOL     OW47125   1.512   2.258   6.686 -0.1350  0.1697 -0.4107
14093SOL    HW147126   1.432   2.276   6.735 -0.3315  0.5434 -0.8618
14093SOL    HW247127   1.532   2.167   6.706 -1.1010 -0.1612 -0.9056
14094SOL     OW47128   6.804   9.457   4.886 -0.0602 -0.0673 -0.4280
14094SOL    HW147129   6.847   9.521   4.830  1.9482 -0.0366  1.0295
14094SOL    HW247130   6.787   9.504   4.968 -0.6250 -0.7839 -0.1194
14095SOL     OW47131   4.330   7.603   4.280 -0.1329 -0.0074 -0.2027
14095SOL    HW147132   4.322   7.545   4.355  0.0526  1.8509  1.3242
14095SOL    HW247133   4.409   7.574   4.235  0.3491 -0.4975  0.9353
14096SOL     OW47134   6.337   5.284   1.373  0.1309  0.3278 -0.1148
14096SOL    HW147135   6.291   5.366   1.393 -1.7620 -0.5854 -0.4285
14096SOL    HW247136   6.292   5.251   1.295 -0.1337 -1.6981  0.8230
14097SOL     OW47137   3.148   7.085   9.156  0.6008 -0.2446  0.0451
14097SOL    HW147138   3.132   6.995   9.181  0.5642  0.4080  2.6125
14097SOL    HW247139   3.164   7.131   9.238  1.3803  1.9534 -1.2399
14098SOL     OW47140   7.436   4.834   1.978  0.1376 -0.0271 -0.2485
14098SOL    HW147141   7.350   4.871   1.960  0.3449 -0.2316 -1.7807
14098SOL    HW247142   7.428   4.795   2.065 -1.7991 -1.4247 -0.9916
14099SOL     OW47143   7.918   1.114   2.433  0.2002 -0.2335 -0.0052
14099SOL    HW147144   7.998   1.145   2.391  1.0370 -0.6404  1.2296
14099SOL    HW247145   7.941   1.106   2.525 -0.8199 -1.7542  0.1559
14100SOL     OW47146   4.187   5.673   6.308  0.0049  0.0445 -0.0313
14100SOL    HW147147   4.141   5.690   6.390  0.4098 -0.9239  0.4056
14100SOL    HW247148   4.159   5.744   6.250 -2.3253 -0.6973  0.0943
14101SOL     OW47149   6.182   7.500   0.900 -0.2490  0.0922 -0.3507
14101SOL    HW147150   6.103   7.524   0.850  0.1715 -0.0962 -1.1289
14101SOL    HW247151   6.160   7.521   0.991 -1.8218 -1.4934 -0.2902
14102SOL     OW47152   8.331   1.131   8.866 -0.4899 -0.2211 -0.1868
14102SOL    HW147153   8.418   1.140   8.904 -1.1255  0.8822  1.0922
14102SOL    HW247154   8.296   1.220   8.864 -0.9993 -0.4009 -2.2262
14103SOL     OW47155   0.965   2.906   4.676  0.0588  0.0540 -0.1182
14103SOL    HW147156   0.924   2.979   4.722 -1.4481 -0.8830  0.0926
14103SOL    HW247157   0.994   2.943   4.593 -1.9150  0.6316 -0.6055
14104SOL     OW47158   7.227   2.441   4.415 -0.0707 -0.1704  0.7170
14104SOL    HW147159   7.166   2.514   4.413 -0.7395 -0.7337 -0.0033
14104SOL    HW247160   7.186   2.373   4.362  1.5820 -0.2390 -0.5754
14105SOL     OW47161   2.438   3.261   5.095 -0.2967  0.4343 -0.0896
14105SOL    HW147162   2.372   3.192   5.090  0.3061 -0.1121 -0.6127
14105SOL    HW247163   2.493   3.248   5.017 -0.4520  1.7903 -0.4444
14106SOL     OW47164   6.021   7.140   1.229  0.2324 -0.5941  0.1301
14106SOL    HW147165   5.969   7.087   1.288  0.9624  1.5177  2.8717
14106SOL    HW247166   5.958   7.173   1.165 -1.1895 -0.6897  1.4177
14107SOL     OW47167   8.503   4.507   3.251 -0.6408 -0.8427  0.6198
14107SOL    HW147168   8.424   4.510   3.198 -0.8305 -0.8281  0.8963
14107SOL    HW247169   8.477   4.459   3.330  0.0704 -2.3271 -0.0112
14108SOL     OW47170   7.865   3.775   4.631 -0.0682 -0.0389  0.3526
14108SOL    HW147171   7.909   3.691   4.643  0.3074 -0.3231 -2.3440
14108SOL    HW247172   7.789   3.771   4.689 -1.5837 -3.4382 -1.5404
14109SOL     OW47173   5.719   7.873   2.056 -0.0364 -0.4455  0.0089
14109SOL    HW147174   5.815   7.870   2.058 -0.0735 -1.9240  1.2588
14109SOL    HW247175   5.697   7.959   2.091  0.8255 -0.2351  0.0738
14110SOL     OW47176   8.247   1.261   1.821 -0.5895 -0.7785 -0.4328
14110SOL    HW147177   8.176   1.228   1.766 -0.4682  0.4280 -1.3389
14110SOL    HW247178   8.327   1.236   1.776 -0.4713  2.4875 -2.3431
14111SOL     OW47179   2.286   0.591   5.038  0.1122 -0.2085  0.7505
14111SOL    HW147180   2.227   0.531   5.082  0.8645 -0.2905  1.6886
14111SOL    HW247181   2.370   0.545   5.036  0.3362  0.2119  0.1375
14112SOL     OW47182   1.056   2.406   1.562 -0.3667 -0.2098  0.6541
14112SOL    HW147183   1.122   2.458   1.517 -2.6483  2.3407  0.0132
14112SOL    HW247184   1.084   2.407   1.654  1.1680 -0.3795  0.2253
14113SOL     OW47185   1.080   0.572   6.345  0.3506  0.3661 -0.3045
14113SOL    HW147186   1.019   0.576   6.271 -0.7925  1.0481  0.6381
14113SOL    HW247187   1.164   0.601   6.308  0.4431 -1.7129 -1.9009
14114SOL     OW47188   3.443   6.131   8.147  0.2378  0.3934  0.3942
14114SOL    HW147189   3.413   6.070   8.215 -0.6756  0.0088 -0.3209
14114SOL    HW247190   3.536   6.143   8.164  0.3875 -1.0352  0.6846
14115SOL     OW47191   3.461   8.701   1.853  0.6470  0.2368  0.0560
14115SOL    HW147192   3.420   8.782   1.882  0.9791  0.7718 -0.9310
14115SOL    HW247193   3.456   8.643   1.929  1.1074  1.4417  1.0299
14116SOL     OW47194   7.284   6.517   2.139  0.3591  0.7085  0.6188
14116SOL    HW147195   7.238   6.594   2.173  0.3552  0.7459  0.5277
14116SOL    HW247196   7.240   6.443   2.180 -1.0738  0.6211 -0.9766
14117SOL     OW47197   5.767   5.950   7.258  0.4915 -0.3078  0.2457
14117SOL    HW147198   5.702   5.995   7.312 -0.4017 -1.5925  0.2930
14117SOL    HW247199   5.773   6.002   7.178 -2.2041 -1.2542 -0.6757
14118SOL     OW47200   7.238   1.449   0.681  0.3259 -0.3655  0.0513
14118SOL    HW147201   7.181   1.373   0.682 -1.7505  1.1086  0.8366
14118SOL    HW247202   7.191   1.516   0.732  2.3279  1.2565 -0.0634
14119SOL     OW47203   8.260   6.154   5.180  0.0412 -0.2280 -0.5944
14119SOL    HW147204   8.319   6.095   5.134  0.7078  0.3522 -0.5158
14119SOL    HW247205   8.220   6.100   5.248  2.0934 -0.2101  0.7451
14120SOL     OW47206   6.361   4.503   8.175  0.1955  0.2823 -0.2245
14120SOL    HW147207   6.391   4.526   8.087 -1.3561  0.3110 -0.7690
14120SOL    HW247208   6.285   4.446   8.162  0.4504 -0.4244  1.1079
14121SOL     OW47209   4.580   7.343   7.106  0.2663 -0.1147 -0.2770
14121SOL    HW147210   4.512   7.409   7.098 -0.2897 -0.4877  1.1443
14121SOL    HW247211   4.662   7.392   7.095 -0.0658  1.1128  2.0582
14122SOL     OW47212   2.564   7.237   9.164  0.2952  0.5903 -0.5364
14122SOL    HW147213   2.516   7.156   9.147 -0.3349 -0.2442  3.9465
14122SOL    HW247214   2.500   7.307   9.150 -0.1909  0.0326 -1.1251
14123SOL     OW47215   6.935   9.706   8.323 -0.1083 -0.3534  0.2869
14123SOL    HW147216   6.878   9.765   8.372 -0.4001 -0.5496  0.1863
14123SOL    HW247217   6.951   9.633   8.383  0.2790 -0.1567  0.4232
14124SOL     OW47218   3.868   0.143   6.857  0.2726 -0.5078  0.3834
14124SOL    HW147219   3.826   0.161   6.941 -0.8161  2.3864 -0.6216
14124SOL    HW247220   3.948   0.195   6.858 -0.4345  0.6971 -0.7889
14125SOL     OW47221   3.828   2.596   4.182  0.0528 -0.1775  0.2492
14125SOL    HW147222   3.896   2.653   4.147  0.8437 -0.0120  1.9771
14125SOL    HW247223   3.753   2.655   4.196  0.0105 -0.0842 -0.3227
14126SOL     OW47224   7.892   7.354   9.742  0.2791 -0.4631  0.5240
14126SOL    HW147225   7.861   7.371   9.831 -0.5033 -1.5793  0.4746
14126SOL    HW247226   7.813   7.339   9.691  0.7377 -0.1760 -0.3092
14127SOL     OW47227   0.240   1.772   8.917 -0.2245  0.8036 -0.1230
14127SOL    HW147228   0.181   1.726   8.856 -0.1639  0.3750  0.1360
14127SOL    HW247229   0.204   1.752   9.004 -0.0218  1.0040  0.0059
14128SOL     OW47230   7.090   2.878   3.716  0.1292 -0.4575  0.7114
14128SOL    HW147231   7.019   2.924   3.672  0.1906 -0.7596  0.2960
14128SOL    HW247232   7.131   2.945   3.772 -0.3075 -0.2185  0.7482
14129SOL     OW47233   0.572   2.689   0.003 -0.2913 -0.2218 -0.3342
14129SOL    HW147234   0.574   2.594   0.015  1.9885 -0.4442 -1.8384
14129SOL    HW247235   0.533   2.723   0.084  3.3201 -2.1590  2.5397
14130SOL     OW47236   2.166   3.476   4.080  0.9482 -0.1626 -0.3111
14130SOL    HW147237   2.187   3.386   4.103 -1.3246 -1.3422 -2.3097
14130SOL    HW247238   2.232   3.501   4.016  0.6913 -1.0289 -0.9329
14131SOL     OW47239   7.857   3.152   4.389  0.6482  0.2992 -0.1140
14131SOL    HW147240   7.799   3.084   4.357  0.0391 -0.5742  2.5853
14131SOL    HW247241   7.821   3.233   4.352 -1.1606 -0.4194 -0.0463
14132SOL     OW47242   4.222   6.356   7.408  0.4463  0.1912 -0.0429
14132SOL    HW147243   4.257   6.331   7.494  1.6334  0.0699 -0.5441
14132SOL    HW247244   4.220   6.452   7.410  1.0322  0.2051 -0.0917
14133SOL     OW47245   4.727   8.337   2.084 -0.0984  0.1251  1.0780
14133SOL    HW147246   4.655   8.349   2.022  0.9710  0.3829 -0.1610
14133SOL    HW247247   4.722   8.413   2.141  0.0582  0.8930  0.0935
14134SOL     OW47248   3.668   8.566   7.104 -0.3996  0.2513  0.5220
14134SOL    HW147249   3.720   8.506   7.051 -2.8059 -1.3205 -0.2520
14134SOL    HW247250   3.715   8.572   7.187  0.4038 -2.0544  0.2998
14135SOL     OW47251   5.816   0.923   0.103 -0.3984 -0.7413  0.0261
14135SOL    HW147252   5.767   0.890   0.178 -0.5097  2.0559  1.3251
14135SOL    HW247253   5.894   0.869   0.098 -1.0264 -1.7989  1.3407
14136SOL     OW47254   2.693   4.507   3.991  0.3887 -0.0184 -0.4244
14136SOL    HW147255   2.671   4.539   3.903 -0.7333  0.8709  0.1615
14136SOL    HW247256   2.742   4.427   3.975  1.1691  0.7062 -1.8911
14137SOL     OW47257   5.979   4.870   5.704 -0.1294  0.1862  0.0661
14137SOL    HW147258   5.976   4.876   5.799  0.6310  0.1481  0.0988
14137SOL    HW247259   5.890   4.844   5.679 -0.3760  0.3383  0.7477
14138SOL     OW47260   8.985   2.871   6.327  0.4145 -0.3347 -0.0380
14138SOL    HW147261   8.894   2.858   6.354  0.5435 -0.3103  0.4152
14138SOL    HW247262   8.990   2.962   6.299 -0.0787 -0.7561 -1.5684
14139SOL     OW47263   3.993   8.229   9.321  0.4498 -0.1630  0.1080
14139SOL    HW147264   4.057   8.232   9.392 -1.8815 -1.7121  2.4324
14139SOL    HW247265   3.962   8.319   9.313  2.6723  0.5799 -0.9419
14140SOL     OW47266   7.323   0.513   3.206  0.1870  0.8047 -0.2874
14140SOL    HW147267   7.409   0.485   3.174  0.3871  0.2240  0.7278
14140SOL    HW247268   7.273   0.431   3.214  0.0282  0.9804  0.5516
14141SOL     OW47269   2.757   8.111   7.591 -0.3046 -0.2087 -0.5741
14141SOL    HW147270   2.835   8.144   7.548  0.6589 -3.1872 -1.3638
14141SOL    HW247271   2.696   8.091   7.520  0.5007 -3.2174 -0.5418
14142SOL     OW47272   1.555   0.645   3.642  0.3172 -0.0385  0.0794
14142SOL    HW147273   1.545   0.732   3.603 -0.2909  0.1846  0.7166
14142SOL    HW247274   1.617   0.659   3.714 -0.4497  0.0497  0.7314
14143SOL     OW47275   2.858   4.438   4.390  0.4115 -0.3725  0.2351
14143SOL    HW147276   2.909   4.494   4.332  1.6107 -0.6931  0.9249
14143SOL    HW247277   2.911   4.359   4.399  0.0340 -0.5198  1.3823
14144SOL     OW47278   5.135   3.264   7.282  0.5115 -0.0792 -0.0646
14144SOL    HW147279   5.154   3.177   7.247 -0.9700  0.0993 -1.4166
14144SOL    HW247280   5.181   3.324   7.224 -0.4662  0.1293 -0.6538
14145SOL     OW47281   7.014   5.227   6.682 -0.2317  0.2898 -0.4426
14145SOL    HW147282   6.927   5.234   6.642  0.6096  1.8956 -2.1612
14145SOL    HW247283   7.002   5.169   6.757 -2.7111  0.2331 -0.8130
14146SOL     OW47284   1.303   6.801   3.125 -0.3804  0.5388  0.6082
14146SOL    HW147285   1.217   6.781   3.160 -1.2130 -2.2355 -2.4962
14146SOL    HW247286   1.291   6.883   3.077 -0.1417  2.3356  3.4412
14147SOL     OW47287   4.616   5.625   0.081  0.0555  0.6480 -0.2474
14147SOL    HW147288   4.549   5.693   0.088  0.5963  1.1114  0.5680
14147SOL    HW247289   4.642   5.626  -0.011 -0.2139  1.2906 -0.3179
14148SOL     OW47290   8.045   5.236   5.180 -0.1121  0.1549 -0.1990
14148SOL    HW147291   8.033   5.330   5.167 -1.0054  0.2050  0.8924
14148SOL    HW247292   8.126   5.230   5.232 -0.3816  0.3612  0.2509
14149SOL     OW47293   2.787   0.007   9.604  0.1657 -1.3243  0.0219
14149SOL    HW147294   2.731  -0.054   9.554  0.0253 -0.4280 -0.9520
14149SOL    HW247295   2.753   0.094   9.582  1.4746 -0.7965 -0.0064
14150SOL     OW47296   9.588   4.227   2.832 -0.0049  0.1501 -0.1309
14150SOL    HW147297   9.583   4.159   2.899 -1.0646  0.2643 -0.0725
14150SOL    HW247298   9.680   4.232   2.809  0.2869 -0.3020  0.9020
14151SOL     OW47299   1.843   8.559   9.352  0.3550 -0.6319  0.0291
14151SOL    HW147300   1.763   8.612   9.345 -0.2678 -1.3678  1.1817
14151SOL    HW247301   1.893   8.581   9.273 -0.1073  1.2606  0.2106
14152SOL     OW47302   8.427   3.339   3.470  0.0386  0.3115 -0.2444
14152SOL    HW147303   8.465   3.348   3.382  0.1676  0.2523 -0.1961
14152SOL    HW247304   8.491   3.380   3.528  0.3423 -0.3612 -0.0906
14153SOL     OW47305   5.505   1.294   9.464 -0.1906 -0.7359 -0.2996
14153SOL    HW147306   5.419   1.326   9.493  0.5345  0.1675  0.9666
14153SOL    HW247307   5.530   1.231   9.532  0.6951 -0.0334  0.0453
14154SOL     OW47308   9.302   2.419   8.348 -0.2056 -0.1711  0.1764
14154SOL    HW147309   9.247   2.341   8.342 -0.7917  0.1508  1.0862
14154SOL    HW247310   9.307   2.438   8.442  0.4900  0.4927  0.0168
14155SOL     OW47311   1.250   4.867   1.097  0.4222 -0.1480 -0.2586
14155SOL    HW147312   1.171   4.921   1.088  0.4478 -0.0395  0.1301
14155SOL    HW247313   1.262   4.827   1.011 -0.6968 -1.0470 -0.0295
14156SOL     OW47314   6.490   7.490   6.623 -0.0660 -0.2538 -0.2727
14156SOL    HW147315   6.542   7.518   6.698  0.9279  0.6405 -1.2539
14156SOL    HW247316   6.423   7.558   6.614 -0.6492 -0.7543  0.2453
14157SOL     OW47317   0.392   2.091   6.358  0.2265  0.3457 -0.5291
14157SOL    HW147318   0.365   1.999   6.364 -1.4586  0.7690 -0.8597
14157SOL    HW247319   0.349   2.133   6.433  0.5083  0.9553 -0.7027
14158SOL     OW47320   6.253   1.857   1.434 -0.3105  0.0046  0.4140
14158SOL    HW147321   6.228   1.785   1.377 -0.9697  0.5945 -0.0605
14158SOL    HW247322   6.242   1.935   1.380  0.4529  0.4559  0.8978
14159SOL     OW47323   0.449   2.202   3.130  0.4547 -0.3327  0.0742
14159SOL    HW147324   0.540   2.229   3.144  0.3443 -0.0903  0.3290
14159SOL    HW247325   0.437   2.127   3.187  0.1186  0.4192  1.0159
14160SOL     OW47326   5.994   6.100   6.033 -0.3110 -0.3292  0.7268
14160SOL    HW147327   6.076   6.101   5.983 -0.2009  1.7010  0.8654
14160SOL    HW247328   5.977   6.192   6.052 -2.5987 -0.7126  0.7644
14161SOL     OW47329   0.544   2.847   0.505  0.0843  0.4270  0.2475
14161SOL    HW147330   0.579   2.881   0.588 -0.5711 -0.1449  0.7685
14161SOL    HW247331   0.460   2.892   0.495  0.0639  0.3327 -0.0002
14162SOL     OW47332   8.799   2.456   5.660  0.0235  0.0007  0.3782
14162SOL    HW147333   8.759   2.401   5.727 -0.2521  1.2302  1.2568
14162SOL    HW247334   8.787   2.407   5.578 -0.0185 -1.3255  1.1387
14163SOL     OW47335   7.207   0.722   0.395  0.3379  0.6908  0.6810
14163SOL    HW147336   7.248   0.684   0.474  2.3485  3.0642  0.8725
14163SOL    HW247337   7.122   0.753   0.426 -0.6352 -1.9161  0.9087
14164SOL     OW47338   1.689   1.602   3.850  0.3173 -0.1602 -0.6468
14164SOL    HW147339   1.780   1.631   3.858  0.2972 -0.4665  1.1153
14164SOL    HW247340   1.663   1.630   3.763  1.7180  1.0472 -0.7239
14165SOL     OW47341   8.849   6.197   0.805 -0.3689 -0.2738 -0.3661
14165SOL    HW147342   8.820   6.287   0.821  3.6258  1.3439 -1.0624
14165SOL    HW247343   8.819   6.177   0.716  0.8984  1.4478 -1.2262
14166SOL     OW47344   0.024   2.578   4.600 -1.1190 -0.1510  0.1567
14166SOL    HW147345   0.022   2.527   4.519 -0.2152 -0.6455  0.4362
14166SOL    HW247346  -0.033   2.653   4.582  0.4699  0.7194 -1.6227
14167SOL     OW47347   2.683   4.476   6.072 -0.3099  0.4458 -0.6136
14167SOL    HW147348   2.673   4.568   6.045 -1.5856  0.1288 -1.2988
14167SOL    HW247349   2.777   4.461   6.069  0.0290  2.0516  0.6260
14168SOL     OW47350   3.087   4.209   6.785 -0.2569 -0.0772 -0.3349
14168SOL    HW147351   3.159   4.221   6.724 -0.5028  0.3726 -0.5451
14168SOL    HW247352   3.009   4.238   6.736 -0.8938 -2.4606 -0.8449
14169SOL     OW47353   1.523   5.384   6.391 -0.1108  0.3410  0.1053
14169SOL    HW147354   1.451   5.442   6.414  0.7611  1.1157  0.9727
14169SOL    HW247355   1.481   5.301   6.367 -1.2647  0.6574  0.9646
14170SOL     OW47356   4.149   6.193   5.045  0.0416  0.0519 -0.2907
14170SOL    HW147357   4.095   6.132   5.094  0.2822  0.7538  0.8875
14170SOL    HW247358   4.088   6.258   5.010 -0.0616 -0.0960 -0.3827
14171SOL     OW47359   4.003   2.529   5.319  0.0368  0.2608 -0.2633
14171SOL    HW147360   3.925   2.535   5.375  0.5090  1.6719  0.2958
14171SOL    HW247361   4.012   2.436   5.300 -0.0451 -0.3148  2.1748
14172SOL     OW47362   1.384   5.360   1.519 -0.2974  0.9419  0.1002
14172SOL    HW147363   1.310   5.412   1.487  0.0455  1.0485 -0.5369
14172SOL    HW247364   1.352   5.322   1.601 -1.1624  0.7406 -0.3175
14173SOL     OW47365   1.129   1.429   7.155  0.4694 -0.0730  0.8568
14173SOL    HW147366   1.112   1.522   7.142 -1.4908 -0.5524 -0.3852
14173SOL    HW247367   1.065   1.401   7.220  0.1338 -0.8064  0.2330
14174SOL     OW47368   6.267   0.232   7.652  0.3917  0.0801  0.1021
14174SOL    HW147369   6.346   0.284   7.669 -0.0721  0.6246  0.6401
14174SOL    HW247370   6.215   0.241   7.731 -0.4687  0.1870 -0.4635
14175SOL     OW47371   2.761   2.448   3.974 -0.1419  0.6247 -0.4561
14175SOL    HW147372   2.850   2.414   3.984 -0.2117  0.8406  1.2168
14175SOL    HW247373   2.705   2.370   3.979 -0.2376  0.7562  2.3776
14176SOL     OW47374   8.046   7.700   7.341  0.2010 -0.2527  0.4770
14176SOL    HW147375   8.043   7.777   7.397 -0.2328  0.7457 -0.8878
14176SOL    HW247376   8.080   7.631   7.398 -1.0287  0.5088  2.2074
14177SOL     OW47377   9.076   2.646   5.449  0.4500  0.4987  0.1309
14177SOL    HW147378   9.002   2.706   5.452  0.9986  1.1640  1.1091
14177SOL    HW247379   9.142   2.687   5.505  0.6200 -1.3213  1.3549
14178SOL     OW47380   3.490   8.755   9.102  0.1610  0.3464  0.4112
14178SOL    HW147381   3.485   8.827   9.039  1.5351  1.3926  1.4263
14178SOL    HW247382   3.461   8.678   9.053 -1.5428  1.5972 -0.6633
14179SOL     OW47383   4.438   2.580   5.627  0.1329 -0.2694  0.6813
14179SOL    HW147384   4.499   2.582   5.701  1.4421  2.3078 -0.3272
14179SOL    HW247385   4.369   2.643   5.650 -1.2451 -1.8329  1.0280
14180SOL     OW47386   9.051   1.612   3.798  0.7747  0.3672  0.3757
14180SOL    HW147387   9.043   1.526   3.757  1.9751  0.2978  0.2456
14180SOL    HW247388   8.991   1.609   3.872 -0.0312 -0.1726 -0.2771
14181SOL     OW47389   7.355   3.563   2.020  0.5560  0.0763 -0.0347
14181SOL    HW147390   7.384   3.610   1.942 -1.1633 -1.5024 -1.7456
14181SOL    HW247391   7.363   3.470   1.997 -2.2269 -0.4416  0.6679
14182SOL     OW47392   6.946   6.689   0.273 -0.4265 -0.5574 -0.4569
14182SOL    HW147393   6.973   6.765   0.220  0.0680 -1.2912 -1.2772
14182SOL    HW247394   7.028   6.650   0.302 -0.6566  0.5885  2.0327
14183SOL     OW47395   1.712   2.704   6.058 -0.0683 -0.1810  0.1158
14183SOL    HW147396   1.661   2.636   6.013 -0.8492 -0.3743  1.2557
14183SOL    HW247397   1.742   2.662   6.138  0.7224  0.3698  0.1098
14184SOL     OW47398   5.824   8.068   4.468  0.5045 -0.1933  0.0089
14184SOL    HW147399   5.802   8.148   4.420 -0.5898 -1.1190 -1.0706
14184SOL    HW247400   5.920   8.070   4.474  0.4315  2.3432  2.0739
14185SOL     OW47401   8.776   4.311   5.278 -0.3056  0.3677 -0.6025
14185SOL    HW147402   8.781   4.309   5.373 -1.1476 -1.6630 -0.5481
14185SOL    HW247403   8.766   4.403   5.256  2.9789  1.2682  1.0577
14186SOL     OW47404   1.680   3.802   7.544 -0.4560 -0.7043  0.1025
14186SOL    HW147405   1.752   3.788   7.483 -1.0212 -1.2006 -0.4686
14186SOL    HW247406   1.711   3.765   7.627 -0.5743 -2.1864 -0.4920
14187SOL     OW47407   9.739   4.680   5.981  0.6393 -1.2471 -0.0454
14187SOL    HW147408   9.805   4.705   6.045  0.0266 -0.5886  0.3530
14187SOL    HW247409   9.675   4.628   6.031 -0.4520  0.2463  0.1900
14188SOL     OW47410   4.642   9.487   2.827 -0.4425  0.5415  0.2951
14188SOL    HW147411   4.645   9.446   2.914 -1.8714  1.2127  0.6950
14188SOL    HW247412   4.553   9.522   2.821 -0.2852  0.7137 -1.3548
14189SOL     OW47413   3.963   9.631   8.937 -0.0065 -0.1179 -0.1490
14189SOL    HW147414   3.924   9.552   8.975  1.5943 -0.5476  0.6720
14189SOL    HW247415   3.955   9.697   9.006  1.1295 -0.3568  0.2396
14190SOL     OW47416   9.416   5.783   2.943  0.6473 -0.4796  0.2927
14190SOL    HW147417   9.401   5.865   2.896  1.4505  0.2419  1.2544
14190SOL    HW247418   9.487   5.803   3.004 -0.1313 -1.4860  1.5716
14191SOL     OW47419   5.822   1.105   2.310 -0.1289 -0.1601  0.0133
14191SOL    HW147420   5.865   1.030   2.268 -0.8189  0.3058 -1.5912
14191SOL    HW247421   5.894   1.159   2.342  0.4119 -0.6147 -0.4104
14192SOL     OW47422   2.794   9.573   6.423 -0.9093  0.2872  0.6679
14192SOL    HW147423   2.795   9.514   6.498 -0.4268 -0.1452  0.3362
14192SOL    HW247424   2.862   9.637   6.443 -1.0613  0.4101  0.7859
14193SOL     OW47425   6.830   3.023   0.460 -0.0788 -0.3515 -0.3486
14193SOL    HW147426   6.782   3.081   0.402 -0.0447 -1.2226 -1.2711
14193SOL    HW247427   6.769   3.005   0.532  0.0543  1.1138  0.1439
14194SOL     OW47428   5.179   1.530   6.435 -0.4554  0.6596 -0.1217
14194SOL    HW147429   5.121   1.476   6.380  0.2227  1.9344 -2.2341
14194SOL    HW247430   5.124   1.560   6.506 -1.7999  0.0921 -0.8846
14195SOL     OW47431   9.227   2.809   1.168  0.1398  0.4549 -0.3488
14195SOL    HW147432   9.316   2.790   1.198 -0.6963 -2.2127  0.7557
14195SOL    HW247433   9.228   2.786   1.075  1.3856  3.7299 -1.2768
14196SOL     OW47434   0.387   3.168   8.135  0.6175 -0.4249 -1.0792
14196SOL    HW147435   0.436   3.248   8.119  0.1912  0.0211 -0.2223
14196SOL    HW247436   0.332   3.158   8.057 -1.0634  1.4390 -0.2115
14197SOL     OW47437   2.662   3.493   1.571 -0.1101  0.0332  0.5290
14197SOL    HW147438   2.585   3.540   1.541 -0.0407 -0.8835 -1.2180
14197SOL    HW247439   2.650   3.484   1.665 -1.0207  1.8618  0.6248
14198SOL     OW47440   5.539   0.048   0.264 -0.4056 -0.2180  0.2092
14198SOL    HW147441   5.629   0.060   0.293 -1.0099  1.7243  1.5400
14198SOL    HW247442   5.514  -0.038   0.297  0.8296 -0.6117  0.1563
14199SOL     OW47443   9.097   8.801   2.729 -0.2542  0.4819 -0.5424
14199SOL    HW147444   9.141   8.773   2.649  0.0534  0.8483 -0.5043
14199SOL    HW247445   9.128   8.742   2.797 -0.4601  0.2159 -0.6774
14200SOL     OW47446   2.601   0.422   4.659 -0.3990 -0.0760 -0.0535
14200SOL    HW147447   2.604   0.463   4.745 -0.1998 -1.1796  0.4905
14200SOL    HW247448   2.650   0.340   4.670 -1.1160 -0.6500 -0.9751
14201SOL     OW47449   6.965   6.417   0.822  0.4654 -0.2820 -0.3011
14201SOL    HW147450   6.881   6.463   0.816 -0.0658 -0.9089  1.5677
14201SOL    HW247451   7.023   6.465   0.763 -0.1707  2.5771  1.1894
14202SOL     OW47452   8.884   5.863   2.712  0.3303  0.4931 -0.0305
14202SOL    HW147453   8.973   5.840   2.685  0.4677  0.7265  0.2167
14202SOL    HW247454   8.855   5.789   2.766  0.1074  0.0917 -0.6976
14203SOL     OW47455   5.393   9.170   6.990 -0.3001  0.2310  0.0361
14203SOL    HW147456   5.390   9.259   6.954  0.5158 -0.1123 -0.9243
14203SOL    HW247457   5.465   9.173   7.054  0.2031  0.0800 -0.5196
14204SOL     OW47458   6.357   1.266   8.637 -0.4377 -0.2152  0.2218
14204SOL    HW147459   6.273   1.227   8.612 -0.8436  1.0780 -0.5225
14204SOL    HW247460   6.357   1.352   8.596 -0.3396  1.3625  3.2425
14205SOL     OW47461   3.134   8.909   7.187 -0.4848  0.6335  0.4205
14205SOL    HW147462   3.159   8.910   7.279  0.8533 -0.3086  0.0866
14205SOL    HW247463   3.143   9.000   7.159  1.3027  0.5666  0.6753
14206SOL     OW47464   8.627   0.312   3.134 -0.0952  0.1019  0.3647
14206SOL    HW147465   8.593   0.395   3.101  1.0301  0.7472  0.7687
14206SOL    HW247466   8.722   0.319   3.123 -0.0507 -1.7391 -0.9564
14207SOL     OW47467   6.414   9.452   9.434 -0.2376  0.4181  0.4232
14207SOL    HW147468   6.497   9.495   9.455 -0.0845  0.2750  0.1204
14207SOL    HW247469   6.438   9.362   9.414 -0.0681  0.9730 -2.3095
14208SOL     OW47470   6.275   0.367   6.825  0.1358  0.4607 -1.1891
14208SOL    HW147471   6.292   0.461   6.828  1.5272  0.2153 -0.0592
14208SOL    HW247472   6.357   0.327   6.853 -0.2883 -1.1210 -2.0625
14209SOL     OW47473   8.855   4.940   6.168  0.3843 -0.0586  0.7926
14209SOL    HW147474   8.836   4.874   6.101  0.1841  0.6008  0.1866
14209SOL    HW247475   8.817   4.905   6.248 -0.9903 -0.0259  0.1843
14210SOL     OW47476   5.219   8.982   1.661 -0.4575 -0.4975  0.5954
14210SOL    HW147477   5.139   9.031   1.678 -0.1995  0.2687 -0.3208
14210SOL    HW247478   5.271   8.990   1.741 -0.1665  1.2431  0.2578
14211SOL     OW47479   6.036   3.060   6.765 -0.2688 -0.1468 -0.0316
14211SOL    HW147480   6.070   3.003   6.697 -0.1875 -2.1806  1.5955
14211SOL    HW247481   5.992   3.131   6.718  0.2405 -1.1661 -2.1549
14212SOL     OW47482   2.434   0.965   1.790 -0.8235  0.4447 -0.5499
14212SOL    HW147483   2.418   0.977   1.696  0.2424  0.1868 -0.7826
14212SOL    HW247484   2.495   0.891   1.794 -1.6112 -0.1772  0.4107
14213SOL     OW47485   5.375   5.401   8.057 -0.2945 -0.7802  0.1855
14213SOL    HW147486   5.309   5.434   8.117 -0.1646  0.6285 -0.4165
14213SOL    HW247487   5.419   5.331   8.106 -1.0965 -0.5895  1.2100
14214SOL     OW47488   2.081   9.190   1.595  0.2472 -0.3503 -0.8597
14214SOL    HW147489   2.011   9.231   1.544  0.1836 -0.2909 -0.7261
14214SOL    HW247490   2.055   9.098   1.601  0.4557 -0.4383 -1.2690
14215SOL     OW47491   2.503   0.892   1.110  0.0199  0.4874 -0.1716
14215SOL    HW147492   2.461   0.808   1.127  0.7528  0.0809 -0.3510
14215SOL    HW247493   2.595   0.878   1.131  0.1356  1.2735 -0.1145
14216SOL     OW47494   4.864   7.369   6.834 -0.3816 -0.2755  0.6675
14216SOL    HW147495   4.787   7.365   6.777 -0.8231  1.9750  1.0069
14216SOL    HW247496   4.866   7.284   6.878 -1.1838 -1.3185 -1.2034
14217SOL     OW47497   5.354   8.669   1.298 -0.0937  0.4339  0.6134
14217SOL    HW147498   5.426   8.718   1.259 -1.4666  0.9675 -1.4298
14217SOL    HW247499   5.314   8.730   1.360  0.1299  0.7623  0.4339
14218SOL     OW47500   2.093   4.224   7.072  0.1294 -0.0231  0.6339
14218SOL    HW147501   2.066   4.171   7.146  0.7335  0.6919  1.3780
14218SOL    HW247502   2.116   4.309   7.110  2.0203 -0.1487 -0.1599
14219SOL     OW47503   0.322   1.013   1.845 -0.0708  0.3599 -0.2353
14219SOL    HW147504   0.383   1.034   1.915  1.8529 -1.6009 -1.1815
14219SOL    HW247505   0.351   1.067   1.771 -0.0871  0.1422 -0.4031
14220SOL     OW47506   0.278   6.228   0.752 -0.4758 -0.3665  0.0243
14220SOL    HW147507   0.241   6.307   0.712  0.7329  0.7774  1.0498
14220SOL    HW247508   0.369   6.251   0.770 -0.2503 -1.8111  0.8587
14221SOL     OW47509   7.047   1.581   7.581 -0.1468  0.5646 -0.5624
14221SOL    HW147510   6.999   1.662   7.568 -1.4038 -0.0619 -0.0122
14221SOL    HW247511   7.073   1.554   7.493 -2.1402  0.1624 -1.0823
14222SOL     OW47512   5.099   4.629   3.132 -0.4980 -0.0477 -0.3815
14222SOL    HW147513   5.089   4.552   3.189 -1.6452  1.9121  2.2831
14222SOL    HW247514   5.021   4.682   3.149 -0.6226  0.9641 -3.4668
14223SOL     OW47515   0.510   2.697   1.707 -0.0323 -0.0113 -0.2506
14223SOL    HW147516   0.457   2.728   1.780 -1.4016 -1.5260 -0.5327
14223SOL    HW247517   0.593   2.670   1.747 -0.1131  0.7748  0.4688
14224SOL     OW47518   8.048   5.323   1.846  0.4666  0.5571  0.0146
14224SOL    HW147519   8.083   5.373   1.919  2.4239 -1.0200  0.2218
14224SOL    HW247520   7.953   5.327   1.857  0.7113  0.4620  2.5877
14225SOL     OW47521   5.963   3.895   1.257 -0.3237 -0.1247 -0.2761
14225SOL    HW147522   5.925   3.807   1.259  1.6296 -1.0638  2.8203
14225SOL    HW247523   5.909   3.945   1.318  1.2037 -0.5255  1.4911
14226SOL     OW47524   0.707   6.851   8.878 -0.3768 -0.0596 -0.5866
14226SOL    HW147525   0.706   6.805   8.962  0.0956 -1.3153 -1.2459
14226SOL    HW247526   0.637   6.810   8.827 -0.1619  0.1795 -1.0826
14227SOL     OW47527   7.704   4.456   7.488 -0.0521  0.0004  0.3527
14227SOL    HW147528   7.707   4.403   7.408 -0.9390 -1.2737  1.1336
14227SOL    HW247529   7.724   4.544   7.458 -0.3984 -0.4373 -1.2888
14228SOL     OW47530   6.403   9.131   1.135  0.3897 -0.4275 -0.3577
14228SOL    HW147531   6.449   9.202   1.091 -2.1512  1.9940  0.5793
14228SOL    HW247532   6.314   9.135   1.099 -0.1592 -2.2883  0.6941
14229SOL     OW47533   3.862   6.284   7.599 -0.3269 -0.1356 -0.0743
14229SOL    HW147534   3.929   6.222   7.572 -1.2321 -0.7531 -0.9977
14229SOL    HW247535   3.909   6.353   7.645  0.9896 -0.3338 -1.0683
14230SOL     OW47536   1.008   3.411   5.430  0.2523 -0.0688 -0.0207
14230SOL    HW147537   1.096   3.447   5.415  1.2633 -2.8806 -1.5495
14230SOL    HW247538   1.020   3.348   5.502 -0.7751  0.2839  0.4794
14231SOL     OW47539   7.340   9.345   6.017  0.5063 -0.3927  0.9621
14231SOL    HW147540   7.313   9.256   5.997  1.9692 -0.6261 -0.1105
14231SOL    HW247541   7.428   9.336   6.056  1.5036  0.6482 -0.9098
14232SOL     OW47542   1.715   0.181   0.938  0.2127 -0.0059  0.6283
14232SOL    HW147543   1.710   0.255   0.998  1.7018 -0.7780  1.7691
14232SOL    HW247544   1.807   0.177   0.912 -0.1193 -0.5936 -0.5629
14233SOL     OW47545   4.202   4.180   1.309  0.1152 -0.0173  0.3894
14233SOL    HW147546   4.120   4.203   1.266  0.3066 -1.1879 -0.6633
14233SOL    HW247547   4.238   4.109   1.256  0.7668 -0.9859  2.0285
14234SOL     OW47548   6.545   7.603   6.359  0.1560 -0.3296  0.1902
14234SOL    HW147549   6.539   7.541   6.287  0.2117 -0.4220  0.2646
14234SOL    HW247550   6.537   7.550   6.438  2.7293 -0.6210  0.3457
14235SOL     OW47551   0.355   5.814   0.843 -0.7812  0.0123  0.2751
14235SOL    HW147552   0.274   5.851   0.809 -0.3235 -0.3297 -1.2297
14235SOL    HW247553   0.340   5.719   0.845 -0.1514 -0.1165 -0.7572
14236SOL     OW47554   0.487   5.368   4.435 -0.0047 -0.2529  0.1530
14236SOL    HW147555   0.458   5.387   4.524  0.2675  0.0132  0.1848
14236SOL    HW247556   0.579   5.395   4.433 -0.3736  1.0140 -0.5915
14237SOL     OW47557   7.372   1.520   6.971 -0.3284  0.1012 -0.0516
14237SOL    HW147558   7.445   1.581   6.972 -1.4381  1.4965 -0.9560
14237SOL    HW247559   7.303   1.564   7.020 -0.6331 -1.1405  0.6848
14238SOL     OW47560   2.922   9.288   7.072 -0.4153  0.5999  0.1558
14238SOL    HW147561   2.836   9.258   7.099 -0.8776  0.9696 -0.8725
14238SOL    HW247562   2.909   9.326   6.985  0.4165  2.3568  0.7444
14239SOL     OW47563   7.205   0.327   5.881 -0.0201 -0.2810 -0.1496
14239SOL    HW147564   7.262   0.334   5.958  0.2680  1.1692 -0.4597
14239SOL    HW247565   7.118   0.309   5.918  0.5252 -2.1261  0.3433
14240SOL     OW47566   4.374   3.639   2.850  0.0120  0.3017 -0.4642
14240SOL    HW147567   4.450   3.626   2.908  0.8306  0.4294 -1.4846
14240SOL    HW247568   4.336   3.552   2.839  0.6846  0.0514 -0.8428
14241SOL     OW47569   5.118   0.715   0.310  0.0654 -0.5220 -0.5676
14241SOL    HW147570   5.092   0.761   0.389  1.6634 -0.4228 -0.0787
14241SOL    HW247571   5.118   0.623   0.335  1.0629 -0.4546 -0.2895
14242SOL     OW47572   2.302   4.873   9.430  0.1566  0.1273  0.1721
14242SOL    HW147573   2.325   4.822   9.352  0.6650 -1.0263  1.0348
14242SOL    HW247574   2.360   4.839   9.498 -0.3013  1.0810  1.0612
14243SOL     OW47575   8.787   2.820   3.476 -0.6521 -0.0625 -0.1522
14243SOL    HW147576   8.867   2.782   3.439  0.1745  0.9643  0.5169
14243SOL    HW247577   8.738   2.851   3.400 -0.9544 -1.6657 -0.6535
14244SOL     OW47578   3.005   2.888   2.637 -0.6252  0.0731 -0.4364
14244SOL    HW147579   2.969   2.951   2.700  2.9399  0.8972  0.9799
14244SOL    HW247580   3.018   2.939   2.557 -1.6488 -0.0062 -0.6691
14245SOL     OW47581   2.182   7.018   8.671  0.1938 -0.6063 -0.4580
14245SOL    HW147582   2.120   6.945   8.661 -0.7063  0.1944 -0.9080
14245SOL    HW247583   2.252   6.983   8.727 -1.8215 -0.8560  2.1216
14246SOL     OW47584   2.316   3.019   0.770 -0.2160  0.3544  0.0446
14246SOL    HW147585   2.389   3.075   0.796 -1.2174  0.5253  2.8292
14246SOL    HW247586   2.358   2.940   0.735  1.3659  0.3251  1.8160
14247SOL     OW47587   6.079   4.620   1.721 -0.2015 -0.1193  0.0671
14247SOL    HW147588   6.023   4.590   1.793 -0.0731  0.3435  0.3591
14247SOL    HW247589   6.168   4.618   1.758  0.1636 -2.1499 -0.7965
14248SOL     OW47590   7.624   0.804   5.985  0.6765 -0.5155  0.4234
14248SOL    HW147591   7.621   0.890   6.026 -0.4601  0.2549 -1.1975
14248SOL    HW247592   7.551   0.756   6.023 -0.5269  0.2819 -0.7974
14249SOL     OW47593   9.060   6.797   8.541  0.4307 -0.0775  0.2256
14249SOL    HW147594   9.144   6.807   8.496  0.8104  1.0737  1.1367
14249SOL    HW247595   9.004   6.866   8.505  0.3047 -0.0073  0.5522
14250SOL     OW47596   5.000   3.433   6.723  0.1340 -0.1256  0.4644
14250SOL    HW147597   4.983   3.390   6.639  0.6877  2.0114 -0.8143
14250SOL    HW247598   4.937   3.504   6.727 -0.5423 -0.7826  2.3747
14251SOL     OW47599   4.435   4.590   6.084  0.0250 -0.0280 -0.0633
14251SOL    HW147600   4.453   4.515   6.141 -1.7198  1.6563  2.9154
14251SOL    HW247601   4.340   4.590   6.073 -0.0056  1.7312 -0.0281
14252SOL     OW47602   6.842   3.344   6.459 -0.5638  0.5502 -0.2713
14252SOL    HW147603   6.863   3.293   6.381  0.2519 -0.3675  0.5252
14252SOL    HW247604   6.921   3.340   6.513 -0.7908  1.9298  0.2088
14253SOL     OW47605   2.600   1.926   7.255  0.3795 -0.7169  0.8990
14253SOL    HW147606   2.649   1.852   7.219  0.7288  0.3423 -0.9122
14253SOL    HW247607   2.571   1.895   7.342  3.1342 -1.8251  1.5290
14254SOL     OW47608   8.412   0.912   6.518 -0.3856  0.0037  0.0124
14254SOL    HW147609   8.499   0.907   6.478 -0.3785  1.3379 -0.1973
14254SOL    HW247610   8.351   0.915   6.443 -0.5933 -0.6621  0.1540
14255SOL     OW47611   4.606   4.612   6.862  0.6924 -0.1041  0.1501
14255SOL    HW147612   4.591   4.623   6.956 -1.0624 -1.3539  0.0739
14255SOL    HW247613   4.522   4.580   6.828  1.2959  0.2909 -1.8468
14256SOL     OW47614   6.633   9.356   9.547 -0.2268 -0.2583 -0.7799
14256SOL    HW147615   6.622   9.279   9.602 -1.0209 -0.2170 -0.8594
14256SOL    HW247616   6.723   9.351   9.515  1.6781  1.6785  3.4989
14257SOL     OW47617   2.120   0.184   0.639  0.5734  0.2219  0.0537
14257SOL    HW147618   2.160   0.097   0.634  1.4672  0.6409 -0.3466
14257SOL    HW247619   2.061   0.179   0.714 -0.4597 -1.1481 -0.7983
14258SOL     OW47620   4.115   6.184   3.317  0.4910 -0.1503 -0.5746
14258SOL    HW147621   4.162   6.131   3.381 -0.6153  2.1908  2.4427
14258SOL    HW247622   4.121   6.273   3.351 -0.9117  1.1306 -3.3479
14259SOL     OW47623   6.949   7.524   9.339 -0.8326 -0.0621  0.4087
14259SOL    HW147624   6.990   7.603   9.302  0.4956  0.2110  2.3358
14259SOL    HW247625   7.023   7.468   9.363 -1.7437 -1.6573 -0.3103
14260SOL     OW47626   8.979   7.931   8.549  0.3069 -0.5328 -0.3106
14260SOL    HW147627   8.972   7.870   8.475 -0.2877  0.9588 -1.5424
14260SOL    HW247628   8.892   7.968   8.558  0.0694 -1.5333  1.9447
14261SOL     OW47629   4.755   2.313   3.174 -0.0803  0.2720  0.0923
14261SOL    HW147630   4.685   2.355   3.223 -0.9539 -0.5205 -0.4520
14261SOL    HW247631   4.741   2.339   3.083  0.7509  0.6678  0.0679
14262SOL     OW47632   3.518   6.252   7.802  0.0144  0.0643 -0.1331
14262SOL    HW147633   3.581   6.180   7.800 -1.1605 -0.9810 -0.2927
14262SOL    HW247634   3.559   6.320   7.748  0.3559 -1.1596 -1.5074
14263SOL     OW47635   3.717   6.280   6.708  0.3513 -0.6117 -0.1474
14263SOL    HW147636   3.652   6.314   6.770 -0.6858  0.7764 -1.8665
14263SOL    HW247637   3.726   6.188   6.730 -2.7556 -1.0559 -0.2076
14264SOL     OW47638   4.390   6.491   4.950 -0.4573 -0.0894  0.6301
14264SOL    HW147639   4.466   6.539   4.916 -0.2336  0.3565  1.7377
14264SOL    HW247640   4.347   6.456   4.871 -0.0744  1.0908 -0.1284
14265SOL     OW47641   3.903   3.692   6.533 -0.7165 -0.2079  0.2846
14265SOL    HW147642   3.976   3.747   6.505 -0.7858 -0.3360 -0.1614
14265SOL    HW247643   3.825   3.734   6.497 -1.1995  1.4592  3.0287
14266SOL     OW47644   0.493   1.350   7.612  0.0371  0.1413  0.0997
14266SOL    HW147645   0.430   1.379   7.546  1.7101 -0.8317 -2.0712
14266SOL    HW247646   0.566   1.313   7.561  1.0900 -1.4086  2.5297
14267SOL     OW47647   9.439   4.872   9.505  0.4569 -0.3747 -0.1783
14267SOL    HW147648   9.514   4.855   9.563  0.3589 -0.8110 -0.1762
14267SOL    HW247649   9.465   4.949   9.454  0.4519  0.1507  0.5967
14268SOL     OW47650   8.055   5.534   3.179 -0.2081  0.2183 -0.1921
14268SOL    HW147651   7.986   5.468   3.183 -0.2286  0.0479 -2.3082
14268SOL    HW247652   8.133   5.485   3.154  0.6267  0.4791  1.7338
14269SOL     OW47653   1.556   3.174   2.433  0.0447  0.1183  0.0012
14269SOL    HW147654   1.610   3.136   2.503 -0.3408  0.9401  0.7615
14269SOL    HW247655   1.592   3.137   2.353  3.2712  2.3446  0.2507
14270SOL     OW47656   7.395   7.996   1.539  0.1123 -0.0218 -0.2373
14270SOL    HW147657   7.352   7.987   1.453  0.5803 -1.4201 -0.3525
14270SOL    HW247658   7.329   7.967   1.602 -0.1025  0.6509 -0.1409
14271SOL     OW47659   6.298   3.978   8.959  0.4243  0.3464  0.0150
14271SOL    HW147660   6.221   4.021   8.996  0.9327  0.3989  1.0522
14271SOL    HW247661   6.264   3.897   8.920 -0.2030  0.5545  0.1189
14272SOL     OW47662   9.514   2.716   5.519 -0.1581  0.5724 -0.2715
14272SOL    HW147663   9.576   2.696   5.589 -1.0810  2.3978  1.1173
14272SOL    HW247664   9.435   2.745   5.563 -1.5523 -0.3215 -2.0495
14273SOL     OW47665   2.709   0.673   5.132  0.1042  0.2627  0.4978
14273SOL    HW147666   2.711   0.740   5.201  1.9823  0.5621  0.2153
14273SOL    HW247667   2.763   0.709   5.062 -0.4469 -0.7398 -0.4757
14274SOL     OW47668   4.061   7.650   4.665  0.2832  0.7834 -0.4275
14274SOL    HW147669   4.107   7.720   4.710  1.2307  0.0490 -0.2303
14274SOL    HW247670   3.971   7.683   4.656  0.0212  0.9340  2.0355
14275SOL     OW47671   6.094   8.794   3.976  0.1877  0.3617  0.1536
14275SOL    HW147672   6.117   8.746   4.055 -1.0699 -2.0711 -0.8273
14275SOL    HW247673   6.158   8.764   3.911 -0.3523  0.3324 -0.3712
14276SOL     OW47674   0.684   6.797   4.327  0.2099 -0.3194  0.4197
14276SOL    HW147675   0.624   6.741   4.277 -0.7904  0.8786  0.2430
14276SOL    HW247676   0.741   6.836   4.261  0.4837 -0.6090  0.4795
14277SOL     OW47677   1.385   2.726   9.385  0.3633  0.1733 -0.4628
14277SOL    HW147678   1.475   2.757   9.388 -0.1899  2.1087 -1.8714
14277SOL    HW247679   1.332   2.806   9.390 -1.3920 -1.0005  2.1791
14278SOL     OW47680   3.088   5.977   6.270 -0.3012  0.2778  0.3660
14278SOL    HW147681   3.053   5.935   6.192  0.6068 -0.0292  0.1033
14278SOL    HW247682   3.162   6.030   6.238  0.2994 -0.1240  1.0495
14279SOL     OW47683   2.486   7.298   3.403  0.2280  0.3329  0.1686
14279SOL    HW147684   2.504   7.392   3.412 -0.2033  0.6065 -1.4842
14279SOL    HW247685   2.572   7.258   3.397  0.4202  0.9277 -1.5197
14280SOL     OW47686   3.549   3.124   6.564 -0.3848 -0.2259 -0.2420
14280SOL    HW147687   3.587   3.037   6.560  0.5436  0.2053 -2.8702
14280SOL    HW247688   3.457   3.112   6.542 -0.7620 -0.7303  1.4776
14281SOL     OW47689   0.366   5.022   7.653  0.2158 -0.4820 -0.8722
14281SOL    HW147690   0.459   5.020   7.677  0.3837  0.2947 -1.4183
14281SOL    HW247691   0.320   5.003   7.734  0.7530  2.5223  0.2873
14282SOL     OW47692   0.539   1.395   3.540 -0.0478  0.1732  0.1375
14282SOL    HW147693   0.511   1.311   3.577  1.0249  0.3447  1.4035
14282SOL    HW247694   0.470   1.418   3.478 -0.2548 -1.7422 -0.3921
14283SOL     OW47695   8.841   1.770   2.332 -0.0230  0.6115  0.2234
14283SOL    HW147696   8.765   1.821   2.303 -1.4256  0.1675  2.8000
14283SOL    HW247697   8.871   1.815   2.412  2.1510  0.4730 -0.4395
14284SOL     OW47698   4.516   1.782   7.846  0.4521 -0.0241  0.2009
14284SOL    HW147699   4.588   1.728   7.879  0.3093  0.2354  0.9557
14284SOL    HW247700   4.513   1.857   7.905 -1.3356 -0.7219  1.1012
14285SOL     OW47701   3.020   7.395   7.782  0.8187  0.1742  0.2146
14285SOL    HW147702   3.047   7.308   7.753  1.9250  0.0804  1.4502
14285SOL    HW247703   2.984   7.436   7.703 -0.8147 -1.7955 -0.1559
14286SOL     OW47704   7.419   8.205   7.194  0.7496 -0.0042  0.0950
14286SOL    HW147705   7.471   8.190   7.115  0.0516 -1.6004 -0.0905
14286SOL    HW247706   7.483   8.201   7.266  1.3222  1.0623 -0.3274
14287SOL     OW47707   4.197   5.457   1.181  0.3499 -0.2409 -0.5725
14287SOL    HW147708   4.284   5.495   1.181  1.2829 -2.2350 -0.0253
14287SOL    HW247709   4.171   5.453   1.089  0.6731  0.6727 -0.7080
14288SOL     OW47710   2.873   6.287   6.687 -0.2497  0.6150 -0.0413
14288SOL    HW147711   2.806   6.318   6.627  0.1056 -0.0679 -0.8086
14288SOL    HW247712   2.952   6.335   6.662 -0.0855  0.2807 -0.1736
14289SOL     OW47713   3.171   2.345   7.405 -0.3468  0.5522  0.5220
14289SOL    HW147714   3.188   2.283   7.334  0.5082  1.2113  0.1420
14289SOL    HW247715   3.256   2.380   7.429 -0.7142  0.9123  1.3575
14290SOL     OW47716   5.679   3.212   9.067  0.4002 -0.2711 -0.3825
14290SOL    HW147717   5.636   3.135   9.032 -1.8508  0.1787  1.1729
14290SOL    HW247718   5.646   3.285   9.014 -0.1856 -0.0093  0.3255
14291SOL     OW47719   1.208   3.770   7.820  0.2577  0.0845  0.3201
14291SOL    HW147720   1.160   3.837   7.772  1.4440  1.0162  0.3670
14291SOL    HW247721   1.300   3.784   7.795  0.7286 -0.3856  1.6798
14292SOL     OW47722   2.009   4.523   2.477  0.2499 -0.2724  0.4819
14292SOL    HW147723   1.960   4.602   2.455  0.1253 -0.8811 -1.7333
14292SOL    HW247724   2.083   4.523   2.415  0.2125 -1.9048  0.3979
14293SOL     OW47725   0.986   1.420   9.376 -0.0379  0.0675 -0.0149
14293SOL    HW147726   0.997   1.354   9.445  0.1567 -0.7319 -0.7869
14293SOL    HW247727   0.933   1.488   9.417  1.4551  0.4111  1.4367
14294SOL     OW47728   9.650   7.942   4.116 -0.2691 -0.0280  0.1278
14294SOL    HW147729   9.688   7.897   4.192 -2.5889 -0.1330  1.3282
14294SOL    HW247730   9.557   7.918   4.118 -0.7350  1.3720 -1.7422
14295SOL     OW47731   1.466   5.079   6.323 -0.1820 -0.1263 -0.8900
14295SOL    HW147732   1.553   5.040   6.311  0.7603  1.5523 -0.0114
14295SOL    HW247733   1.417   5.013   6.371  1.1680 -0.4737  0.0907
14296SOL     OW47734   9.469   3.606   0.531  0.4288  0.7910  0.2516
14296SOL    HW147735   9.513   3.523   0.517 -0.2855  0.2398  1.1531
14296SOL    HW247736   9.510   3.666   0.469  1.3241 -0.0933 -0.0340
14297SOL     OW47737   2.868   6.753   5.917  0.4101 -0.3186  0.0096
14297SOL    HW147738   2.827   6.775   5.834  0.2304 -0.4206  0.0714
14297SOL    HW247739   2.946   6.808   5.921  0.0138  0.2326  0.1266
14298SOL     OW47740   9.447   8.619   5.916 -0.1073  0.1243  0.2453
14298SOL    HW147741   9.388   8.675   5.966 -0.8707 -0.9427  0.5819
14298SOL    HW247742   9.450   8.659   5.829  0.7118  1.6227  0.9349
14299SOL     OW47743   5.214   7.354   3.048 -0.2655 -0.6146  0.2397
14299SOL    HW147744   5.151   7.417   3.082 -0.7592 -1.4458  0.8943
14299SOL    HW247745   5.279   7.408   3.002 -1.1850  0.2931 -0.0458
14300SOL     OW47746   7.536   7.404   7.331 -0.2039  0.2926  0.2182
14300SOL    HW147747   7.449   7.423   7.365 -0.5351  1.2043 -1.0781
14300SOL    HW247748   7.596   7.436   7.398 -0.8502  0.1389  0.8785
14301SOL     OW47749   7.736   0.508   1.409 -0.0016 -0.8334 -0.1300
14301SOL    HW147750   7.820   0.540   1.378 -0.0335 -0.0572  0.5662
14301SOL    HW247751   7.716   0.562   1.485 -0.9875 -1.2121 -0.1057
14302SOL     OW47752   7.856   2.958   5.603 -0.0041 -0.0024  0.0025
14302SOL    HW147753   7.789   2.919   5.546 -2.1105 -0.1067  2.4121
14302SOL    HW247754   7.858   3.051   5.578 -0.8015 -0.0636 -0.3089
14303SOL     OW47755   5.881   4.912   3.195  0.1762 -0.2164 -0.0897
14303SOL    HW147756   5.839   4.864   3.266 -0.3231 -1.4240 -1.1572
14303SOL    HW247757   5.974   4.892   3.205  0.0334 -0.9506 -0.1759
14304SOL     OW47758   8.333   0.905   5.419  0.2351 -0.5276 -0.3456
14304SOL    HW147759   8.375   0.990   5.409  0.5625 -0.7103 -0.5678
14304SOL    HW247760   8.324   0.893   5.514 -0.6372  0.1449 -0.3330
14305SOL     OW47761   7.425   9.458   5.541  0.4765  0.2639  0.0790
14305SOL    HW147762   7.487   9.400   5.585  0.8695  0.7346  0.1545
14305SOL    HW247763   7.470   9.543   5.538  0.4614  0.2449 -1.2161
14306SOL     OW47764   2.536   8.133   3.330  0.6009  0.1762  0.2722
14306SOL    HW147765   2.540   8.182   3.248  1.7131 -0.4609 -0.0702
14306SOL    HW247766   2.608   8.071   3.325  1.1530  0.6136  2.0541
14307SOL     OW47767   0.871   3.407   2.386 -0.0234 -0.3901 -0.2913
14307SOL    HW147768   0.793   3.369   2.428  0.7503 -1.5653  0.1348
14307SOL    HW247769   0.877   3.362   2.302  1.4095 -1.9541  0.5905
14308SOL     OW47770   8.934   1.826   9.653 -0.5120  0.0091 -0.2054
14308SOL    HW147771   8.963   1.735   9.654 -1.7104 -0.3883  0.6833
14308SOL    HW247772   8.848   1.824   9.695 -0.2289  1.6686  0.5330
14309SOL     OW47773   9.617   7.120   4.009  0.0051 -0.5742 -0.2633
14309SOL    HW147774   9.580   7.113   3.921 -1.1210 -0.7071  0.2092
14309SOL    HW247775   9.660   7.035   4.023  1.9695  0.1735 -1.4430
14310SOL     OW47776   1.202   6.826   2.067  0.7325 -0.0874 -0.0550
14310SOL    HW147777   1.135   6.804   2.132 -0.7070 -0.1684 -1.4951
14310SOL    HW247778   1.231   6.741   2.034  0.8634 -0.0275 -0.0936
14311SOL     OW47779   0.945   8.224   8.243 -0.2889 -0.1142 -0.0598
14311SOL    HW147780   0.870   8.168   8.264 -1.7383  1.8656  0.2752
14311SOL    HW247781   0.920   8.268   8.162  1.8094 -1.5711 -1.6149
14312SOL     OW47782   8.285   6.749   5.811  0.2236 -0.2929 -0.4159
14312SOL    HW147783   8.270   6.743   5.906 -0.2509 -1.5702 -0.5643
14312SOL    HW247784   8.216   6.697   5.772  0.1211  0.6304 -1.5109
14313SOL     OW47785   1.965   3.895   1.011 -0.0976 -0.4126 -0.0674
14313SOL    HW147786   1.950   3.978   1.057 -0.1483 -0.3660 -0.1694
14313SOL    HW247787   1.893   3.888   0.948  1.1939  0.6318 -1.7462
14314SOL     OW47788   1.935   6.667   5.412  0.1552 -0.0129 -0.1334
14314SOL    HW147789   1.983   6.717   5.478 -1.6297 -0.9217  2.0392
14314SOL    HW247790   1.962   6.576   5.427 -0.5399 -0.2730 -0.3903
14315SOL     OW47791   2.352   0.537   2.445  0.1841  0.2285  0.6253
14315SOL    HW147792   2.401   0.487   2.510 -0.1627 -0.0841  0.6465
14315SOL    HW247793   2.339   0.623   2.485 -0.3399 -0.0771  1.1198
14316SOL     OW47794   0.910   2.919   7.173 -0.0334 -0.1665 -0.4207
14316SOL    HW147795   0.994   2.919   7.126  1.3865  0.6140  1.9396
14316SOL    HW247796   0.853   2.974   7.120  1.3715  0.3985 -1.4151
14317SOL     OW47797   8.191   0.080   6.305  0.6174  0.3302  0.2753
14317SOL    HW147798   8.176  -0.008   6.339 -0.4627  0.8135  1.1003
14317SOL    HW247799   8.104   0.120   6.302  1.0445  1.2589 -0.4262
14318SOL     OW47800   8.609   6.646   2.399 -0.2503  0.3867  0.3054
14318SOL    HW147801   8.557   6.676   2.474  0.3861  0.6872  0.6327
14318SOL    HW247802   8.699   6.639   2.433  0.0044  0.2963 -0.3691
14319SOL     OW47803   2.266   7.715   9.277  0.0917 -0.5411  0.8862
14319SOL    HW147804   2.245   7.754   9.192  2.0916  2.2310  1.4988
14319SOL    HW247805   2.185   7.675   9.307 -1.2106  0.2242 -1.4058
14320SOL     OW47806   6.721   0.299   9.510  0.1224  0.2303  0.0132
14320SOL    HW147807   6.686   0.218   9.545 -0.4995  1.7415  3.2806
14320SOL    HW247808   6.815   0.296   9.529 -0.2324  1.0952  2.0978
14321SOL     OW47809   8.436   2.821   6.259 -0.8645 -0.6160  0.1147
14321SOL    HW147810   8.351   2.810   6.300 -0.8957  1.7466  0.7954
14321SOL    HW247811   8.435   2.760   6.185 -1.3027 -4.0772  2.7352
14322SOL     OW47812   1.194   6.295   5.411  0.1017 -0.1726  0.0806
14322SOL    HW147813   1.159   6.210   5.438  1.1405 -0.9380 -0.9006
14322SOL    HW247814   1.208   6.343   5.493 -1.1866 -0.6455  0.6037
14323SOL     OW47815   8.503   7.720   9.294  0.0402 -0.2725 -0.1157
14323SOL    HW147816   8.480   7.762   9.376  0.3670  0.1618 -0.2422
14323SOL    HW247817   8.565   7.652   9.318 -1.9902 -2.0887  0.3554
14324SOL     OW47818   6.509   1.611   4.930  0.6041  0.0807 -0.3105
14324SOL    HW147819   6.517   1.685   4.869  0.6407  0.6675  0.3883
14324SOL    HW247820   6.594   1.607   4.973  0.0262  0.7712  0.9225
14325SOL     OW47821   6.731   5.535   6.642 -0.0121  1.0222 -0.6543
14325SOL    HW147822   6.683   5.466   6.689  2.8872 -1.1514 -0.5188
14325SOL    HW247823   6.735   5.608   6.704 -0.2253 -0.0454  0.6707
14326SOL     OW47824   0.223   2.549   0.722 -0.0674  0.0888 -0.1051
14326SOL    HW147825   0.316   2.558   0.700  0.1339 -2.2121 -0.3948
14326SOL    HW247826   0.177   2.572   0.640  0.1880  1.6308  0.1564
14327SOL     OW47827   8.309   2.080   2.603 -0.5690 -0.0139 -0.0949
14327SOL    HW147828   8.404   2.076   2.612 -0.5854 -1.7110 -0.3532
14327SOL    HW247829   8.294   2.120   2.517 -0.0793  0.2775 -0.0400
14328SOL     OW47830   9.265   6.726   0.791  0.4051  0.4363  0.0592
14328SOL    HW147831   9.261   6.810   0.745  2.6498 -0.6748 -2.4467
14328SOL    HW247832   9.328   6.742   0.862  1.7440  0.6464 -1.1188
14329SOL     OW47833   2.188   6.921   3.505  0.0409  0.8831  0.6699
14329SOL    HW147834   2.200   6.996   3.564  1.3711  0.1581  1.3569
14329SOL    HW247835   2.093   6.918   3.490  0.0023  3.0353  0.1581
14330SOL     OW47836   4.532   5.302   5.116  0.1545 -0.1114  0.1192
14330SOL    HW147837   4.499   5.391   5.127 -0.1029 -0.1998  0.0539
14330SOL    HW247838   4.478   5.265   5.046  1.0314  0.0697 -0.6798
14331SOL     OW47839   4.037   9.197   4.962 -0.0982  0.1937  0.1973
14331SOL    HW147840   4.092   9.274   4.952  1.3812 -0.5334  2.2743
14331SOL    HW247841   4.097   9.123   4.961 -0.8505 -0.5926  3.2060
14332SOL     OW47842   8.090   2.822   5.602  0.2300 -0.3314  0.4041
14332SOL    HW147843   8.015   2.877   5.626  1.3121  1.8267 -0.8813
14332SOL    HW247844   8.120   2.857   5.518  1.4019 -2.5226 -0.1675
14333SOL     OW47845   4.846   8.233   6.272  0.4607 -0.2741  0.0074
14333SOL    HW147846   4.795   8.266   6.198  0.3677  1.2913  0.7465
14333SOL    HW247847   4.893   8.309   6.304  2.2810 -1.4212  0.1597
14334SOL     OW47848   4.505   0.418   4.589 -0.0562 -0.0577 -0.4424
14334SOL    HW147849   4.528   0.391   4.500 -0.1433 -1.0566 -0.1718
14334SOL    HW247850   4.571   0.482   4.613 -0.1922  0.4304 -1.3257
14335SOL     OW47851   3.028   9.680   0.356  0.6051  0.3236 -0.0451
14335SOL    HW147852   2.981   9.710   0.434  1.9987  0.3277  0.8189
14335SOL    HW247853   3.008   9.587   0.350  1.9518 -0.1062  1.4364
14336SOL     OW47854   4.296   2.229   1.319  0.4671 -0.4496  0.6850
14336SOL    HW147855   4.327   2.143   1.289  0.8490  0.1234 -0.6380
14336SOL    HW247856   4.233   2.209   1.388 -0.3695 -1.8577 -0.4271
14337SOL     OW47857   0.680   1.729   6.123  0.0147  0.0974  0.3311
14337SOL    HW147858   0.758   1.747   6.071 -1.0052  0.9479 -0.9498
14337SOL    HW247859   0.667   1.634   6.116  0.6657  0.0167  0.1897
14338SOL     OW47860   9.709   7.064   5.433  0.2670 -0.0088 -0.1232
14338SOL    HW147861   9.741   6.981   5.467  0.0425  0.2467  0.7373
14338SOL    HW247862   9.651   7.098   5.502  2.0486  1.8943  0.5431
14339SOL     OW47863   9.431   2.088   2.295  0.2608  0.3254  0.9417
14339SOL    HW147864   9.402   2.171   2.333  2.1815  0.5679  1.9939
14339SOL    HW247865   9.482   2.046   2.364  3.4862  0.5603 -1.0706
14340SOL     OW47866   0.580   2.369   8.343  0.1572  0.3073  0.0978
14340SOL    HW147867   0.584   2.274   8.349 -0.7956  0.3209  1.2414
14340SOL    HW247868   0.672   2.396   8.337  0.4860 -0.6249  0.7480
14341SOL     OW47869   5.741   8.518   8.143 -0.6742 -0.3826 -0.7155
14341SOL    HW147870   5.685   8.540   8.069 -0.7725 -0.9822 -0.8269
14341SOL    HW247871   5.680   8.504   8.215 -0.6056 -0.1837 -0.6187
14342SOL     OW47872   5.520   4.379   1.906  0.1526 -0.0991 -0.3476
14342SOL    HW147873   5.615   4.370   1.900  0.2479  0.6209 -0.0388
14342SOL    HW247874   5.500   4.361   1.997 -0.2229 -1.9463 -0.7554
14343SOL     OW47875   2.057   4.522   6.969  0.1437  0.4252 -0.6345
14343SOL    HW147876   2.134   4.574   6.949 -1.0247  2.0178 -1.1512
14343SOL    HW247877   2.063   4.446   6.911  0.5969  1.2495 -1.6813
14344SOL     OW47878   3.740   7.395   6.637  0.0386  0.4616  0.5700
14344SOL    HW147879   3.676   7.464   6.621 -1.2034 -0.5080  1.1825
14344SOL    HW247880   3.692   7.327   6.684  1.1638 -0.8932 -0.1226
14345SOL     OW47881   1.848   4.229   6.885 -0.5428  0.3384  0.2131
14345SOL    HW147882   1.880   4.146   6.849 -0.4782  0.1758  0.6464
14345SOL    HW247883   1.858   4.292   6.813  3.1479  0.9082  1.0063
14346SOL     OW47884   1.620   1.354   1.515 -0.5273 -0.8551 -0.6265
14346SOL    HW147885   1.674   1.417   1.564 -1.4212 -1.2927  0.9733
14346SOL    HW247886   1.605   1.397   1.430 -0.2453  0.6340  0.0366
14347SOL     OW47887   7.205   4.010   0.819  0.5482  0.3107 -0.0325
14347SOL    HW147888   7.290   4.030   0.778 -0.3850  1.6789 -1.4083
14347SOL    HW247889   7.141   4.058   0.766 -0.9118  0.8659  2.1181
14348SOL     OW47890   0.124   9.236   0.952  0.2469 -0.6371  0.0209
14348SOL    HW147891   0.180   9.182   0.896  0.4519 -1.6768  1.1841
14348SOL    HW247892   0.185   9.286   1.006  0.0543 -0.3070 -0.0666
14349SOL     OW47893   9.693   4.682   6.904  0.1467 -0.3296 -0.4265
14349SOL    HW147894   9.628   4.620   6.936  0.3560 -0.0478  0.5991
14349SOL    HW247895   9.664   4.767   6.939  1.3415 -0.2778  0.5173
14350SOL     OW47896   3.745   5.300   9.244 -0.3311 -0.4080 -0.3527
14350SOL    HW147897   3.787   5.316   9.328  1.5322  0.3650 -1.3819
14350SOL    HW247898   3.714   5.209   9.250 -0.6442 -0.2209  1.3112
14351SOL     OW47899   1.557   4.389   1.401 -0.6132  1.0540  0.2614
14351SOL    HW147900   1.567   4.341   1.483 -1.9533  0.1790 -0.0593
14351SOL    HW247901   1.619   4.462   1.408 -1.9038  2.0002  2.7933
14352SOL     OW47902   6.803   3.847   0.518  0.4200 -0.4927  0.0897
14352SOL    HW147903   6.893   3.876   0.535 -0.0501  0.4804  1.0229
14352SOL    HW247904   6.810   3.751   0.516  1.3439 -0.4766  1.0960
14353SOL     OW47905   5.512   5.912   2.005  0.3724 -0.0045 -0.4565
14353SOL    HW147906   5.545   5.823   2.008  0.4186  0.0281  0.1283
14353SOL    HW247907   5.552   5.950   1.927 -0.2990 -0.7448 -1.1855
14354SOL     OW47908   1.299   2.756   3.809  0.2997 -0.4697  0.3188
14354SOL    HW147909   1.328   2.670   3.778  1.4259 -0.4478  1.2691
14354SOL    HW247910   1.350   2.818   3.758 -0.7364 -0.3324 -0.5879
14355SOL     OW47911   6.942   1.228   5.714  0.0746 -0.2103 -0.2212
14355SOL    HW147912   6.964   1.294   5.649  0.0886 -0.5919 -0.6090
14355SOL    HW247913   6.893   1.161   5.665 -1.5214  0.3712  0.5132
14356SOL     OW47914   1.697   5.866   6.341  0.3961 -0.5390  0.4644
14356SOL    HW147915   1.735   5.792   6.388 -0.0304 -0.0211  1.6638
14356SOL    HW247916   1.604   5.843   6.330 -0.0125  0.3102  1.9128
14357SOL     OW47917   8.723   8.450   1.221 -0.5358  0.6783 -0.5718
14357SOL    HW147918   8.688   8.374   1.267 -1.1206  0.6580 -1.0343
14357SOL    HW247919   8.674   8.524   1.257 -0.2296  0.7970 -0.3908
14358SOL     OW47920   1.897   3.125   0.502 -0.0845 -0.2394 -0.1234
14358SOL    HW147921   1.930   3.172   0.578 -0.1520 -0.4653  0.0475
14358SOL    HW247922   1.870   3.040   0.536  2.1439 -1.2927 -0.8019
14359SOL     OW47923   4.284   7.147   1.218  0.5936 -0.3428  0.5613
14359SOL    HW147924   4.222   7.217   1.237  0.7331 -0.8148  3.0712
14359SOL    HW247925   4.240   7.094   1.151 -0.7407  0.5678  0.6795
14360SOL     OW47926   5.643   2.989   3.574  0.0253 -0.0099  0.0152
14360SOL    HW147927   5.672   2.949   3.656  2.3305 -0.2998 -0.8588
14360SOL    HW247928   5.558   3.027   3.595  0.1106 -0.8852  2.2776
14361SOL     OW47929   1.481   1.510   3.328 -0.2664 -0.3041 -0.3193
14361SOL    HW147930   1.532   1.479   3.253 -1.5306 -0.3932 -1.1660
14361SOL    HW247931   1.488   1.606   3.324  0.2210 -0.3330 -0.1540
14362SOL     OW47932   4.165   4.215   2.304 -0.3850 -0.2257  0.6414
14362SOL    HW147933   4.147   4.309   2.305 -0.4477 -0.2352  0.4563
14362SOL    HW247934   4.194   4.197   2.214  2.7871  0.2126  1.4595
14363SOL     OW47935   4.183   1.284   1.066  0.4533  0.1864  0.0809
14363SOL    HW147936   4.216   1.197   1.090  2.2878  1.1727  1.4375
14363SOL    HW247937   4.238   1.310   0.992  0.9984  0.8059  0.6923
14364SOL     OW47938   0.248   6.124   7.699 -0.1151  0.0521 -0.1923
14364SOL    HW147939   0.218   6.151   7.786  0.1870  2.4429 -0.7674
14364SOL    HW247940   0.276   6.033   7.711  0.0784  0.3631  2.2525
14365SOL     OW47941   7.413   7.673   7.908  0.4247 -0.2216 -0.0759
14365SOL    HW147942   7.421   7.730   7.984  1.7697 -2.0097  1.2067
14365SOL    HW247943   7.488   7.694   7.853 -1.7409  2.7108 -2.2298
14366SOL     OW47944   0.556   0.098   7.683  0.1028 -0.3614  0.6753
14366SOL    HW147945   0.567   0.127   7.773  0.3424 -0.6153  0.7280
14366SOL    HW247946   0.588   0.007   7.682  0.6429 -0.1771  0.2134
14367SOL     OW47947   6.844   5.883   9.462  0.3452 -0.2237 -0.3749
14367SOL    HW147948   6.833   5.816   9.394 -0.1639 -2.4356  1.7684
14367SOL    HW247949   6.758   5.925   9.467  0.3447 -0.1422 -0.9865
14368SOL     OW47950   3.027   7.673   7.634 -0.0971 -0.4653 -0.2476
14368SOL    HW147951   2.950   7.698   7.685 -0.4236 -0.4261 -0.7524
14368SOL    HW247952   3.094   7.736   7.660  0.0788 -1.0857  0.9225
14369SOL     OW47953   3.332   0.303   6.410 -0.0003  0.0052  0.0222
14369SOL    HW147954   3.375   0.222   6.382 -0.2241 -0.8702  2.0082
14369SOL    HW247955   3.395   0.372   6.388  1.8777 -1.0926  1.5408
14370SOL     OW47956   5.722   4.221   0.725  0.4426  0.3975 -0.6961
14370SOL    HW147957   5.699   4.313   0.710  2.2196  0.8630 -0.8079
14370SOL    HW247958   5.655   4.172   0.679 -0.7068  1.6268 -0.3998
14371SOL     OW47959   6.398   0.736   4.387 -0.2568  0.3054  0.3356
14371SOL    HW147960   6.394   0.831   4.387 -0.9894  0.2981 -0.8366
14371SOL    HW247961   6.491   0.716   4.384 -0.1212  1.0142 -0.7507
14372SOL     OW47962   6.964   3.995   7.303 -0.0186 -0.0612  0.2882
14372SOL    HW147963   6.953   4.079   7.258  1.8777  1.4062  2.3186
14372SOL    HW247964   6.956   3.929   7.234  1.2942  1.9363 -1.9289
14373SOL     OW47965   6.152   5.614   4.936 -0.1926 -0.6619 -0.8308
14373SOL    HW147966   6.148   5.692   4.880  0.6750  0.0616  0.0611
14373SOL    HW247967   6.104   5.640   5.015  0.1044 -1.0257 -0.5294
14374SOL     OW47968   3.478   0.082   6.348 -0.3143  0.5796 -0.0428
14374SOL    HW147969   3.539   0.064   6.276 -0.0276  0.2031  0.2943
14374SOL    HW247970   3.469  -0.001   6.394 -0.1675  0.9157  0.6104
14375SOL     OW47971   4.001   1.549   2.153 -0.3166  0.0347  0.2735
14375SOL    HW147972   3.980   1.584   2.066  0.2999  0.0930  0.1444
14375SOL    HW247973   4.065   1.611   2.188  0.0338 -0.4260  0.4471
14376SOL     OW47974   8.765   8.127   5.431 -0.4249 -0.1523 -0.0947
14376SOL    HW147975   8.698   8.060   5.417  0.8641 -1.6149  0.5164
14376SOL    HW247976   8.746   8.162   5.518 -0.2920 -0.6968  0.1579
14377SOL     OW47977   4.540   4.622   8.332 -0.0139  0.1945 -0.7082
14377SOL    HW147978   4.518   4.611   8.425  0.9948  1.4660 -0.2870
14377SOL    HW247979   4.549   4.532   8.299  0.5002 -0.2778  0.6448
14378SOL     OW47980   3.727   0.336   7.353 -0.6279 -0.3576 -0.4548
14378SOL    HW147981   3.669   0.373   7.420  2.7203  0.1004  2.4778
14378SOL    HW247982   3.772   0.265   7.398 -0.2416 -1.9660 -3.1941
14379SOL     OW47983   0.365   6.852   1.345 -0.4356  0.3640  0.0562
14379SOL    HW147984   0.282   6.838   1.301 -0.2517 -1.1525  0.1271
14379SOL    HW247985   0.350   6.927   1.403 -0.9030  1.8789 -1.9274
14380SOL     OW47986   4.272   9.616   8.500  0.2180  0.1734 -0.1697
14380SOL    HW147987   4.217   9.694   8.509  0.4385  0.2189  0.9293
14380SOL    HW247988   4.324   9.632   8.422  0.1582  1.0784 -0.0334
14381SOL     OW47989   4.462   4.805   0.649  0.2624 -0.2907  0.2761
14381SOL    HW147990   4.419   4.753   0.581  1.3251 -0.0791 -0.5779
14381SOL    HW247991   4.550   4.768   0.656  0.7374  0.8141  0.2977
14382SOL     OW47992   9.679   5.003   8.147 -0.1542 -0.1959  0.3776
14382SOL    HW147993   9.677   4.943   8.221  1.7802  0.2927  0.8785
14382SOL    HW247994   9.717   4.952   8.075  0.1053 -0.0044  0.3781
14383SOL     OW47995   4.050   3.785   1.740  0.5033 -0.1556  0.7743
14383SOL    HW147996   4.130   3.753   1.782  0.8891 -1.4769 -0.8462
14383SOL    HW247997   3.979   3.746   1.790  0.9311 -0.6792  0.9875
14384SOL     OW47998   5.309   9.207   0.142  0.4236 -0.5001  0.2500
14384SOL    HW147999   5.293   9.222   0.236 -0.0290  2.1063 -0.1719
14384SOL    HW248000   5.386   9.260   0.122 -0.3484  0.1606 -1.1231
14385SOL     OW48001   1.069   1.680   7.974  0.1768 -0.0210  0.5005
14385SOL    HW148002   1.132   1.681   7.902  0.7934  0.1909  1.0379
14385SOL    HW248003   1.059   1.588   7.996  0.6972 -0.0173  0.7580
14386SOL     OW48004   6.951   0.253   6.574  0.4573 -0.2782 -0.4898
14386SOL    HW148005   7.024   0.282   6.518  1.1330 -3.0663 -1.2178
14386SOL    HW248006   6.987   0.254   6.662 -0.1361  2.6785 -0.1722
14387SOL     OW48007   1.583   3.438   7.826 -0.2316 -0.6509 -0.5101
14387SOL    HW148008   1.522   3.420   7.898 -0.8040 -0.9506 -1.0633
14387SOL    HW248009   1.615   3.352   7.799  0.4039 -0.5005 -0.2604
14388SOL     OW48010   6.302   9.199   3.437 -0.1805  0.4740 -0.2587
14388SOL    HW148011   6.350   9.166   3.362  0.4292 -0.2007  0.4145
14388SOL    HW248012   6.225   9.142   3.444 -0.2866  0.5963 -0.4261
14389SOL     OW48013   6.714   3.451   3.577  0.5382  0.3170 -0.0565
14389SOL    HW148014   6.650   3.497   3.522  0.2288 -0.8538 -0.7161
14389SOL    HW248015   6.771   3.520   3.610 -0.1876  1.2236 -0.6342
14390SOL     OW48016   8.228   1.806   1.353 -0.7019  0.3527  0.3321
14390SOL    HW148017   8.282   1.733   1.322  2.2861  2.8441 -0.8057
14390SOL    HW248018   8.240   1.805   1.448 -0.2130 -0.2776  0.2757
14391SOL     OW48019   5.092   3.715   4.446 -0.1144 -0.0684 -0.0627
14391SOL    HW148020   5.114   3.641   4.390 -0.0486  0.1239 -0.2909
14391SOL    HW248021   5.173   3.732   4.495 -0.5188 -1.0184  0.9994
14392SOL     OW48022   7.264   2.717   8.484 -0.4902  0.5922  0.5278
14392SOL    HW148023   7.271   2.689   8.393  1.8832 -0.5264  0.9824
14392SOL    HW248024   7.267   2.636   8.535 -2.6267  1.1311  1.6262
14393SOL     OW48025   9.716   1.482   5.015 -0.3096  0.0980  0.4886
14393SOL    HW148026   9.643   1.527   5.059 -0.5857  1.3704 -1.1592
14393SOL    HW248027   9.744   1.544   4.948  1.9627 -0.6062  0.7238
14394SOL     OW48028   3.800   6.284   4.142 -0.2655  0.1749 -0.0077
14394SOL    HW148029   3.895   6.280   4.148 -0.3625 -0.8568  1.5384
14394SOL    HW248030   3.782   6.364   4.093  1.3919  0.0355 -0.9175
14395SOL     OW48031   7.672   6.323   5.313 -0.1785 -0.2192  0.5756
14395SOL    HW148032   7.733   6.252   5.333  0.2286 -0.1319 -0.3111
14395SOL    HW248033   7.650   6.311   5.220 -0.6287  0.4166  0.5913
14396SOL     OW48034   1.228   7.512   5.378  0.3402  0.0343  0.4868
14396SOL    HW148035   1.305   7.455   5.374  2.9243  3.2000  0.2626
14396SOL    HW248036   1.191   7.497   5.465  0.9843 -1.8186  0.4823
14397SOL     OW48037   6.339   2.398   9.307 -0.4056  0.5107  0.3637
14397SOL    HW148038   6.377   2.379   9.392 -1.7874 -1.2637  0.6516
14397SOL    HW248039   6.244   2.389   9.320 -0.5832 -2.4885 -1.8716
14398SOL     OW48040   7.928   2.048   8.145  0.5170  0.3269 -0.2310
14398SOL    HW148041   7.863   2.042   8.214 -0.8575 -0.9791 -1.5607
14398SOL    HW248042   7.920   2.137   8.112 -1.7567 -0.2387 -1.3983
14399SOL     OW48043   8.306   7.420   4.877 -0.1441  0.5841  0.5316
14399SOL    HW148044   8.211   7.410   4.877 -0.0980  0.1040  0.8027
14399SOL    HW248045   8.340   7.331   4.891  0.3658  0.6151 -0.3927
14400SOL     OW48046   2.894   1.344   0.146  0.3302  0.1393  0.0542
14400SOL    HW148047   2.972   1.400   0.141 -0.1529  0.7494 -1.2982
14400SOL    HW248048   2.829   1.397   0.192  0.9532 -0.7226  2.0330
14401SOL     OW48049   2.422   7.221   7.611 -0.0987 -0.1983  0.0873
14401SOL    HW148050   2.402   7.157   7.543 -0.7579 -0.6491  0.6833
14401SOL    HW248051   2.447   7.300   7.564 -2.8978  0.2813 -0.7731
14402SOL     OW48052   7.122   5.564   8.658  0.4164  0.0534 -0.0284
14402SOL    HW148053   7.042   5.514   8.643  0.3410  0.8871 -3.1144
14402SOL    HW248054   7.189   5.521   8.605  0.7096  2.2177 -1.5842
14403SOL     OW48055   5.299   0.627   7.161 -0.0729  0.1131  0.1607
14403SOL    HW148056   5.222   0.601   7.210 -0.2124  0.0188 -0.1053
14403SOL    HW248057   5.271   0.702   7.109  0.0016  0.0590  0.0395
14404SOL     OW48058   5.895   1.590   5.111 -0.2457  0.1450  0.0604
14404SOL    HW148059   5.897   1.672   5.161 -0.5350 -1.2292  2.4570
14404SOL    HW248060   5.960   1.534   5.154  0.3892 -0.7185 -1.9036
14405SOL     OW48061   2.301   4.446   4.503  0.1180  0.2611 -0.1631
14405SOL    HW148062   2.339   4.465   4.588  0.1871  0.0323 -0.1400
14405SOL    HW248063   2.207   4.463   4.513  0.1255  0.2275 -0.0392
14406SOL     OW48064   6.705   7.453   1.368 -0.3128  0.0051  0.6222
14406SOL    HW148065   6.699   7.380   1.306 -0.0376  0.3521  0.1817
14406SOL    HW248066   6.631   7.441   1.426 -0.4946 -0.4077  0.3104
14407SOL     OW48067   8.618   6.948   7.704  0.0597  0.5540  0.0500
14407SOL    HW148068   8.604   6.947   7.609  2.0295  0.6726 -0.2925
14407SOL    HW248069   8.710   6.971   7.714 -0.0091  0.1522  1.9969
14408SOL     OW48070   8.601   7.386   0.719 -0.2719 -0.1134  0.1506
14408SOL    HW148071   8.580   7.383   0.812  1.0557 -1.6725  0.4666
14408SOL    HW248072   8.579   7.298   0.686 -1.8392  0.7704 -1.3045
14409SOL     OW48073   2.010   3.133   8.532 -0.1881 -0.4529  0.2480
14409SOL    HW148074   2.021   3.159   8.623  1.5695  1.4563 -0.4358
14409SOL    HW248075   2.091   3.087   8.510  1.6375  3.1708 -1.5290
14410SOL     OW48076   0.184   3.922   4.418  0.4171 -0.2391  0.0504
14410SOL    HW148077   0.104   3.906   4.367 -0.0075  0.0913  0.5970
14410SOL    HW248078   0.171   3.872   4.499 -0.8882  2.5818  1.7611
14411SOL     OW48079   3.625   8.079   0.419  0.3225  0.1480 -0.1458
14411SOL    HW148080   3.621   8.173   0.405  1.0702  0.0816 -0.8694
14411SOL    HW248081   3.540   8.047   0.388 -0.1337  0.6289  0.5796
14412SOL     OW48082   9.753   1.595   6.434 -0.0743 -0.0395  0.6998
14412SOL    HW148083   9.720   1.547   6.358  2.1419 -0.9249  0.2435
14412SOL    HW248084   9.738   1.687   6.411 -2.4449 -0.3471  0.6825
14413SOL     OW48085   9.651   4.969   5.112 -0.3600 -0.0679  0.1492
14413SOL    HW148086   9.615   4.950   5.026 -0.0758 -0.1490  0.0504
14413SOL    HW248087   9.715   5.039   5.097  1.6213 -1.8299 -0.1254
14414SOL     OW48088   3.872   5.003   3.300 -0.2475 -0.3306 -0.4684
14414SOL    HW148089   3.795   4.946   3.301 -0.8056  0.4017  0.3184
14414SOL    HW248090   3.947   4.943   3.310 -0.7739 -0.9733 -0.3018
14415SOL     OW48091   8.734   6.174   4.489  0.8663  0.5466 -0.3226
14415SOL    HW148092   8.740   6.255   4.540 -2.1686  1.8016 -1.6800
14415SOL    HW248093   8.645   6.175   4.453  1.2783 -2.5956 -1.7943
14416SOL     OW48094   9.249   5.374   9.046 -0.2673  0.5125  0.1079
14416SOL    HW148095   9.324   5.318   9.069 -0.4924 -0.0724 -0.5465
14416SOL    HW248096   9.243   5.437   9.118  1.8010  1.5412 -0.5323
14417SOL     OW48097   4.115   8.694   5.321 -0.0318 -0.1405  0.7015
14417SOL    HW148098   4.148   8.775   5.282 -1.1709 -0.4167 -0.9835
14417SOL    HW248099   4.119   8.709   5.415  0.2671  1.6690  0.4419
14418SOL     OW48100   4.789   4.201   7.508 -0.3343  0.5857  0.1415
14418SOL    HW148101   4.880   4.173   7.517 -1.2201 -2.8220 -0.2092
14418SOL    HW248102   4.759   4.213   7.598  0.0066  0.0610  0.3292
14419SOL     OW48103   3.800   1.795   6.908 -0.4481  0.5179  0.5494
14419SOL    HW148104   3.739   1.856   6.866  0.3624  0.7754 -0.2839
14419SOL    HW248105   3.866   1.778   6.841  0.6967  0.6596  1.6154
14420SOL     OW48106   3.267   1.611   7.611  0.2145 -0.0600  0.1321
14420SOL    HW148107   3.204   1.545   7.584 -1.2462  0.8053  1.2676
14420SOL    HW248108   3.244   1.688   7.559  0.2278  0.3050  0.6592
14421SOL     OW48109   9.277   4.316   7.924 -0.3830 -0.0421 -0.0044
14421SOL    HW148110   9.207   4.377   7.948 -0.5838 -0.2324 -0.1012
14421SOL    HW248111   9.263   4.240   7.981 -0.5863 -0.3073 -0.4090
14422SOL     OW48112   6.879   5.093   4.810 -0.0619 -0.0119  0.5271
14422SOL    HW148113   6.944   5.023   4.807 -1.2890 -1.1589 -0.5502
14422SOL    HW248114   6.838   5.092   4.724 -0.2314  1.9578  0.5390
14423SOL     OW48115   5.986   8.955   1.924  0.4097  0.9345 -0.4428
14423SOL    HW148116   6.081   8.947   1.919  0.3782  0.2644 -0.1500
14423SOL    HW248117   5.971   9.011   2.001  0.5492 -0.0428  0.3254
14424SOL     OW48118   5.441   7.112   4.151 -0.2322 -0.5419  0.3899
14424SOL    HW148119   5.415   7.050   4.082  0.4333  0.9979 -1.3229
14424SOL    HW248120   5.359   7.152   4.179 -0.4911 -1.0590  0.3956
14425SOL     OW48121   2.607   5.033   9.451 -0.4993 -0.3315 -0.2155
14425SOL    HW148122   2.617   5.112   9.399  1.4578 -0.1114  0.3971
14425SOL    HW248123   2.593   4.963   9.387 -0.6441  0.2756 -0.8576
14426SOL     OW48124   8.868   2.866   8.111  0.1536  0.5252 -0.1724
14426SOL    HW148125   8.894   2.828   8.195  4.0534  0.7317 -1.0930
14426SOL    HW248126   8.905   2.954   8.111 -0.8130  0.9881 -1.6834
14427SOL     OW48127   6.805   2.351   1.518  0.2154 -0.3977  0.2971
14427SOL    HW148128   6.799   2.331   1.611  1.6173 -1.8272  0.1286
14427SOL    HW248129   6.899   2.354   1.500 -0.0318 -0.2928 -1.1004
14428SOL     OW48130   7.525   5.340   2.341 -0.3486 -0.1075  0.3810
14428SOL    HW148131   7.494   5.413   2.394 -0.7857  0.4889 -0.6594
14428SOL    HW248132   7.489   5.262   2.383 -0.7739  0.3555  0.8894
14429SOL     OW48133   7.629   3.989   5.698  0.3596  0.1605 -0.2260
14429SOL    HW148134   7.557   4.013   5.756  0.2660  0.2142 -0.3625
14429SOL    HW248135   7.605   4.029   5.614 -0.9271 -2.2445 -1.0923
14430SOL     OW48136   4.000   2.429   6.662  0.1708 -0.0344  0.1265
14430SOL    HW148137   3.998   2.494   6.592  0.5302 -0.3536 -0.1884
14430SOL    HW248138   4.093   2.416   6.680  0.3448 -2.9374 -2.1927
14431SOL     OW48139   0.332   8.244   1.061 -0.2893  0.4263 -0.5135
14431SOL    HW148140   0.380   8.232   0.980 -0.4456  0.7682 -0.6579
14431SOL    HW248141   0.240   8.233   1.036 -0.2248 -2.7211  0.1799
14432SOL     OW48142   2.080   3.057   4.933  0.1270  0.2801 -0.2052
14432SOL    HW148143   2.026   3.107   4.994  0.8553  1.5169 -0.5611
14432SOL    HW248144   2.018   2.997   4.891 -0.9063  1.3821 -0.3006
14433SOL     OW48145   8.468   0.590   8.410 -0.8308 -0.1835  0.3753
14433SOL    HW148146   8.395   0.576   8.471  0.0940 -1.5859  1.2205
14433SOL    HW248147   8.532   0.639   8.462 -0.4274 -0.5600  0.2336
14434SOL     OW48148   8.763   6.527   3.911  0.5526  0.1745  0.1257
14434SOL    HW148149   8.781   6.521   4.004 -2.5560  1.8611  0.9545
14434SOL    HW248150   8.697   6.461   3.894  2.8002 -1.8341 -1.5308
14435SOL     OW48151   9.298   4.075   7.200  0.1158  0.0033  0.1519
14435SOL    HW148152   9.269   4.126   7.124  2.2006 -2.4486 -2.5247
14435SOL    HW248153   9.345   4.138   7.254 -0.4851  1.6502 -1.1405
14436SOL     OW48154   5.951   8.957   0.753 -0.3396 -0.2681  0.4089
14436SOL    HW148155   5.932   8.987   0.664  1.8036 -0.7939 -0.2710
14436SOL    HW248156   5.925   8.864   0.753  1.2231 -0.7340 -0.2329
14437SOL     OW48157   5.493   7.294   3.761 -0.0287 -0.6441  0.6074
14437SOL    HW148158   5.552   7.321   3.831 -0.0880  0.8035  0.1495
14437SOL    HW248159   5.547   7.296   3.682 -0.2940 -0.8956  0.4199
14438SOL     OW48160   4.048   3.555   8.950  0.3524 -0.3399 -0.5123
14438SOL    HW148161   4.122   3.497   8.931  0.7639  0.7432 -2.5357
14438SOL    HW248162   4.062   3.583   9.040  1.0066 -2.1007 -0.0282
14439SOL     OW48163   7.790   4.697   3.580 -0.0126 -0.5745 -0.1399
14439SOL    HW148164   7.742   4.750   3.644  0.3304  0.3280 -0.6020
14439SOL    HW248165   7.880   4.729   3.586  0.1360 -0.8836 -0.6640
14440SOL     OW48166   4.124   2.145   3.810  0.2348  0.5676  0.1805
14440SOL    HW148167   4.129   2.064   3.860  0.1211 -0.7102 -1.7767
14440SOL    HW248168   4.126   2.117   3.719  0.2485  2.7851 -0.5556
14441SOL     OW48169   2.337   7.852   5.000 -0.6117 -0.2989  0.1763
14441SOL    HW148170   2.389   7.784   5.042 -0.0571  0.0661  0.0963
14441SOL    HW248171   2.390   7.879   4.925  0.2597  1.7825  1.4496
14442SOL     OW48172   6.959   8.620   8.800 -0.1358  0.0383  0.0969
14442SOL    HW148173   7.046   8.585   8.780 -0.3987  0.1903 -1.4498
14442SOL    HW248174   6.970   8.665   8.884  1.4868  0.7802 -0.4739
14443SOL     OW48175   5.545   3.666   1.940 -0.0867 -0.0287  0.2512
14443SOL    HW148176   5.599   3.703   1.870  0.5704 -1.2046  0.1123
14443SOL    HW248177   5.578   3.706   2.020 -1.1003  1.6294 -0.1066
14444SOL     OW48178   0.606   3.694   2.506 -0.1750  0.6375  0.2115
14444SOL    HW148179   0.536   3.647   2.550  0.1429 -2.2157 -1.9961
14444SOL    HW248180   0.686   3.652   2.537  0.1920  0.4515 -0.9151
14445SOL     OW48181   4.855   2.004   9.308 -0.3440  0.3491  0.0247
14445SOL    HW148182   4.837   2.098   9.301  0.3307  0.4175 -1.0481
14445SOL    HW248183   4.930   1.998   9.366 -1.0476  0.3794  0.9630
14446SOL     OW48184   4.058   7.756   8.164  0.9397 -0.2383 -0.3519
14446SOL    HW148185   3.963   7.751   8.172  1.1005 -1.8294  1.3718
14446SOL    HW248186   4.077   7.718   8.079  0.1311 -2.6288  0.4528
14447SOL     OW48187   8.010   2.524   9.541  0.1383 -0.2547  0.6853
14447SOL    HW148188   7.974   2.561   9.622 -0.1122 -3.2210  2.0417
14447SOL    HW248189   7.964   2.441   9.531  0.0726  0.0747 -2.6369
14448SOL     OW48190   5.103   9.306   5.758 -0.1355 -0.5983 -0.6693
14448SOL    HW148191   5.095   9.400   5.771  1.0860 -0.4250 -1.0256
14448SOL    HW248192   5.151   9.275   5.835 -1.2776 -1.0876 -0.1219
14449SOL     OW48193   7.394   8.854   4.848  0.0520  0.0132  0.1665
14449SOL    HW148194   7.304   8.820   4.844  0.5713 -1.4460 -3.7926
14449SOL    HW248195   7.449   8.777   4.834  1.6202  1.4793 -2.5077
14450SOL     OW48196   4.060   3.965   2.400  0.4464  0.1633  0.1333
14450SOL    HW148197   4.128   3.898   2.387 -0.8970 -1.2025 -0.0969
14450SOL    HW248198   4.097   4.044   2.361  1.8034 -0.6140 -0.2229
14451SOL     OW48199   7.429   2.898   8.655  0.0659  0.4231 -0.3619
14451SOL    HW148200   7.451   2.836   8.725 -1.5627  0.7627  0.5101
14451SOL    HW248201   7.346   2.866   8.620 -1.3421  2.5858  0.7661
14452SOL     OW48202   8.917   4.022   1.242  0.4492 -0.0088  0.0412
14452SOL    HW148203   8.909   4.061   1.329  3.6659  0.8280  0.1003
14452SOL    HW248204   8.965   3.940   1.257  2.3396  0.8341 -0.9907
14453SOL     OW48205   4.391   4.293   1.040 -0.3264 -0.5206  0.1744
14453SOL    HW148206   4.428   4.308   1.127 -0.4379 -0.5264  0.2225
14453SOL    HW248207   4.298   4.309   1.050 -0.5194 -1.6470  0.3194
14454SOL     OW48208   6.206   6.319   6.053 -0.0228  0.7711 -0.2691
14454SOL    HW148209   6.204   6.385   6.122 -0.8148 -0.7273  1.2078
14454SOL    HW248210   6.231   6.368   5.975 -2.7054  3.2781  0.2374
14455SOL     OW48211   7.939   5.228   7.272  0.0450  0.0658 -0.6621
14455SOL    HW148212   7.864   5.249   7.217  0.7066  0.8189 -1.3187
14455SOL    HW248213   8.006   5.198   7.210  1.6093  3.1089 -0.6715
14456SOL     OW48214   9.439   5.517   5.687 -0.4251  0.5657  0.1679
14456SOL    HW148215   9.406   5.536   5.599 -0.6453  3.2925  0.7519
14456SOL    HW248216   9.361   5.492   5.736 -0.6225  0.9388  0.0505
14457SOL     OW48217   4.622   7.987   5.793 -0.9132 -0.1013  0.0153
14457SOL    HW148218   4.537   8.029   5.806 -0.9208  0.0624 -0.5364
14457SOL    HW248219   4.649   8.016   5.706  0.4775  1.2180  0.8334
14458SOL     OW48220   4.434   4.393   7.201  0.2021  0.0066 -0.2145
14458SOL    HW148221   4.432   4.390   7.297  1.3845  0.2721 -0.1679
14458SOL    HW248222   4.380   4.470   7.179 -0.1645 -0.1188  0.2216
14459SOL     OW48223   8.784   1.070   5.575 -0.1640 -0.5394 -0.7232
14459SOL    HW148224   8.859   1.091   5.632  0.2187 -0.4859 -1.2398
14459SOL    HW248225   8.762   0.980   5.596 -1.5268  0.1736  1.1998
14460SOL     OW48226   2.797   8.586   4.625 -0.4081  0.0329 -0.2913
14460SOL    HW148227   2.864   8.649   4.600  1.2030 -1.1046  0.9381
14460SOL    HW248228   2.820   8.560   4.714 -1.8837 -1.1949 -0.2199
14461SOL     OW48229   1.039   1.398   3.144  0.1413 -0.5229 -0.1833
14461SOL    HW148230   1.113   1.452   3.117 -0.4339  1.3013  1.6026
14461SOL    HW248231   0.974   1.408   3.074  0.1471  0.9670 -0.0163
14462SOL     OW48232   5.780   0.926   3.675 -1.0163 -0.4089 -0.1810
14462SOL    HW148233   5.850   0.914   3.611 -0.8134 -1.9782  0.2875
14462SOL    HW248234   5.732   0.843   3.673 -0.0002 -1.1990  2.8594
14463SOL     OW48235   0.486   0.402   3.018  0.3276 -0.0427  0.0373
14463SOL    HW148236   0.528   0.460   2.954 -0.4669  1.2939  0.6979
14463SOL    HW248237   0.450   0.461   3.084 -3.7322 -0.8999 -1.1126
14464SOL     OW48238   8.023   6.437   3.348  0.5410 -0.3409 -0.3889
14464SOL    HW148239   7.986   6.349   3.345  0.7757 -0.4213 -1.0329
14464SOL    HW248240   8.094   6.436   3.284  0.7709  0.2182 -0.1545
14465SOL     OW48241   4.609   4.486   0.423 -0.2324 -0.1160 -0.2584
14465SOL    HW148242   4.568   4.434   0.492  0.2260 -0.9354 -0.5899
14465SOL    HW248243   4.698   4.501   0.454 -0.1344 -0.1733 -0.5106
14466SOL     OW48244   4.630   1.792   5.344 -0.3405  0.4882  0.2033
14466SOL    HW148245   4.652   1.797   5.437  0.6353  0.3586 -0.0112
14466SOL    HW248246   4.587   1.875   5.324 -0.7203  0.4389  0.8106
14467SOL     OW48247   1.722   5.412   5.387 -0.3295 -0.1287 -0.3333
14467SOL    HW148248   1.631   5.441   5.375  0.3990  3.3370  1.1855
14467SOL    HW248249   1.774   5.487   5.359  1.8512  0.1911  3.8427
14468SOL     OW48250   5.848   2.353   3.227  0.0492 -0.3427 -0.1600
14468SOL    HW148251   5.811   2.439   3.208  1.2318 -0.0148 -1.1133
14468SOL    HW248252   5.797   2.321   3.301  0.3229  1.6558  0.9747
14469SOL     OW48253   7.872   5.867   2.656  0.0993 -0.0759  0.1531
14469SOL    HW148254   7.881   5.788   2.710  1.7161  0.5968  0.9263
14469SOL    HW248255   7.914   5.936   2.707  0.0666  0.9783 -1.1914
14470SOL     OW48256   9.109   1.969   5.319  0.4580 -0.1122  0.0757
14470SOL    HW148257   9.023   1.934   5.342 -0.9761  1.6634 -2.1964
14470SOL    HW248258   9.115   1.958   5.224  2.1140  1.1520 -0.0038
14471SOL     OW48259   6.207   4.394   7.090  0.1275 -0.4827 -0.4796
14471SOL    HW148260   6.252   4.322   7.046  1.1778  1.1002 -2.1323
14471SOL    HW248261   6.115   4.369   7.088  0.4289 -1.6117 -1.3334
14472SOL     OW48262   3.008   0.754   3.088 -0.2638 -0.3534  0.3433
14472SOL    HW148263   3.069   0.818   3.051 -1.1369  0.0984 -0.3404
14472SOL    HW248264   2.924   0.776   3.049 -0.8010 -1.1945  1.0073
14473SOL     OW48265   1.516   7.922   4.849  0.1823 -0.8813  0.2909
14473SOL    HW148266   1.550   8.012   4.851  1.7067 -1.4333  0.1508
14473SOL    HW248267   1.458   7.921   4.773 -0.9016  0.3224  1.0558
14474SOL     OW48268   8.591   4.707   0.485  0.1126 -0.2139 -0.9604
14474SOL    HW148269   8.622   4.626   0.524 -0.9708 -0.0312  0.3386
14474SOL    HW248270   8.553   4.680   0.401  0.6074 -0.9093 -0.9676
14475SOL     OW48271   5.871   6.982   0.790  0.9858 -0.0281  0.4047
14475SOL    HW148272   5.827   6.898   0.775  0.6908  0.1871  0.0469
14475SOL    HW248273   5.904   6.976   0.880 -0.7843  0.2247  1.1277
14476SOL     OW48274   7.742   2.408   9.741  0.2114 -0.2330 -0.0632
14476SOL    HW148275   7.793   2.362   9.674  0.4476  1.7393 -1.3153
14476SOL    HW248276   7.687   2.340   9.780  0.5739 -1.5829 -1.7806
14477SOL     OW48277   8.063   6.989   4.352 -0.1090  0.0179  0.4312
14477SOL    HW148278   8.157   6.974   4.353 -0.2630 -0.9787  0.6420
14477SOL    HW248279   8.042   7.018   4.441 -0.0537 -0.1210  0.4902
14478SOL     OW48280   2.201   0.266   4.388 -0.4141 -0.2986 -0.0971
14478SOL    HW148281   2.263   0.262   4.461  0.3347  0.2803 -0.6906
14478SOL    HW248282   2.235   0.203   4.324 -0.6359 -0.2397 -0.2727
14479SOL     OW48283   2.232   2.135   4.740  0.0583  0.3307 -0.3247
14479SOL    HW148284   2.183   2.053   4.734  0.6228 -0.2463  1.8678
14479SOL    HW248285   2.312   2.120   4.689 -0.7464  0.2682 -1.5910
14480SOL     OW48286   4.831   0.865   5.114  0.3684 -0.1662  0.3499
14480SOL    HW148287   4.847   0.915   5.034 -0.7749  1.2386  0.9418
14480SOL    HW248288   4.813   0.776   5.084  0.6964  0.1608 -0.8858
14481SOL     OW48289   7.032   6.559   3.066  0.2131  0.1598  0.1880
14481SOL    HW148290   7.018   6.595   2.979  1.0732  0.3881  0.1319
14481SOL    HW248291   6.963   6.494   3.077 -0.0249  0.2736 -0.5812
14482SOL     OW48292   6.772   6.631   6.283 -0.1367  0.5769  0.4067
14482SOL    HW148293   6.729   6.564   6.336 -0.6582  1.0995  0.6459
14482SOL    HW248294   6.758   6.602   6.192 -0.9897  0.7378  0.4804
14483SOL     OW48295   4.050   2.659   3.053 -0.4844 -0.4781  0.2416
14483SOL    HW148296   4.056   2.621   2.966  2.8142  1.5901 -0.6459
14483SOL    HW248297   4.132   2.632   3.096 -1.4113 -0.3147  2.2375
14484SOL     OW48298   4.765   8.953   8.497 -0.1765  0.2789  0.3933
14484SOL    HW148299   4.814   9.034   8.487  0.7709 -0.2183  0.8286
14484SOL    HW248300   4.678   8.973   8.465  0.2650  1.2453 -0.2444
14485SOL     OW48301   8.950   4.976   2.964 -0.0422  0.7981  0.0087
14485SOL    HW148302   9.009   5.043   2.928  1.2775  0.6739  1.7927
14485SOL    HW248303   8.977   4.968   3.055 -1.7877 -0.4594  0.4479
14486SOL     OW48304   4.276   2.621   2.860  1.0353 -0.2509  0.6432
14486SOL    HW148305   4.212   2.557   2.829  0.7751  0.7594 -0.9983
14486SOL    HW248306   4.358   2.572   2.868  0.6741 -0.9459  0.1162
14487SOL     OW48307   1.474   7.757   4.428  0.7769  0.3497  0.7142
14487SOL    HW148308   1.429   7.704   4.494  1.2009  1.8299  2.2847
14487SOL    HW248309   1.565   7.756   4.455  0.9864  0.8662  0.0481
14488SOL     OW48310   0.576   7.311   7.364  0.1192  0.9632  0.5650
14488SOL    HW148311   0.519   7.293   7.438 -1.2159  1.1597 -0.3787
14488SOL    HW248312   0.540   7.259   7.292  1.2858  0.8886 -0.0016
14489SOL     OW48313   6.452   7.678   1.175 -0.2729 -0.1812  0.3641
14489SOL    HW148314   6.537   7.652   1.140 -1.1190 -1.3198 -0.9718
14489SOL    HW248315   6.405   7.596   1.188 -0.6252  0.3308  2.6261
14490SOL     OW48316   3.676   6.018   7.330  0.2034  0.4553 -0.1072
14490SOL    HW148317   3.648   5.943   7.279  1.3519 -0.9008  1.1354
14490SOL    HW248318   3.739   6.063   7.274 -1.0395  0.9490 -1.1471
14491SOL     OW48319   1.102   6.577   0.031  0.5086  0.1595 -0.0487
14491SOL    HW148320   1.037   6.562   0.100  0.8190  0.3358  0.2836
14491SOL    HW248321   1.126   6.489   0.002  1.5349  0.0156  1.1572
14492SOL     OW48322   0.612   0.939   5.081  0.3340 -0.4714 -0.2111
14492SOL    HW148323   0.573   0.872   5.025 -0.2252  1.7348 -2.6501
14492SOL    HW248324   0.663   0.994   5.021  1.3141  0.9178  1.7828
14493SOL     OW48325   5.685   1.028   3.150 -0.5040  0.3809  0.1342
14493SOL    HW148326   5.689   1.115   3.110  1.1958  0.6021  0.6683
14493SOL    HW248327   5.640   0.974   3.086  1.0686  0.9833 -1.6030
14494SOL     OW48328   2.192   5.994   7.934 -0.0722  0.7951 -0.0791
14494SOL    HW148329   2.281   6.018   7.906 -0.3913 -0.6305 -2.7108
14494SOL    HW248330   2.135   6.048   7.879 -0.8645  1.2605  1.1673
14495SOL     OW48331   1.570   9.124   3.504 -0.1538 -0.7443 -0.3934
14495SOL    HW148332   1.542   9.205   3.463 -1.9113 -1.1644 -0.1051
14495SOL    HW248333   1.666   9.127   3.501 -0.1612  1.5539  0.0490
14496SOL     OW48334   6.055   3.338   1.708  0.2794  0.5048 -0.3773
14496SOL    HW148335   6.042   3.368   1.798 -0.1442  0.5250 -0.4447
14496SOL    HW248336   6.081   3.416   1.660 -0.3107  0.6580 -0.4450
14497SOL     OW48337   6.340   6.405   8.226  0.6136 -0.4062 -0.2983
14497SOL    HW148338   6.354   6.388   8.319  3.1347  0.6160 -0.4101
14497SOL    HW248339   6.327   6.500   8.220  1.5971 -0.3014 -1.0602
14498SOL     OW48340   3.457   3.362   3.192  0.1153 -0.0441  0.0411
14498SOL    HW148341   3.420   3.334   3.275 -2.0538  2.5440  0.0754
14498SOL    HW248342   3.433   3.292   3.131  1.4956 -1.8416  1.4501
14499SOL     OW48343   3.016   6.983   5.986 -0.4506 -0.3532  0.9787
14499SOL    HW148344   3.094   7.038   5.992  1.2261 -2.4790  0.1562
14499SOL    HW248345   2.945   7.038   6.018  1.6308  1.1533  3.4169
14500SOL     OW48346   5.950   6.990   1.445  0.2847 -0.3612  0.0703
14500SOL    HW148347   5.937   6.896   1.459  0.9157 -0.2960  1.2601
14500SOL    HW248348   5.894   7.031   1.511 -0.9768  0.1546 -1.2725
14501SOL     OW48349   3.385   1.812   6.094 -0.3056  0.8728 -0.3385
14501SOL    HW148350   3.305   1.837   6.142  1.2092  3.3028  1.1455
14501SOL    HW248351   3.429   1.896   6.077  0.9576 -0.2273 -2.9580
14502SOL     OW48352   2.863   7.804   9.247 -0.1045 -0.2344 -0.0730
14502SOL    HW148353   2.872   7.768   9.159 -0.6272  0.5395 -0.4584
14502SOL    HW248354   2.786   7.861   9.241  0.1844  0.2499  0.7466
14503SOL     OW48355   1.017   3.959   0.806  0.0739  0.0161  0.1528
14503SOL    HW148356   1.005   3.865   0.819 -2.4007  0.1188 -0.8088
14503SOL    HW248357   1.058   3.966   0.720  0.5415 -0.1669  0.3544
14504SOL     OW48358   7.521   6.073   1.742 -0.4035  0.0617 -0.1852
14504SOL    HW148359   7.454   6.079   1.809 -0.4911 -0.0584 -0.2625
14504SOL    HW248360   7.478   6.031   1.667  0.0252 -0.9703  0.1243
14505SOL     OW48361   6.590   6.734   9.358  0.8124 -0.0074  0.3787
14505SOL    HW148362   6.577   6.671   9.428 -0.2045  0.4248  0.5912
14505SOL    HW248363   6.684   6.756   9.362  1.2851 -1.8240 -0.0151
14506SOL     OW48364   5.491   7.191   2.506  0.1597 -0.0586  0.0477
14506SOL    HW148365   5.517   7.178   2.598 -0.4419 -0.5226  0.1524
14506SOL    HW248366   5.567   7.233   2.466  0.9136 -0.9822  0.4659
14507SOL     OW48367   9.571   3.305   5.108  0.3334 -0.1699  0.0779
14507SOL    HW148368   9.517   3.280   5.183 -0.9832  1.1788 -0.3775
14507SOL    HW248369   9.513   3.297   5.032  0.9943  0.5251 -0.5222
14508SOL     OW48370   8.093   1.545   4.199  0.0440  0.2406 -0.1155
14508SOL    HW148371   8.060   1.471   4.149  0.0657  0.2491 -0.1421
14508SOL    HW248372   8.085   1.517   4.291 -3.9473  1.7793  0.2207
14509SOL     OW48373   7.839   0.655   6.097 -0.6009  0.0339  0.5060
14509SOL    HW148374   7.785   0.590   6.143 -1.6683  1.1940  0.9581
14509SOL    HW248375   7.779   0.695   6.034 -0.5275  1.8584  1.5246
14510SOL     OW48376   3.695   3.816   2.108 -0.1594  0.1600 -0.0201
14510SOL    HW148377   3.706   3.840   2.200 -1.0041 -0.0948  0.1580
14510SOL    HW248378   3.652   3.730   2.110 -1.4362  0.7544 -0.6327
14511SOL     OW48379   1.647   9.422   2.072 -0.3617 -0.0797  0.1433
14511SOL    HW148380   1.734   9.387   2.051 -0.7193 -0.1482 -1.2936
14511SOL    HW248381   1.619   9.372   2.149  0.8481 -0.0787  0.6098
14512SOL     OW48382   0.198   7.690   3.694  0.1919 -0.3225  0.9326
14512SOL    HW148383   0.260   7.745   3.647 -0.0802 -0.9325 -0.1810
14512SOL    HW248384   0.149   7.750   3.749 -0.1456  0.5619 -0.3032
14513SOL     OW48385   3.789   0.763   6.680  0.1526 -0.6279 -0.3545
14513SOL    HW148386   3.708   0.806   6.707  0.0456 -1.3555  0.5114
14513SOL    HW248387   3.761   0.684   6.634  0.3553 -1.2866  0.6177
14514SOL     OW48388   0.175   3.697   3.146  0.3148  0.5622 -0.1360
14514SOL    HW148389   0.151   3.615   3.190  1.1804  0.4342  0.1133
14514SOL    HW248390   0.129   3.765   3.195 -0.2799  0.2489 -0.2450
14515SOL     OW48391   1.323   8.321   9.188 -0.6055  1.1171  0.0905
14515SOL    HW148392   1.322   8.413   9.160 -1.5747  0.7751 -1.1111
14515SOL    HW248393   1.269   8.276   9.123 -0.4763 -0.2460  0.8890
14516SOL     OW48394   4.001   4.383   1.308  0.0334  0.5125 -0.0349
14516SOL    HW148395   4.007   4.380   1.403 -0.3819 -2.8352  0.0067
14516SOL    HW248396   3.947   4.460   1.289 -0.8743  0.5808  2.5047
14517SOL     OW48397   1.054   3.952   1.682 -0.3305 -0.0654  0.2696
14517SOL    HW148398   1.120   4.020   1.671  1.2653 -1.5873 -0.0347
14517SOL    HW248399   0.972   3.999   1.699  0.1026  2.0015 -2.7338
14518SOL     OW48400   3.260   0.914   2.337  0.3799  0.0517 -0.2364
14518SOL    HW148401   3.222   0.979   2.396  1.8631 -1.1359  2.1811
14518SOL    HW248402   3.332   0.960   2.293  0.6970  0.3801  0.6028
14519SOL     OW48403   5.360   3.866   2.041  0.1801 -0.2042 -0.2495
14519SOL    HW148404   5.373   3.848   1.948  0.6114 -1.1284 -0.0244
14519SOL    HW248405   5.327   3.783   2.077  0.3900  0.0204  0.4878
14520SOL     OW48406   5.931   8.024   9.450  0.2812 -0.5988  0.3674
14520SOL    HW148407   5.951   7.979   9.532 -0.8844 -1.0205  0.4308
14520SOL    HW248408   5.844   7.992   9.425  1.8363 -3.0773 -2.7338
14521SOL     OW48409   8.254   8.754   4.994 -0.1060  0.1422 -0.2451
14521SOL    HW148410   8.256   8.799   4.909  1.7399 -0.2791 -0.4721
14521SOL    HW248411   8.226   8.822   5.056  1.2931  1.2699 -0.7798
14522SOL     OW48412   2.947   7.114   5.751 -0.4213 -0.2019  0.0831
14522SOL    HW148413   2.885   7.158   5.809 -0.9593  0.9906 -1.3155
14522SOL    HW248414   2.995   7.054   5.807 -0.6477  1.1702  1.8307
14523SOL     OW48415   7.170   0.845   7.961  0.1816 -0.0726 -0.4805
14523SOL    HW148416   7.190   0.933   7.930  1.0346  0.0291  0.3153
14523SOL    HW248417   7.252   0.797   7.952 -0.1966 -0.7047 -0.6157
14524SOL     OW48418   4.811   4.220   5.003 -0.3539  0.5186 -0.0604
14524SOL    HW148419   4.885   4.218   5.064  1.8144  1.7171 -2.4472
14524SOL    HW248420   4.823   4.301   4.953 -2.3733 -0.0739 -1.6522
14525SOL     OW48421   2.260   2.768   7.874  0.1067  0.1245  0.0770
14525SOL    HW148422   2.217   2.844   7.836  0.3489 -0.0454 -0.5480
14525SOL    HW248423   2.292   2.798   7.958  1.2026  1.0527 -0.6479
14526SOL     OW48424   5.623   5.955   4.048  0.0241 -0.3353  0.1373
14526SOL    HW148425   5.709   5.997   4.056  0.1421 -0.2730 -1.3177
14526SOL    HW248426   5.586   5.960   4.137 -0.2337  3.3761 -0.0353
14527SOL     OW48427   2.460   2.010   6.312  0.3460  0.4141 -0.1780
14527SOL    HW148428   2.470   1.938   6.374  0.5112  0.5979  0.0100
14527SOL    HW248429   2.377   1.991   6.267  1.4202 -1.0673 -1.6688
14528SOL     OW48430   1.875   6.297   4.000  0.2323 -0.0328  0.0181
14528SOL    HW148431   1.821   6.219   4.007  0.1594  0.0922  0.8633
14528SOL    HW248432   1.961   6.264   3.973  0.3438 -0.4597  0.8797
14529SOL     OW48433   5.193   6.738   1.668 -0.1954 -0.3580 -0.7786
14529SOL    HW148434   5.106   6.773   1.690 -0.3973 -1.5990  0.6076
14529SOL    HW248435   5.253   6.811   1.680 -0.7961 -0.0413  0.4231
14530SOL     OW48436   3.781   7.741   6.461 -0.5446  0.1665  0.1929
14530SOL    HW148437   3.723   7.670   6.436 -1.6729  0.7708  1.0176
14530SOL    HW248438   3.792   7.792   6.382 -2.4851  0.9580  0.3889
14531SOL     OW48439   5.725   1.855   8.953 -0.2011 -0.4991  0.0208
14531SOL    HW148440   5.692   1.937   8.987  0.1932 -0.4762  0.3604
14531SOL    HW248441   5.721   1.794   9.027  1.3073 -0.2638  0.3368
14532SOL     OW48442   7.481   1.460   6.666  0.7751  0.0529  0.2578
14532SOL    HW148443   7.462   1.545   6.705 -2.7087 -1.6586  2.8888
14532SOL    HW248444   7.562   1.431   6.708 -0.5267  0.1823  3.1139
14533SOL     OW48445   7.270   3.879   3.793 -0.1622 -0.5929 -0.2876
14533SOL    HW148446   7.214   3.933   3.848 -0.0118 -0.9743  0.2514
14533SOL    HW248447   7.292   3.934   3.719 -0.7447 -0.2296 -0.1901
14534SOL     OW48448   8.221   9.179   2.757 -0.4815 -0.4492  0.1796
14534SOL    HW148449   8.239   9.237   2.831  1.8217 -1.3673  0.4189
14534SOL    HW248450   8.191   9.098   2.796  0.4942 -0.8494  0.1364
14535SOL     OW48451   6.268   7.350   1.729 -0.8057  0.1205  0.4108
14535SOL    HW148452   6.215   7.427   1.707 -1.6673 -0.0343  1.8455
14535SOL    HW248453   6.256   7.338   1.823  1.4310 -0.1990  0.7237
14536SOL     OW48454   2.827   4.403   0.463 -0.2294  0.0331  0.5826
14536SOL    HW148455   2.825   4.490   0.501 -0.3066  1.8720 -3.1715
14536SOL    HW248456   2.906   4.362   0.498 -0.3330  1.4419  2.6113
14537SOL     OW48457   4.577   8.360   9.541  0.9301  0.1583  0.0486
14537SOL    HW148458   4.666   8.326   9.543  0.5198 -1.1424 -1.7807
14537SOL    HW248459   4.587   8.453   9.562  2.6824 -0.0047  0.1166
14538SOL     OW48460   0.003   4.845   3.029 -0.2607  0.3270  0.4575
14538SOL    HW148461   0.006   4.772   2.967  1.6296  0.3413  0.4822
14538SOL    HW248462   0.007   4.804   3.115  0.1339  0.4227  0.4868
14539SOL     OW48463   7.723   2.500   1.143  0.0371 -0.1370 -0.5926
14539SOL    HW148464   7.743   2.583   1.101 -0.5256 -1.0722 -2.8500
14539SOL    HW248465   7.808   2.459   1.157  0.3441  0.9194  0.8710
14540SOL     OW48466   8.089   7.190   0.071 -0.1067  0.0003 -0.3206
14540SOL    HW148467   8.051   7.111   0.034 -0.4374 -0.2242  0.4718
14540SOL    HW248468   8.042   7.262   0.030  0.3337 -0.1972 -1.2005
14541SOL     OW48469   2.504   0.506   5.783 -0.1392  0.7802 -0.7036
14541SOL    HW148470   2.580   0.537   5.832 -0.6744  2.0827 -0.6307
14541SOL    HW248471   2.540   0.447   5.717  0.6335 -0.7301  0.9918
14542SOL     OW48472   6.550   6.728   5.445 -0.6674  0.5340  0.1388
14542SOL    HW148473   6.579   6.819   5.443 -0.9994  0.6674  1.1549
14542SOL    HW248474   6.461   6.731   5.479 -1.4772  0.0106 -1.7834
14543SOL     OW48475   6.239   7.876   0.331  0.7090  0.3588  0.2351
14543SOL    HW148476   6.261   7.923   0.251  1.1774  0.3606  0.3618
14543SOL    HW248477   6.290   7.919   0.399  0.4507  0.2412  0.5082
14544SOL     OW48478   5.112   3.197   7.553  0.2309  0.2153 -0.2139
14544SOL    HW148479   5.117   3.288   7.582 -0.7562  0.2677 -0.1899
14544SOL    HW248480   5.089   3.203   7.461 -0.7370 -0.0191  0.0059
14545SOL     OW48481   8.782   6.560   9.416  0.6820 -0.4739 -0.0902
14545SOL    HW148482   8.707   6.587   9.363  1.2075 -0.0173 -0.6211
14545SOL    HW248483   8.786   6.625   9.486  1.7300  0.6734 -1.1651
14546SOL     OW48484   7.353   3.022   3.626 -0.1460  0.0176  0.1074
14546SOL    HW148485   7.302   3.058   3.699 -0.9457 -0.4245 -0.2210
14546SOL    HW248486   7.291   2.967   3.578  0.2725  0.5855 -1.1212
14547SOL     OW48487   3.407   4.207   8.063  0.3452 -0.5870 -0.0950
14547SOL    HW148488   3.452   4.200   8.147  0.2298  0.0598  0.0290
14547SOL    HW248489   3.315   4.219   8.087  0.2154 -1.0994 -0.3289
14548SOL     OW48490   9.067   1.245   0.996 -0.1409 -0.1261  0.2545
14548SOL    HW148491   9.155   1.281   0.991 -0.4494  0.5579 -0.6153
14548SOL    HW248492   9.067   1.191   1.075  1.1874 -0.5073  0.0166
14549SOL     OW48493   8.437   0.171   6.737 -0.1864  0.7472 -0.3267
14549SOL    HW148494   8.526   0.140   6.753 -0.5376  1.1291  2.9749
14549SOL    HW248495   8.444   0.266   6.741 -0.9695  0.7801  2.2526
14550SOL     OW48496   0.105   3.806   7.888 -0.0350 -1.0750  0.1170
14550SOL    HW148497   0.097   3.888   7.937  1.0932 -0.2187 -1.0556
14550SOL    HW248498   0.026   3.757   7.911 -1.6676  1.0761 -0.4843
14551SOL     OW48499   4.934   9.376   2.668  0.0392  0.3937 -0.3525
14551SOL    HW148500   4.864   9.340   2.722  1.7746 -0.2258  1.6591
14551SOL    HW248501   4.917   9.471   2.668 -2.1957  0.0725 -2.1448
14552SOL     OW48502   6.792   7.090   4.615  0.2288  0.1339 -0.0393
14552SOL    HW148503   6.749   7.053   4.692 -0.7619  0.2973 -0.4968
14552SOL    HW248504   6.795   7.184   4.632  2.3953 -0.0650  0.9501
14553SOL     OW48505   8.686   7.610   1.433 -0.0199  0.1329  0.3619
14553SOL    HW148506   8.765   7.630   1.485 -0.4110 -2.9836  2.4290
14553SOL    HW248507   8.615   7.651   1.482 -0.1170 -0.6830  0.9168
14554SOL     OW48508   8.716   4.420   1.258 -0.4728 -0.0177 -0.1935
14554SOL    HW148509   8.690   4.329   1.241 -0.7683  0.2056 -0.9914
14554SOL    HW248510   8.697   4.433   1.351 -0.9394 -0.6027 -0.1993
14555SOL     OW48511   1.644   0.388   6.910  0.0238  0.0378 -0.7528
14555SOL    HW148512   1.604   0.329   6.974 -1.5331  0.3977 -1.3640
14555SOL    HW248513   1.646   0.338   6.829 -1.3009  0.7681 -1.2750
14556SOL     OW48514   3.860   6.958   5.689 -0.2104  0.7822  0.2043
14556SOL    HW148515   3.790   7.006   5.733 -0.0534  1.2741 -0.0732
14556SOL    HW248516   3.924   6.941   5.758  0.1044  1.6841  0.1521
14557SOL     OW48517   5.033   9.626   9.037 -0.3534  0.5882  0.3673
14557SOL    HW148518   4.946   9.665   9.033  0.0474  1.5544  0.6762
14557SOL    HW248519   5.055   9.607   8.945 -0.6820  0.8264  0.2378
14558SOL     OW48520   1.292   4.720   6.737 -0.3809  0.2785  0.0160
14558SOL    HW148521   1.202   4.753   6.741 -0.8889 -1.0577  0.1335
14558SOL    HW248522   1.315   4.725   6.644 -0.2895  1.3175  0.0807
14559SOL     OW48523   3.760   7.121   5.116 -0.0964 -0.1663 -0.4582
14559SOL    HW148524   3.691   7.173   5.077  0.2812 -0.4339 -1.5341
14559SOL    HW248525   3.841   7.165   5.091  0.1492  1.5416  2.8043
14560SOL     OW48526   8.816   2.154   3.784 -0.7707 -0.1132  0.1605
14560SOL    HW148527   8.741   2.134   3.840  0.0987 -1.8953  0.7918
14560SOL    HW248528   8.803   2.244   3.756 -1.6115  0.6387  2.6998
14561SOL     OW48529   4.068   0.333   6.872 -0.0949  0.2534  0.0024
14561SOL    HW148530   4.150   0.352   6.826  0.2068 -0.7915  0.0742
14561SOL    HW248531   4.033   0.419   6.896  0.2183  0.7691 -1.3396
14562SOL     OW48532   4.858   6.812   2.685  0.2138  0.2650  0.0157
14562SOL    HW148533   4.851   6.896   2.639 -0.5756 -0.9728 -2.2691
14562SOL    HW248534   4.877   6.749   2.616  4.0118 -1.0805  2.0581
14563SOL     OW48535   1.941   7.385   8.927  0.1637  0.2181  0.2823
14563SOL    HW148536   2.004   7.314   8.913  0.1026 -0.0845  1.4847
14563SOL    HW248537   1.919   7.414   8.838  1.0309 -0.5189 -0.1960
14564SOL     OW48538   4.973   2.604   2.178 -0.1618  0.1554  0.0555
14564SOL    HW148539   4.895   2.570   2.135 -0.6147  0.0154  0.9810
14564SOL    HW248540   5.024   2.643   2.106 -0.1715 -1.4117 -0.8604
14565SOL     OW48541   8.844   7.964   4.598  0.1186 -0.0622 -0.0252
14565SOL    HW148542   8.862   7.918   4.680 -0.3944  0.1665  0.2185
14565SOL    HW248543   8.862   8.056   4.618  2.2926 -0.2512 -0.8404
14566SOL     OW48544   6.418   0.484   2.721  1.2582  0.3376 -0.2933
14566SOL    HW148545   6.406   0.398   2.682  2.6206  0.8020 -1.8224
14566SOL    HW248546   6.358   0.541   2.672  1.0510  0.4459  0.0820
14567SOL     OW48547   5.658   4.801   0.268  0.2156 -0.0291  0.3957
14567SOL    HW148548   5.671   4.723   0.213 -2.0124  0.2912 -0.6654
14567SOL    HW248549   5.596   4.773   0.334  1.4288  0.1454  1.6507
14568SOL     OW48550   6.122   3.712   3.442  0.4107 -0.4230 -0.0386
14568SOL    HW148551   6.095   3.623   3.461  1.2276 -0.7180 -0.2061
14568SOL    HW248552   6.193   3.702   3.378  0.0647  0.3742 -0.5665
14569SOL     OW48553   8.768   7.267   2.071 -0.1626  0.5413  0.5519
14569SOL    HW148554   8.737   7.316   1.994 -1.1967  0.4807  0.9198
14569SOL    HW248555   8.689   7.249   2.122  0.5793  1.0921  1.9408
14570SOL     OW48556   6.269   8.749   8.127 -0.0958  0.4293  0.1518
14570SOL    HW148557   6.349   8.698   8.132  1.1545  2.2708  0.0796
14570SOL    HW248558   6.198   8.685   8.129  1.3546 -1.2006  1.0060
14571SOL     OW48559   3.669   0.553   3.150 -0.5031  0.1215 -0.0786
14571SOL    HW148560   3.720   0.546   3.070 -0.4799 -1.4734  0.0569
14571SOL    HW248561   3.648   0.646   3.156  0.7834  0.5156 -1.1220
14572SOL     OW48562   5.375   3.916   8.588 -0.3746 -0.8506  0.1777
14572SOL    HW148563   5.403   3.964   8.510  1.1931  1.3675  1.9564
14572SOL    HW248564   5.450   3.860   8.610  0.3214  0.5436  1.5291
14573SOL     OW48565   2.626   9.106   4.310  0.5546 -0.0950 -0.2469
14573SOL    HW148566   2.594   9.162   4.381  1.2742 -0.8598  0.7134
14573SOL    HW248567   2.702   9.061   4.347  1.1781 -0.2373 -1.6422
14574SOL     OW48568   0.138   1.182   9.366 -1.0719 -0.2191 -0.1725
14574SOL    HW148569   0.117   1.164   9.275 -3.4671  0.3966  0.1697
14574SOL    HW248570   0.052   1.190   9.409 -0.0291  0.1968  1.9878
14575SOL     OW48571   2.123   7.915   4.843  0.0870  0.5235 -0.2966
14575SOL    HW148572   2.181   7.849   4.880 -1.3604 -1.6499 -1.6122
14575SOL    HW248573   2.065   7.940   4.915 -0.6558 -1.2403 -0.2322
14576SOL     OW48574   5.374   7.733   4.290 -0.1583 -0.0916  0.2728
14576SOL    HW148575   5.332   7.666   4.343  0.3176 -1.4322 -0.9817
14576SOL    HW248576   5.411   7.686   4.216  2.0643  1.2406  0.4241
14577SOL     OW48577   1.283   2.280   6.841 -0.0787 -0.3059 -0.0405
14577SOL    HW148578   1.225   2.355   6.828 -0.6193 -0.6334  0.4369
14577SOL    HW248579   1.245   2.211   6.785  0.1479 -0.3634 -0.1222
14578SOL     OW48580   3.497   0.054   3.172  0.3653 -0.2676 -0.1566
14578SOL    HW148581   3.510   0.128   3.231 -1.3190  0.0808 -0.1530
14578SOL    HW248582   3.444   0.090   3.101  0.2491 -1.2656 -0.5848
14579SOL     OW48583   2.836   9.430   9.428  0.7515  0.4981  0.7600
14579SOL    HW148584   2.833   9.383   9.345  0.1273 -0.3645  1.2599
14579SOL    HW248585   2.789   9.512   9.410  2.4035  1.2609 -0.2908
14580SOL     OW48586   0.784   3.175   7.118  0.4676  0.1985  0.1413
14580SOL    HW148587   0.769   3.217   7.202  0.5865 -0.1863  0.3614
14580SOL    HW248588   0.698   3.171   7.076  0.0962 -1.0959  0.9570
14581SOL     OW48589   0.714   7.931   3.689 -0.0985  0.3162  0.1530
14581SOL    HW148590   0.632   7.921   3.641 -0.0330  0.8846 -0.0864
14581SOL    HW248591   0.780   7.895   3.629  0.0121  1.2380 -0.2865
14582SOL     OW48592   9.656   0.305   1.474  0.2419  0.4227  0.2168
14582SOL    HW148593   9.724   0.273   1.415  0.4688 -1.0084  1.2087
14582SOL    HW248594   9.585   0.241   1.467 -1.4166  2.2640 -1.3655
14583SOL     OW48595   3.296   0.520   1.763 -0.2468 -0.2175 -0.0480
14583SOL    HW148596   3.317   0.443   1.711 -1.9887 -1.7174  1.3628
14583SOL    HW248597   3.292   0.591   1.699  2.1425 -1.0818 -1.2820
14584SOL     OW48598   8.526   7.441   1.633  0.5124 -0.0934 -0.3389
14584SOL    HW148599   8.498   7.530   1.611 -1.0139 -0.3536  0.4641
14584SOL    HW248600   8.465   7.384   1.587  1.4281 -0.7501 -0.7756
14585SOL     OW48601   9.040   2.348   9.106 -0.1338 -0.2751 -0.1602
14585SOL    HW148602   9.012   2.439   9.114 -0.6242 -0.4480  0.1401
14585SOL    HW248603   9.031   2.312   9.194  1.3849 -0.2528  0.0213
14586SOL     OW48604   1.327   4.609   7.248  0.5828 -0.2557  0.0052
14586SOL    HW148605   1.275   4.672   7.298 -1.2136 -2.2577  0.8297
14586SOL    HW248606   1.287   4.609   7.161  2.3270  1.6400 -0.8713
14587SOL     OW48607   2.049   5.118   6.377 -0.3180  0.0288  0.5444
14587SOL    HW148608   1.974   5.059   6.365  1.8729 -2.8820 -0.1034
14587SOL    HW248609   2.034   5.159   6.462 -2.1508 -1.2271  0.8838
14588SOL     OW48610   9.548   3.825   3.602  0.3314 -0.4425  0.4660
14588SOL    HW148611   9.584   3.912   3.619 -0.1129  0.1365 -1.3935
14588SOL    HW248612   9.515   3.796   3.688 -0.8438  1.8414  0.8528
14589SOL     OW48613   2.124   9.631   3.818  0.1501 -0.2320 -0.2921
14589SOL    HW148614   2.047   9.623   3.761 -0.6116  0.5796  0.5901
14589SOL    HW248615   2.132   9.725   3.834  1.7553 -0.2313 -0.9250
14590SOL     OW48616   6.878   8.859   3.379 -0.5871  0.0757  0.4573
14590SOL    HW148617   6.802   8.911   3.404  0.4101  1.1176  1.4399
14590SOL    HW248618   6.950   8.894   3.432  0.3281 -1.7103  0.4848
14591SOL     OW48619   3.620   0.678   4.719  0.3022  0.3313  0.1273
14591SOL    HW148620   3.579   0.695   4.634 -0.4263 -0.4486  0.3015
14591SOL    HW248621   3.578   0.597   4.750 -0.0604  1.0430  1.6141
14592SOL     OW48622   3.425   6.669   8.506 -0.3019 -0.3724 -0.3928
14592SOL    HW148623   3.467   6.588   8.477 -1.5175 -1.1982  0.0855
14592SOL    HW248624   3.340   6.668   8.462 -0.9093 -0.0919  0.7569
14593SOL     OW48625   7.916   5.141   3.010 -0.3079 -0.6789 -0.3306
14593SOL    HW148626   7.889   5.068   2.954 -1.2269  0.3439 -1.2751
14593SOL    HW248627   7.992   5.179   2.965 -2.6405  1.8479 -2.5706
14594SOL     OW48628   4.732   7.278   7.776  0.3098 -0.1001 -0.0432
14594SOL    HW148629   4.695   7.213   7.836  0.2580  0.0750  0.1155
14594SOL    HW248630   4.665   7.347   7.771  0.5861  0.1862  0.1914
14595SOL     OW48631   5.220   3.743   3.439  0.2255 -0.4741  0.2851
14595SOL    HW148632   5.257   3.830   3.456 -1.5772  0.2826  0.6802
14595SOL    HW248633   5.127   3.760   3.423  0.0535 -2.2268 -0.8449
14596SOL     OW48634   5.471   7.290   7.890 -0.2629 -0.5205 -0.3907
14596SOL    HW148635   5.497   7.364   7.834  0.9819 -0.4538  0.2434
14596SOL    HW248636   5.436   7.225   7.829 -1.3831  0.5626 -0.9701
14597SOL     OW48637   2.915   1.256   4.779 -0.0406  0.4507  0.1524
14597SOL    HW148638   2.932   1.169   4.744  1.6777 -0.6756  3.3699
14597SOL    HW248639   2.990   1.308   4.752  1.5499 -0.5553  2.2769
14598SOL     OW48640   8.892   1.604   5.105  0.5066  0.0093  0.0797
14598SOL    HW148641   8.814   1.648   5.071  0.9063  1.9377  1.4720
14598SOL    HW248642   8.877   1.511   5.087 -1.2585  0.5050 -1.3049
14599SOL     OW48643   4.059   4.278   3.341 -0.2125  0.0993  0.1198
14599SOL    HW148644   4.056   4.209   3.274  0.3901  0.4723 -0.3015
14599SOL    HW248645   4.151   4.279   3.370 -0.1350  0.9484 -0.1238
14600SOL     OW48646   2.668   8.035   5.950  0.5288 -0.2166 -0.9378
14600SOL    HW148647   2.723   8.113   5.945  1.7567 -1.0130 -0.3321
14600SOL    HW248648   2.620   8.044   6.032  0.7981 -0.1743 -0.7839
14601SOL     OW48649   7.452   8.876   3.301  0.0660 -0.5093  0.5413
14601SOL    HW148650   7.504   8.825   3.363 -1.6932 -1.2538  1.4502
14601SOL    HW248651   7.456   8.826   3.219 -0.2016 -1.1823  0.9366
14602SOL     OW48652   8.267   2.625   5.650  0.1703  0.3332 -0.1016
14602SOL    HW148653   8.208   2.700   5.639  0.5596  0.5381 -0.8497
14602SOL    HW248654   8.224   2.570   5.715 -0.0009  1.3349  0.6692
14603SOL     OW48655   1.226   6.899   9.507  0.4586  0.6988  1.1358
14603SOL    HW148656   1.243   6.805   9.497 -1.0017  0.1774  3.0394
14603SOL    HW248657   1.263   6.938   9.428 -0.8265 -1.7249 -0.8194
14604SOL     OW48658   0.271   3.365   2.713 -0.4619  0.1971  0.0498
14604SOL    HW148659   0.233   3.293   2.663 -1.0982 -0.0812  0.9004
14604SOL    HW248660   0.359   3.335   2.736 -1.3539 -1.1262  1.9642
14605SOL     OW48661   5.445   3.953   4.085 -0.6109 -0.4106  0.2445
14605SOL    HW148662   5.354   3.975   4.070 -1.2405 -2.0713  1.3252
14605SOL    HW248663   5.451   3.940   4.180  0.8495  0.0267  0.2463
14606SOL     OW48664   4.172   6.573   2.853 -0.7010 -0.5274 -0.2269
14606SOL    HW148665   4.167   6.495   2.908  0.5871  0.1635  0.9242
14606SOL    HW248666   4.157   6.646   2.912 -1.5985  0.1304 -1.2370
14607SOL     OW48667   2.976   0.953   9.084  0.2132 -0.2346 -0.1622
14607SOL    HW148668   2.943   1.038   9.054  0.9098 -0.1447 -0.7156
14607SOL    HW248669   3.018   0.916   9.007 -0.7921 -1.4556 -0.1416
14608SOL     OW48670   8.362   6.150   9.134  0.6069  0.1790  0.1024
14608SOL    HW148671   8.349   6.089   9.062  2.1875  0.8603 -0.8101
14608SOL    HW248672   8.325   6.232   9.103  0.0022  0.1263  0.6601
14609SOL     OW48673   7.226   0.985   0.285  0.1346  0.0010  0.5310
14609SOL    HW148674   7.183   0.905   0.316  1.2800 -0.5118  0.8407
14609SOL    HW248675   7.273   1.019   0.361 -3.2112  3.0596  1.4933
14610SOL     OW48676   5.487   1.168   7.702 -0.1780  0.5744 -0.0053
14610SOL    HW148677   5.472   1.205   7.789 -0.7682  1.0439 -0.3015
14610SOL    HW248678   5.450   1.231   7.642  1.2603  0.8161 -0.6841
14611SOL     OW48679   4.777   7.306   0.372  0.0753  0.4866  0.0507
14611SOL    HW148680   4.824   7.389   0.384  0.2564  0.3207  0.5106
14611SOL    HW248681   4.846   7.239   0.372  0.2393  0.5358 -3.1209
14612SOL     OW48682   0.001   8.221   9.729 -0.4769  0.3848  0.1799
14612SOL    HW148683   0.040   8.306   9.749  0.5907  0.2662 -1.1954
14612SOL    HW248684   0.065   8.157   9.759 -0.4748  0.1338 -0.3373
14613SOL     OW48685   5.815   9.691   3.360 -0.0281 -0.1984 -0.1171
14613SOL    HW148686   5.762   9.733   3.428  0.0603 -1.7356  0.9601
14613SOL    HW248687   5.866   9.762   3.322 -0.0872  0.7314  1.4517
14614SOL     OW48688   5.086   1.785   6.619  0.5286 -0.0448  0.2816
14614SOL    HW148689   5.179   1.798   6.603  0.1800  1.6276 -0.6632
14614SOL    HW248690   5.046   1.792   6.532 -0.4847 -0.6758  0.6798
14615SOL     OW48691   0.056   8.888   8.464  0.0226 -0.0159  0.1737
14615SOL    HW148692   0.139   8.934   8.456  0.0305 -0.0876 -0.1795
14615SOL    HW248693   0.075   8.798   8.435 -0.1086 -0.1095  0.3709
14616SOL     OW48694   1.759   2.857   5.828 -0.1904  0.9871  0.4270
14616SOL    HW148695   1.783   2.822   5.914 -2.3851  1.3211  1.2372
14616SOL    HW248696   1.681   2.911   5.845  1.6646  4.5090 -1.1052
14617SOL     OW48697   7.175   1.987   9.027  0.3841  0.9154  0.4130
14617SOL    HW148698   7.110   2.056   9.036  0.1753  0.6488  0.9865
14617SOL    HW248699   7.184   1.975   8.932 -0.5950  0.7778  0.3280
14618SOL     OW48700   8.864   0.673   5.199  0.2122  0.1862 -0.1988
14618SOL    HW148701   8.884   0.707   5.112 -0.8416  0.0889 -0.4971
14618SOL    HW248702   8.879   0.579   5.193 -1.0069  0.0013 -0.6452
14619SOL     OW48703   6.490   0.537   7.206 -0.6860  0.4718  0.1248
14619SOL    HW148704   6.450   0.589   7.137 -0.3715  0.0275 -0.3997
14619SOL    HW248705   6.480   0.446   7.178  1.5364  0.3583 -0.5454
14620SOL     OW48706   8.755   0.947   9.595 -0.5203  0.8825  0.4879
14620SOL    HW148707   8.677   0.905   9.561  0.2853  0.3041 -0.7104
14620SOL    HW248708   8.778   1.013   9.529  0.6510  0.2462  0.2296
14621SOL     OW48709   8.589   1.315   5.778 -0.1765  0.2189  0.3220
14621SOL    HW148710   8.654   1.359   5.724  0.1854 -0.7783 -0.0675
14621SOL    HW248711   8.639   1.251   5.829 -0.8963 -0.8931 -0.3269
14622SOL     OW48712   5.447   9.185   5.848 -0.1300 -0.0500 -0.4988
14622SOL    HW148713   5.463   9.279   5.847 -0.9043  0.0854 -0.9692
14622SOL    HW248714   5.371   9.174   5.905 -0.3537 -0.3325 -0.8485
14623SOL     OW48715   9.217   9.330   3.930 -0.3997 -0.0054  0.6028
14623SOL    HW148716   9.291   9.352   3.874 -0.8718  0.3907  0.1256
14623SOL    HW248717   9.230   9.238   3.952  1.2709  0.5412  2.1073
14624SOL     OW48718   8.772   1.306   4.260  0.0993  0.1303  0.3548
14624SOL    HW148719   8.727   1.223   4.245 -3.3041  1.9671 -0.6012
14624SOL    HW248720   8.837   1.312   4.190  0.1804 -1.5070  0.2568
14625SOL     OW48721   2.896   4.404   5.904 -0.0067 -0.1995  0.1843
14625SOL    HW148722   2.908   4.410   5.809  1.2608 -0.2265  0.3321
14625SOL    HW248723   2.938   4.322   5.929 -0.0025 -0.0113  0.8205
14626SOL     OW48724   8.694   5.986   2.445 -0.2377  0.0944 -0.3190
14626SOL    HW148725   8.719   5.923   2.513  1.4754  1.1269  0.0736
14626SOL    HW248726   8.702   5.938   2.363  0.4921 -0.3678  0.0183
14627SOL     OW48727   7.548   1.848   0.984 -0.7100  0.3049 -0.3553
14627SOL    HW148728   7.603   1.806   0.918 -2.9957  0.0978 -2.2841
14627SOL    HW248729   7.591   1.931   1.002  0.0089  0.3679 -2.1378
14628SOL     OW48730   7.079   4.473   2.743 -0.2165  0.0652  0.1500
14628SOL    HW148731   7.064   4.501   2.653 -0.4397  0.6379  0.3604
14628SOL    HW248732   7.044   4.544   2.797  0.0903 -0.1808  0.6880
14629SOL     OW48733   3.404   0.776   8.212 -0.5675 -0.3652 -0.3246
14629SOL    HW148734   3.419   0.817   8.297 -1.1755 -1.5758  0.3938
14629SOL    HW248735   3.325   0.723   8.224 -0.0702 -1.3854 -1.3236
14630SOL     OW48736   5.321   7.924   0.380  0.3705  0.1713 -0.0715
14630SOL    HW148737   5.356   7.865   0.313  0.1509 -1.3620  1.1017
14630SOL    HW248738   5.398   7.968   0.417  0.5579  0.4827 -0.8148
14631SOL     OW48739   6.852   5.188   1.935 -0.5669 -0.1544  0.3218
14631SOL    HW148740   6.882   5.229   2.017 -0.6182 -4.1881  2.6526
14631SOL    HW248741   6.757   5.181   1.946 -0.5725 -0.7130 -0.0908
14632SOL     OW48742   4.612   7.915   9.185 -0.1870  0.1445  0.2106
14632SOL    HW148743   4.541   7.979   9.190  0.6517  1.0289  1.5766
14632SOL    HW248744   4.579   7.847   9.127 -2.3280  0.3219  1.1170
14633SOL     OW48745   0.138   2.712   7.501  0.2707  0.8567 -0.4689
14633SOL    HW148746   0.226   2.737   7.473  1.3989  1.8083  3.3084
14633SOL    HW248747   0.137   2.617   7.493  2.5245  0.5815  1.3249
14634SOL     OW48748   7.855   6.474   1.898 -0.1741 -0.5071  0.4014
14634SOL    HW148749   7.899   6.392   1.919  0.2211 -0.2944  0.4117
14634SOL    HW248750   7.899   6.540   1.952 -0.7517 -0.3514  0.6943
14635SOL     OW48751   7.329   5.147   2.148 -0.0980 -0.4422 -0.1417
14635SOL    HW148752   7.316   5.062   2.189  0.3603  0.2924  1.6338
14635SOL    HW248753   7.279   5.208   2.203 -0.0763  0.5032 -1.1292
14636SOL     OW48754   9.477   1.415   1.780  0.4986 -0.3413  0.1225
14636SOL    HW148755   9.547   1.357   1.810 -1.1906 -1.6985  1.7236
14636SOL    HW248756   9.403   1.356   1.763 -0.7120  1.1710 -0.1308
14637SOL     OW48757   7.791   8.126   0.472  0.1048  0.3147 -0.0052
14637SOL    HW148758   7.761   8.134   0.381  0.3048  1.1590 -0.0056
14637SOL    HW248759   7.859   8.193   0.481  0.1754  0.1519  0.7320
14638SOL     OW48760   3.906   1.388   8.337 -0.1727  0.0047 -0.1368
14638SOL    HW148761   3.966   1.361   8.267 -0.0489  1.2463 -0.5186
14638SOL    HW248762   3.819   1.365   8.303 -0.0653  0.0329 -0.4388
14639SOL     OW48763   6.879   6.387   0.344  0.1153  0.6031 -0.2786
14639SOL    HW148764   6.957   6.421   0.388 -0.0084 -0.3555  0.7249
14639SOL    HW248765   6.807   6.410   0.403  0.0273 -1.3476  0.4691
14640SOL     OW48766   1.683   7.107   6.705  0.5502  0.4095 -0.7313
14640SOL    HW148767   1.774   7.137   6.702  0.8504 -0.0225  1.8000
14640SOL    HW248768   1.690   7.011   6.708 -0.1198  0.2699 -2.6588
14641SOL     OW48769   1.520   7.055   8.213  0.0343 -0.2178 -0.2815
14641SOL    HW148770   1.561   7.038   8.298  0.0732  2.1694  0.2294
14641SOL    HW248771   1.433   7.088   8.234 -0.9307 -1.9409 -1.2881
14642SOL     OW48772   6.412   7.228   6.857  0.9929  0.7217 -0.3076
14642SOL    HW148773   6.457   7.310   6.875 -0.3425  1.5858 -0.8077
14642SOL    HW248774   6.415   7.219   6.762  1.8432 -0.2497 -0.2118
14643SOL     OW48775   3.519   9.327   8.590  0.1892  0.3855 -0.5025
14643SOL    HW148776   3.452   9.261   8.605  0.6112 -0.2260 -1.2395
14643SOL    HW248777   3.500   9.362   8.503  0.6705  0.3895 -0.6127
14644SOL     OW48778   5.338   1.810   4.591 -0.5622 -0.2620 -0.2533
14644SOL    HW148779   5.425   1.847   4.576 -0.3692  0.9128  3.0038
14644SOL    HW248780   5.352   1.738   4.652 -1.9316  0.7438  1.3474
14645SOL     OW48781   6.507   9.111   6.944  0.0231  0.3047  0.4832
14645SOL    HW148782   6.422   9.081   6.974  0.2350 -1.1942 -0.2835
14645SOL    HW248783   6.553   9.138   7.024 -0.9612  0.6111  0.9606
14646SOL     OW48784   7.414   9.617   4.642 -0.4484  0.1765  0.0939
14646SOL    HW148785   7.400   9.531   4.603  0.3927  0.1218 -0.1048
14646SOL    HW248786   7.332   9.637   4.687 -0.5291 -0.8768  0.4337
14647SOL     OW48787   1.436   5.909   1.820 -0.3267  0.4079 -0.2931
14647SOL    HW148788   1.490   5.877   1.892 -1.0667  0.2460  0.1935
14647SOL    HW248789   1.482   5.988   1.790  0.7862 -0.3313 -0.6274
14648SOL     OW48790   4.011   8.132   6.864 -0.1272 -0.8390  0.3182
14648SOL    HW148791   3.986   8.205   6.807 -0.9552 -0.1409  1.5164
14648SOL    HW248792   4.090   8.096   6.824  0.6311  1.0758 -0.0063
14649SOL     OW48793   7.903   6.698   4.099  0.1393 -0.0590  0.1422
14649SOL    HW148794   7.865   6.783   4.076 -0.9739 -0.9654 -1.6606
14649SOL    HW248795   7.984   6.693   4.048 -0.6306 -0.6955 -1.0862
14650SOL     OW48796   7.491   2.678   1.521 -0.0742  0.6692 -0.7516
14650SOL    HW148797   7.517   2.602   1.469  0.9051 -0.1448  0.8698
14650SOL    HW248798   7.397   2.667   1.534 -0.2231  0.5627 -1.8046
14651SOL     OW48799   0.829   5.272   6.000 -0.4177  0.5436  0.4478
14651SOL    HW148800   0.800   5.189   5.962  3.2096 -0.6898  0.0131
14651SOL    HW248801   0.769   5.287   6.073 -1.6565 -2.0456  0.0655
14652SOL     OW48802   5.379   8.111   9.593 -0.4916  0.3332  0.1682
14652SOL    HW148803   5.369   8.201   9.562 -1.8481  0.4217  0.7869
14652SOL    HW248804   5.465   8.110   9.636 -0.5821  1.4026  0.3966
14653SOL     OW48805   1.913   5.636   7.393  0.4765 -0.5127 -0.1793
14653SOL    HW148806   1.914   5.635   7.489 -2.5172  2.3933  0.0562
14653SOL    HW248807   1.842   5.577   7.369 -0.2748  0.4534 -0.4141
14654SOL     OW48808   7.796   8.619   1.042  0.4877  0.2048 -0.1747
14654SOL    HW148809   7.741   8.676   1.095  1.0051  0.6111 -0.0631
14654SOL    HW248810   7.765   8.631   0.952  0.1458  0.1382 -0.0654
14655SOL     OW48811   6.796   2.423   8.494  0.3408 -0.5993  0.1331
14655SOL    HW148812   6.735   2.439   8.421 -1.2661 -0.8915  1.3550
14655SOL    HW248813   6.883   2.432   8.455 -0.4714  0.3787 -1.5590
14656SOL     OW48814   6.428   1.840   6.681  0.6895 -0.3091 -0.5416
14656SOL    HW148815   6.391   1.752   6.672  1.3264 -0.6086 -0.2415
14656SOL    HW248816   6.501   1.842   6.618  1.3495 -0.3614  0.2137
14657SOL     OW48817   8.987   6.440   8.853  0.0725  0.6402 -0.5125
14657SOL    HW148818   8.936   6.489   8.917  0.3894  1.7177 -1.0614
14657SOL    HW248819   8.996   6.500   8.779  0.2399 -0.3552 -1.3174
14658SOL     OW48820   2.146   0.918   4.762  0.3148  0.2976  0.0777
14658SOL    HW148821   2.156   0.938   4.855  1.1339  2.3353 -0.3895
14658SOL    HW248822   2.234   0.929   4.726  0.6564 -3.2124 -0.5437
14659SOL     OW48823   3.752   7.746   2.096  0.2048  0.1820 -0.5205
14659SOL    HW148824   3.785   7.755   2.185  2.2399 -0.3577 -1.1582
14659SOL    HW248825   3.686   7.814   2.088 -0.7381 -0.3913  1.6850
14660SOL     OW48826   0.481   7.660   2.979  0.4265 -0.2036 -0.3771
14660SOL    HW148827   0.426   7.596   3.024 -0.3088  2.4288  2.7640
14660SOL    HW248828   0.567   7.618   2.973  0.3765 -1.0362  2.9450
14661SOL     OW48829   3.970   3.166   9.448 -0.6230  0.0233  0.3187
14661SOL    HW148830   4.039   3.229   9.427  1.0730 -1.1140  2.1418
14661SOL    HW248831   3.947   3.128   9.363  0.2399  1.1675 -0.4717
14662SOL     OW48832   5.204   4.050   3.384 -0.0699  0.5871 -0.1264
14662SOL    HW148833   5.213   4.130   3.436  1.0338  1.0960 -1.0461
14662SOL    HW248834   5.171   4.080   3.299 -2.9061 -0.3478  0.5354
14663SOL     OW48835   5.243   9.263   2.753  0.3401 -0.2794 -0.0002
14663SOL    HW148836   5.159   9.244   2.711  0.4185 -2.1379  0.6174
14663SOL    HW248837   5.234   9.353   2.783 -0.7635  0.1557 -1.4837
14664SOL     OW48838   5.421   1.078   0.529  0.1488  0.1299  0.3167
14664SOL    HW148839   5.415   1.152   0.468 -0.3316 -0.6588 -0.6149
14664SOL    HW248840   5.389   1.113   0.612  0.4477  1.1197  0.0291
14665SOL     OW48841   2.650   2.991   8.521  0.9085  0.0084  0.3708
14665SOL    HW148842   2.718   3.039   8.475  0.1887 -1.2318 -2.1538
14665SOL    HW248843   2.698   2.927   8.574  1.7401  0.9870  0.8295
14666SOL     OW48844   8.352   4.872   6.343  0.2658  0.2617  0.4491
14666SOL    HW148845   8.408   4.851   6.268  0.6968 -1.0583  1.1028
14666SOL    HW248846   8.275   4.817   6.331  0.6232 -0.4508  1.2808
14667SOL     OW48847   6.227   7.700   7.806 -0.8060  0.0456 -0.1502
14667SOL    HW148848   6.259   7.747   7.729 -0.4554 -0.4057 -0.2864
14667SOL    HW248849   6.258   7.610   7.793 -0.4423  0.0394  0.6842
14668SOL     OW48850   3.443   7.332   0.842 -0.2963 -0.1444  0.0324
14668SOL    HW148851   3.529   7.372   0.853  0.2770 -1.3267  0.0804
14668SOL    HW248852   3.416   7.357   0.754  0.5179 -0.5063 -0.3352
14669SOL     OW48853   1.261   3.571   6.635 -0.5211  1.0851 -0.8313
14669SOL    HW148854   1.210   3.496   6.665 -0.8189  1.1276 -1.2271
14669SOL    HW248855   1.347   3.559   6.675 -0.5921  0.5747 -0.8218
14670SOL     OW48856   7.815   2.253   1.999  0.2245  0.7944 -0.7011
14670SOL    HW148857   7.867   2.325   1.963  1.0042  0.3613 -0.4634
14670SOL    HW248858   7.845   2.245   2.089 -0.7179  0.9529 -0.3708
14671SOL     OW48859   1.829   5.971   7.622  0.5181  0.0220 -0.6029
14671SOL    HW148860   1.867   5.883   7.623 -1.7951 -1.0735 -1.6137
14671SOL    HW248861   1.742   5.961   7.661  1.2228  2.4865  1.9830
14672SOL     OW48862   3.757   9.311   3.346  0.1024 -0.0418 -0.6351
14672SOL    HW148863   3.804   9.231   3.323 -0.0258 -0.2924 -0.0551
14672SOL    HW248864   3.777   9.372   3.275 -1.1719 -1.1262 -1.9862
14673SOL     OW48865   8.034   9.477   5.670  0.3431 -0.1329 -0.9262
14673SOL    HW148866   7.942   9.468   5.692  0.2561  1.3410 -0.5711
14673SOL    HW248867   8.037   9.473   5.575 -0.2869  1.1737 -1.0265
14674SOL     OW48868   3.857   7.664   4.101  0.2915 -0.0981 -0.4573
14674SOL    HW148869   3.814   7.579   4.098 -0.5564  0.3189 -0.3614
14674SOL    HW248870   3.936   7.649   4.154 -0.4395 -0.5823  0.5372
14675SOL     OW48871   7.506   0.323   1.368  0.1425 -0.0596  0.2648
14675SOL    HW148872   7.439   0.333   1.300 -0.8895  0.6216  1.3360
14675SOL    HW248873   7.557   0.404   1.363  2.2168 -1.3803 -1.8543
14676SOL     OW48874   3.804   3.405   1.669  0.0295 -0.1705  0.5271
14676SOL    HW148875   3.802   3.494   1.634 -1.5931  0.5333  2.2000
14676SOL    HW248876   3.772   3.350   1.598  0.7296  0.6195 -0.4153
14677SOL     OW48877   4.864   4.060   7.755  0.1428  0.6154  0.3205
14677SOL    HW148878   4.878   4.078   7.848 -0.1144 -1.8352  0.8951
14677SOL    HW248879   4.950   4.073   7.715  1.3129 -2.1494  1.6566
14678SOL     OW48880   7.273   5.899   2.636  0.2364 -0.1298  0.0443
14678SOL    HW148881   7.196   5.865   2.682  1.2612  0.1127  2.0353
14678SOL    HW248882   7.327   5.822   2.619  1.1342  0.0738  1.7959
14679SOL     OW48883   4.096   4.269   1.777 -0.2851  0.3445  0.0865
14679SOL    HW148884   4.062   4.195   1.827 -1.1661  0.6626 -0.0350
14679SOL    HW248885   4.128   4.230   1.695  1.4542 -0.2243  0.9869
14680SOL     OW48886   9.393   5.252   0.824  0.0281 -0.3686 -0.0715
14680SOL    HW148887   9.438   5.334   0.848 -0.4539  0.0955 -0.6979
14680SOL    HW248888   9.380   5.260   0.729  1.2090 -1.7937 -0.3810
14681SOL     OW48889   6.987   3.958   1.018 -0.4489  0.0534 -0.5300
14681SOL    HW148890   7.057   4.021   1.000 -0.9725  0.5813 -0.7527
14681SOL    HW248891   7.027   3.873   1.002 -0.3096  0.4016 -2.3135
14682SOL     OW48892   7.118   6.697   3.286  0.0493 -0.1810 -0.1504
14682SOL    HW148893   7.074   6.658   3.211 -2.2222 -0.7781  1.3791
14682SOL    HW248894   7.068   6.666   3.362  0.6492  2.4350  1.4421
14683SOL     OW48895   5.747   5.553   5.530  0.0541 -0.1853  0.2075
14683SOL    HW148896   5.735   5.645   5.507 -1.9148 -0.4141  0.1449
14683SOL    HW248897   5.841   5.544   5.546  0.7799  1.1798 -2.5950
14684SOL     OW48898   3.740   1.088   4.939 -0.1848  0.0346  0.4092
14684SOL    HW148899   3.649   1.057   4.935 -0.4384  0.8045  0.0879
14684SOL    HW248900   3.738   1.175   4.898  1.1734 -1.0420 -2.2171
14685SOL     OW48901   1.588   7.211   0.584  0.3920 -0.4661  0.0334
14685SOL    HW148902   1.606   7.175   0.670  1.3573 -0.8985 -0.3444
14685SOL    HW248903   1.599   7.305   0.594  1.3329 -0.5920  0.1811
14686SOL     OW48904   6.194   2.007   4.915 -0.5719  0.8805  0.6631
14686SOL    HW148905   6.160   1.920   4.892  2.2303  0.2028 -1.5855
14686SOL    HW248906   6.158   2.065   4.849  0.0811  0.7444  0.1672
14687SOL     OW48907   7.113   3.919   7.874  0.0465  0.2171  0.0929
14687SOL    HW148908   7.143   3.858   7.807 -2.4223  0.0776 -0.9776
14687SOL    HW248909   7.079   3.864   7.944 -0.6377  0.3520 -0.1280
14688SOL     OW48910   7.411   8.415   4.930  0.5254 -0.1998 -0.1675
14688SOL    HW148911   7.433   8.345   4.867 -0.4807  0.5960 -1.4626
14688SOL    HW248912   7.318   8.400   4.950  0.8617 -0.5145  1.2736
14689SOL     OW48913   9.230   6.097   7.595 -0.0733 -0.7302  0.8996
14689SOL    HW148914   9.147   6.073   7.636  0.4513 -2.6372  0.9208
14689SOL    HW248915   9.249   6.025   7.535  0.9214  0.3260 -0.0950
14690SOL     OW48916   9.515   2.373   6.693  0.4901 -0.1262 -0.1703
14690SOL    HW148917   9.514   2.300   6.630 -1.5580 -1.4996  1.3373
14690SOL    HW248918   9.430   2.416   6.681  0.5214  0.2612  0.8965
14691SOL     OW48919   3.266   6.611   6.349  0.1328 -0.4470  0.6425
14691SOL    HW148920   3.197   6.622   6.284  0.0182  0.9513  0.9594
14691SOL    HW248921   3.330   6.554   6.307 -0.8425 -1.1389  0.0522
14692SOL     OW48922   2.854   1.849   5.202 -0.1765 -0.0290 -0.1966
14692SOL    HW148923   2.828   1.762   5.234 -0.1605 -0.2996 -0.8915
14692SOL    HW248924   2.775   1.884   5.161 -0.6629  0.9951  1.5199
14693SOL     OW48925   1.388   6.130   9.136 -0.1362 -0.6106  0.1134
14693SOL    HW148926   1.348   6.077   9.067 -2.2921  1.4554 -0.3372
14693SOL    HW248927   1.438   6.197   9.089  1.6933 -1.5174  0.6645
14694SOL     OW48928   4.578   0.799   0.588  0.5826 -0.1523 -0.6398
14694SOL    HW148929   4.555   0.881   0.632  1.6467 -0.2145  0.0603
14694SOL    HW248930   4.637   0.824   0.518  0.9484 -0.3276 -0.3947
14695SOL     OW48931   7.966   1.203   9.475 -0.6274 -0.4079  0.0107
14695SOL    HW148932   8.039   1.159   9.519  0.5903  1.5953  0.1400
14695SOL    HW248933   7.953   1.153   9.394 -0.0599 -1.6246  0.6405
14696SOL     OW48934   9.344   6.793   2.716 -0.4083 -0.0249  0.0698
14696SOL    HW148935   9.365   6.733   2.788 -1.8722 -1.1926 -0.4141
14696SOL    HW248936   9.253   6.818   2.731 -0.4265  0.4964 -0.8248
14697SOL     OW48937   5.745   2.732   7.058  0.3614 -0.1412  0.3410
14697SOL    HW148938   5.798   2.733   6.979 -1.0680  0.0078 -0.6565
14697SOL    HW248939   5.665   2.778   7.034  0.4171  1.1106  2.2706
14698SOL     OW48940   7.757   7.171   4.814  0.3287  0.6646 -0.0234
14698SOL    HW148941   7.677   7.220   4.836  0.4395  0.7360  0.2320
14698SOL    HW248942   7.827   7.236   4.821  0.3995  0.6200 -0.3249
14699SOL     OW48943   0.752   9.435   1.705 -0.1314  0.3035 -0.4884
14699SOL    HW148944   0.691   9.362   1.716 -1.1480  1.4852  3.1097
14699SOL    HW248945   0.824   9.416   1.766  0.6380  1.2925 -1.0562
14700SOL     OW48946   8.104   9.485   1.876  0.1768  0.2059 -0.3844
14700SOL    HW148947   8.166   9.488   1.950 -0.5044 -0.2410  0.2199
14700SOL    HW248948   8.094   9.392   1.856 -0.3923  0.2668 -0.3933
14701SOL     OW48949   2.944   1.561   0.824  0.2594 -0.1388 -0.3540
14701SOL    HW148950   2.876   1.605   0.773 -0.6262 -0.2821  0.6895
14701SOL    HW248951   2.921   1.577   0.915  1.0911 -0.9942  0.0274
14702SOL     OW48952   1.518   6.028   5.772  0.1960 -0.0492  0.4620
14702SOL    HW148953   1.597   6.082   5.761 -1.5963  2.6202 -0.4655
14702SOL    HW248954   1.506   6.023   5.867  0.9254  0.3908  0.5896
14703SOL     OW48955   6.875   1.402   4.699 -0.4107 -0.3838 -0.0050
14703SOL    HW148956   6.948   1.343   4.679 -1.2092 -0.7688 -1.9451
14703SOL    HW248957   6.907   1.488   4.675  0.2195 -0.1780  1.4286
14704SOL     OW48958   4.836   6.172   7.692 -0.2333 -0.3050  0.0110
14704SOL    HW148959   4.849   6.078   7.680  2.1511 -0.1443  0.7372
14704SOL    HW248960   4.846   6.209   7.604 -1.4748 -0.7414 -0.3231
14705SOL     OW48961   4.592   7.698   8.257 -0.0650  0.2965 -0.2361
14705SOL    HW148962   4.546   7.727   8.178 -0.3068 -1.5790 -0.8177
14705SOL    HW248963   4.522   7.677   8.319  0.1266  2.1327  0.6714
14706SOL     OW48964   4.981   2.608   0.626 -0.4026  0.1267 -0.4441
14706SOL    HW148965   4.956   2.636   0.714 -1.8104 -0.9679 -0.4659
14706SOL    HW248966   5.034   2.680   0.592 -2.0737  1.7694  0.3085
14707SOL     OW48967   5.536   9.414   1.753 -0.6823  0.3703 -0.3679
14707SOL    HW148968   5.559   9.413   1.846  2.7197  0.0185 -1.0739
14707SOL    HW248969   5.518   9.323   1.731 -0.4941  0.3043 -0.2496
14708SOL     OW48970   6.065   2.567   2.782 -0.4539 -0.3475 -0.3137
14708SOL    HW148971   6.130   2.499   2.765 -0.6279 -0.8240  0.8421
14708SOL    HW248972   6.020   2.578   2.698  1.1506  0.0667 -1.1745
14709SOL     OW48973   4.778   2.580   4.578 -0.0629  0.6704  0.7255
14709SOL    HW148974   4.696   2.533   4.596  0.1946  0.5365  1.5445
14709SOL    HW248975   4.842   2.511   4.562  0.3686  0.7111  2.1500
14710SOL     OW48976   7.617   8.282   9.504 -0.3082  0.8078  0.6391
14710SOL    HW148977   7.551   8.213   9.515 -0.2652  0.8940  1.5571
14710SOL    HW248978   7.589   8.329   9.426  0.0746 -0.6879 -0.4430
14711SOL     OW48979   7.149   7.352   6.182  0.5894  0.5627 -0.2056
14711SOL    HW148980   7.218   7.340   6.248  0.6379 -0.8718 -0.4939
14711SOL    HW248981   7.160   7.279   6.122 -0.8576  0.6087 -0.5593
14712SOL     OW48982   4.275   7.280   8.593 -0.6893 -0.0377  0.2403
14712SOL    HW148983   4.275   7.252   8.685 -1.8580 -0.4025  0.1525
14712SOL    HW248984   4.274   7.376   8.598 -3.1636  0.0005  0.7101
14713SOL     OW48985   3.117   4.381   6.349  0.3323 -0.0407  0.1652
14713SOL    HW148986   3.116   4.299   6.300 -0.2924 -0.3543  0.6949
14713SOL    HW248987   3.167   4.441   6.293  1.1980 -0.9032 -0.0090
14714SOL     OW48988   4.115   8.012   4.286  0.5721 -0.3246  0.3341
14714SOL    HW148989   4.034   8.036   4.331  0.7405 -1.0605  1.0504
14714SOL    HW248990   4.143   7.931   4.328  0.6502 -1.1461 -1.2218
14715SOL     OW48991   3.889   7.446   8.207 -0.1407  0.0712  0.3726
14715SOL    HW148992   3.832   7.371   8.223  0.8452 -0.6839  0.3960
14715SOL    HW248993   3.922   7.432   8.118  0.9490 -0.1284  0.8059
14716SOL     OW48994   4.235   4.789   6.517  0.2965 -0.4355 -0.0425
14716SOL    HW148995   4.183   4.735   6.575 -1.7661 -1.6403 -2.7917
14716SOL    HW248996   4.249   4.870   6.566 -1.2334 -1.3747  2.1159
14717SOL     OW48997   2.145   1.839   9.265 -0.0975 -0.5791 -0.1944
14717SOL    HW148998   2.093   1.818   9.343  1.3049  1.8812  1.5635
14717SOL    HW248999   2.226   1.789   9.277  0.0803 -0.2730 -0.1050
14718SOL     OW49000   5.074   8.812   3.158  0.1295 -0.0490  0.5387
14718SOL    HW149001   5.116   8.773   3.235  0.2614  2.2763  1.7547
14718SOL    HW249002   4.991   8.846   3.191  0.8895  2.4231  0.1318
14719SOL     OW49003   7.538   3.142   2.227  0.5662 -0.2034 -0.3251
14719SOL    HW149004   7.591   3.136   2.148  1.3370  0.7451  0.0944
14719SOL    HW249005   7.469   3.205   2.205 -0.3627 -1.3617 -0.8379
14720SOL     OW49006   7.366   4.342   1.256 -0.7296 -0.3898  0.0426
14720SOL    HW149007   7.383   4.357   1.349  0.2194 -0.7292 -0.0710
14720SOL    HW249008   7.414   4.411   1.211 -2.5029  0.7831 -0.1512
14721SOL     OW49009   4.430   9.178   2.218  0.4418  0.1292 -0.0943
14721SOL    HW149010   4.368   9.112   2.249  0.8597 -0.0654  0.3332
14721SOL    HW249011   4.514   9.153   2.256  0.8181  0.3074 -0.7942
14722SOL     OW49012   2.083   7.407   3.991  0.1118  0.3558 -0.5199
14722SOL    HW149013   2.055   7.323   3.955  0.6394 -0.8118  1.6245
14722SOL    HW249014   2.056   7.404   4.083  1.7752  1.7776  0.0712
14723SOL     OW49015   0.281   1.826   1.377 -0.3660 -0.1113  0.7400
14723SOL    HW149016   0.326   1.868   1.450  1.9274 -0.1215 -0.5712
14723SOL    HW249017   0.235   1.897   1.332  2.1308  0.8291 -0.5024
14724SOL     OW49018   0.741   5.042   1.889  0.1664 -0.7243  0.3710
14724SOL    HW149019   0.651   5.010   1.892 -0.8478  1.8183  4.1349
14724SOL    HW249020   0.736   5.123   1.839  0.5420 -0.9567 -0.0517
14725SOL     OW49021   0.016   4.515   5.428 -0.8418 -0.0502  0.7213
14725SOL    HW149022   0.009   4.610   5.429 -2.4147 -0.1492  0.7610
14725SOL    HW249023   0.011   4.489   5.520 -0.2934 -0.1748  0.7212
14726SOL     OW49024   1.104   7.535   1.651  0.3432  0.1415  0.2389
14726SOL    HW149025   1.173   7.502   1.708 -0.4861  1.5883  2.2215
14726SOL    HW249026   1.138   7.525   1.563  2.3236 -0.8337  1.0648
14727SOL     OW49027   7.151   7.269   5.198  0.0513  0.1273 -0.7088
14727SOL    HW149028   7.128   7.214   5.272 -2.4801 -0.3673 -1.7589
14727SOL    HW249029   7.246   7.264   5.193  0.2299 -0.4166  2.0030
14728SOL     OW49030   8.683   0.798   5.573 -0.0972  0.3928  0.1598
14728SOL    HW149031   8.710   0.734   5.507  0.0347 -1.0357  1.5145
14728SOL    HW249032   8.599   0.832   5.541 -0.5011 -0.9669 -0.3101
14729SOL     OW49033   1.546   3.617   5.877 -0.8019 -0.0560  0.1238
14729SOL    HW149034   1.460   3.592   5.912 -0.5647 -0.9195  0.1227
14729SOL    HW249035   1.536   3.612   5.782 -1.0040  0.7537  0.0953
14730SOL     OW49036   0.617   8.551   8.544 -0.3123  0.5895 -0.1797
14730SOL    HW149037   0.621   8.568   8.638 -1.8635  0.7062 -0.1080
14730SOL    HW249038   0.675   8.477   8.530  1.8470  2.0631  0.4693
14731SOL     OW49039   4.128   3.306   2.565  0.3272  0.5258 -0.3959
14731SOL    HW149040   4.143   3.212   2.552  0.0306  0.4500 -0.1999
14731SOL    HW249041   4.036   3.319   2.544  0.2342  0.6779  0.0757
14732SOL     OW49042   4.197   8.309   1.624 -0.7033 -0.6385  0.9118
14732SOL    HW149043   4.229   8.388   1.581 -0.3401  0.4246  2.9769
14732SOL    HW249044   4.247   8.238   1.586 -1.6845 -0.0444 -1.6695
14733SOL     OW49045   9.243   1.176   5.634 -0.2874 -0.4550  0.0327
14733SOL    HW149046   9.282   1.253   5.594  0.8146 -0.7658  0.4694
14733SOL    HW249047   9.286   1.169   5.719 -0.3908 -1.5355  0.0085
14734SOL     OW49048   5.422   8.125   1.150 -0.2124 -0.1854  0.6298
14734SOL    HW149049   5.391   8.113   1.240 -0.9927  1.3031  0.5937
14734SOL    HW249050   5.410   8.219   1.133 -0.4980 -0.5105 -1.1727
14735SOL     OW49051   1.194   2.821   5.334 -0.2589  0.2819  0.2042
14735SOL    HW149052   1.254   2.819   5.259 -0.4043  0.5349  0.0764
14735SOL    HW249053   1.246   2.856   5.406 -0.2887  0.6338  0.0573
14736SOL     OW49054   6.002   8.777   8.262 -0.9772 -0.1201  0.5693
14736SOL    HW149055   5.974   8.733   8.342  0.0613 -0.1207  0.9436
14736SOL    HW249056   6.092   8.748   8.249 -1.8704 -2.1132 -2.0049
14737SOL     OW49057   0.014   4.471   9.494 -1.1961  0.1534  0.0968
14737SOL    HW149058  -0.076   4.453   9.520 -1.6376  0.3196 -1.2563
14737SOL    HW249059   0.011   4.556   9.452 -0.2437  0.5287  0.7463
14738SOL     OW49060   2.517   8.103   7.850 -0.3833 -0.8580  0.0833
14738SOL    HW149061   2.562   8.047   7.914  0.7823  0.0730  0.1027
14738SOL    HW249062   2.427   8.069   7.849 -0.1821 -1.5280  1.4783
14739SOL     OW49063   2.692   3.115   8.951  0.0682  0.3533 -0.1960
14739SOL    HW149064   2.732   3.065   9.021  0.8445  0.0364 -0.8512
14739SOL    HW249065   2.723   3.205   8.965 -0.4701  0.4611  0.3548
14740SOL     OW49066   8.891   4.158   1.470  0.6434  0.0746  0.4108
14740SOL    HW149067   8.933   4.160   1.556  0.2747  1.5678  0.5791
14740SOL    HW249068   8.810   4.207   1.482  0.3471 -0.1215 -0.6817
14741SOL     OW49069   8.733   4.408   1.544  0.5207 -0.1605  0.4020
14741SOL    HW149070   8.752   4.349   1.617 -1.1858 -1.9986 -0.5571
14741SOL    HW249071   8.646   4.443   1.563  0.0784 -0.6125 -0.6767
14742SOL     OW49072   3.556   2.020   5.993 -1.0027 -0.5235 -0.1125
14742SOL    HW149073   3.511   2.105   5.987  0.0122 -0.0266 -1.2704
14742SOL    HW249074   3.563   1.991   5.902  2.8805  0.4885 -0.2987
14743SOL     OW49075   0.713   4.399   2.700 -0.0571 -0.2492  0.6606
14743SOL    HW149076   0.697   4.407   2.606  0.0681 -1.1350  0.5617
14743SOL    HW249077   0.779   4.331   2.708  1.0689  0.8673  1.3115
14744SOL     OW49078   5.513   0.221   5.210  0.2989  0.5347 -0.0266
14744SOL    HW149079   5.537   0.137   5.171 -1.3432 -0.1363  0.3329
14744SOL    HW249080   5.462   0.198   5.288  0.5858  1.8716  0.5811
14745SOL     OW49081   9.595   4.552   1.119  0.1724 -0.2343 -0.4800
14745SOL    HW149082   9.646   4.480   1.083 -0.6908 -0.8405 -0.5028
14745SOL    HW249083   9.628   4.630   1.074  0.6000 -0.7098 -0.9935
14746SOL     OW49084   7.237   7.320   0.079  0.2619 -0.0082  0.1748
14746SOL    HW149085   7.185   7.391   0.114  1.1039  1.1773 -0.8849
14746SOL    HW249086   7.179   7.276   0.016 -0.3685 -0.4940  1.0809
14747SOL     OW49087   0.628   5.089   7.681 -0.5197  0.9741  0.1151
14747SOL    HW149088   0.639   5.178   7.714  1.4760  1.2175 -1.0654
14747SOL    HW249089   0.695   5.079   7.614 -2.2374 -0.6353 -1.4953
14748SOL     OW49090   4.614   8.781   2.230 -0.5612  0.2328 -0.0592
14748SOL    HW149091   4.707   8.804   2.225 -0.4346 -0.2668 -0.1006
14748SOL    HW249092   4.598   8.764   2.323 -1.1872  2.5820  0.3321
14749SOL     OW49093   3.659   8.866   7.841 -0.1298 -0.5282 -0.1978
14749SOL    HW149094   3.577   8.914   7.857  0.7901  0.5259  1.7208
14749SOL    HW249095   3.673   8.815   7.920  2.0801  0.8970  0.4242
14750SOL     OW49096   1.256   4.397   1.450  0.5985 -0.4916  0.0426
14750SOL    HW149097   1.258   4.490   1.428  0.6072 -0.7945 -1.3450
14750SOL    HW249098   1.345   4.366   1.436  0.4413 -0.8468 -0.2111
14751SOL     OW49099   1.503   6.584   1.600 -0.1749 -0.4475 -0.2648
14751SOL    HW149100   1.423   6.541   1.630 -1.5039  2.6075  1.0664
14751SOL    HW249101   1.472   6.662   1.554  2.0672  0.0798 -1.0098
14752SOL     OW49102   7.430   4.758   0.410  0.1011 -0.0494  0.0388
14752SOL    HW149103   7.426   4.665   0.432  2.0155 -0.1887 -0.0170
14752SOL    HW249104   7.341   4.780   0.383 -0.4695 -1.7812  0.3647
14753SOL     OW49105   8.770   7.299   8.900 -0.2313  0.0711 -0.1511
14753SOL    HW149106   8.826   7.324   8.974  1.8132 -1.0920 -1.2332
14753SOL    HW249107   8.759   7.380   8.850 -1.8645  0.9411  1.4913
14754SOL     OW49108   9.147   3.610   2.089 -0.3266 -0.4177 -0.1937
14754SOL    HW149109   9.198   3.545   2.041  1.0111  0.8895 -0.6286
14754SOL    HW249110   9.206   3.641   2.157 -1.1953 -0.1631  0.4564
14755SOL     OW49111   0.474   2.474   7.804 -0.1598 -0.4453  0.4459
14755SOL    HW149112   0.434   2.558   7.828  0.0077 -0.1788 -0.1792
14755SOL    HW249113   0.432   2.450   7.722  1.1641  0.0113 -0.4086
14756SOL     OW49114   3.127   2.482   9.259  0.0639 -0.1418 -0.0953
14756SOL    HW149115   3.142   2.576   9.247  0.7367 -0.4758 -2.4263
14756SOL    HW249116   3.195   2.454   9.320 -1.4739  1.2086  2.3454
14757SOL     OW49117   4.565   4.905   7.418 -0.8478  0.4508 -0.0060
14757SOL    HW149118   4.579   4.834   7.480  0.7384  0.8818  0.1624
14757SOL    HW249119   4.608   4.876   7.338  1.0091  1.7260  0.4624
14758SOL     OW49120   8.829   2.403   9.518  0.3299 -0.0452  0.5994
14758SOL    HW149121   8.778   2.463   9.463  2.0810  0.4456 -0.5530
14758SOL    HW249122   8.880   2.460   9.575  1.6127 -0.4041 -0.1396
14759SOL     OW49123   6.533   4.971   0.468 -0.0453 -0.2062  0.1696
14759SOL    HW149124   6.533   4.889   0.517  0.6523 -1.2829 -1.5542
14759SOL    HW249125   6.490   5.034   0.527 -0.3886 -1.7264  1.6217
14760SOL     OW49126   1.315   3.905   0.514  0.1849  0.2264  0.2368
14760SOL    HW149127   1.232   3.859   0.524  0.2356  0.2349  0.7185
14760SOL    HW249128   1.368   3.848   0.458  0.2903 -0.3545  0.9200
14761SOL     OW49129   2.012   0.928   9.549 -0.2423  0.3165  0.6036
14761SOL    HW149130   2.066   0.980   9.610  0.9229 -0.0965 -0.0379
14761SOL    HW249131   1.922   0.948   9.574  0.1971  0.1528  2.4634
14762SOL     OW49132   2.009   2.978   6.055 -0.4048  0.2055  0.0290
14762SOL    HW149133   2.003   3.060   6.007  2.3069  0.7475  0.4119
14762SOL    HW249134   1.931   2.976   6.110 -1.2328  1.8247 -1.0246
14763SOL     OW49135   4.267   9.143   7.028 -0.3528  0.0762  0.0515
14763SOL    HW149136   4.332   9.084   6.990 -0.6218  0.1161 -0.4788
14763SOL    HW249137   4.184   9.114   6.990 -0.3270  1.6857 -1.3439
14764SOL     OW49138   1.369   6.728   6.967 -0.1905  0.0432  0.3914
14764SOL    HW149139   1.397   6.801   6.911  2.6375 -1.4066 -0.3016
14764SOL    HW249140   1.286   6.756   7.004 -0.7133  2.3370 -2.1995
14765SOL     OW49141   8.153   4.011   9.024 -0.4678 -0.4994 -0.1373
14765SOL    HW149142   8.136   3.994   9.117 -0.3625  2.9997  0.6647
14765SOL    HW249143   8.077   3.975   8.979 -2.2357  0.6369  1.7176
14766SOL     OW49144   2.215   2.963   0.481  0.3378 -0.0353  0.1650
14766SOL    HW149145   2.214   2.916   0.397 -0.8148 -1.0964  0.7332
14766SOL    HW249146   2.291   2.928   0.527  0.4896 -0.0683 -0.1057
14767SOL     OW49147   2.955   0.451   0.546 -0.7846  0.0025 -0.0976
14767SOL    HW149148   2.958   0.545   0.530 -1.4196 -0.1434 -1.1412
14767SOL    HW249149   2.914   0.442   0.632  0.5756  0.7141  0.6678
14768SOL     OW49150   7.230   6.993   6.332  0.0703  0.2054 -0.0802
14768SOL    HW149151   7.144   6.986   6.289  0.4773 -0.8687 -0.7662
14768SOL    HW249152   7.223   6.938   6.410 -0.5072  1.7651  1.0242
14769SOL     OW49153   1.652   6.785   6.126 -0.1699 -0.3443  0.4436
14769SOL    HW149154   1.638   6.879   6.135  1.6089 -0.0402  0.4497
14769SOL    HW249155   1.739   6.770   6.165  0.0971 -1.7877 -0.6161
14770SOL     OW49156   3.690   6.044   5.064  0.0677  0.6574  0.0168
14770SOL    HW149157   3.679   5.972   5.126 -0.9283  2.4043  1.9778
14770SOL    HW249158   3.740   6.005   4.992  1.3493 -1.4873  1.8942
14771SOL     OW49159   1.316   7.566   4.747 -0.0339 -0.4185  0.0019
14771SOL    HW149160   1.234   7.548   4.793  0.1575  2.7396  1.8408
14771SOL    HW249161   1.290   7.578   4.655 -1.6651  0.4823  0.5372
14772SOL     OW49162   0.670   7.241   2.826  0.0504 -0.1049 -0.2756
14772SOL    HW149163   0.703   7.331   2.832 -1.1164  0.2686  1.1176
14772SOL    HW249164   0.745   7.190   2.796  1.2977  1.0424  0.7383
14773SOL     OW49165   0.610   0.903   2.770 -0.0472 -0.4722  0.1628
14773SOL    HW149166   0.549   0.892   2.843  0.5064 -1.1740  0.5314
14773SOL    HW249167   0.681   0.841   2.788  0.4272 -0.1770 -0.6260
14774SOL     OW49168   9.226   4.609   3.592 -0.0716 -0.0221  0.4714
14774SOL    HW149169   9.203   4.525   3.552 -2.8130  1.7608 -2.0405
14774SOL    HW249170   9.143   4.656   3.598  1.6139  3.2911 -0.1371
14775SOL     OW49171   0.533   0.486   5.633 -0.2859  0.1962 -0.4500
14775SOL    HW149172   0.624   0.500   5.661  0.0570  0.3256 -1.5664
14775SOL    HW249173   0.485   0.562   5.667 -0.4843 -0.9817  2.1363
14776SOL     OW49174   3.597   7.660   0.620  0.7464 -0.7712  0.5923
14776SOL    HW149175   3.511   7.651   0.577  0.2431 -1.0357  1.6267
14776SOL    HW249176   3.654   7.601   0.571  0.9996  1.1737 -1.6879
14777SOL     OW49177   4.081   7.105   3.057  0.4136  0.6804 -0.7041
14777SOL    HW149178   4.117   7.024   3.093 -3.6833 -1.8465 -1.5737
14777SOL    HW249179   4.114   7.108   2.967  2.2481  1.2180 -0.0539
14778SOL     OW49180   1.164   6.578   8.189  0.3669  0.2908  0.3262
14778SOL    HW149181   1.181   6.663   8.148  1.2472  0.3419  0.7830
14778SOL    HW249182   1.152   6.518   8.116 -0.2083  0.7958 -0.0021
14779SOL     OW49183   6.473   8.481   1.278 -0.2379 -0.6185 -0.6470
14779SOL    HW149184   6.526   8.533   1.218  1.7530 -1.2354  0.4870
14779SOL    HW249185   6.486   8.391   1.250 -1.5450 -0.7242 -0.9768
14780SOL     OW49186   0.745   6.631   3.694 -0.2266 -0.2971  0.3523
14780SOL    HW149187   0.768   6.631   3.787  1.6301 -0.0922 -0.0596
14780SOL    HW249188   0.774   6.717   3.663 -1.8359  0.0697 -0.2112
14781SOL     OW49189   5.735   9.200   4.955 -0.3144 -0.2996 -0.2308
14781SOL    HW149190   5.673   9.179   4.886 -0.9510 -1.2409  0.6025
14781SOL    HW249191   5.682   9.209   5.034  0.5896 -1.0138  0.4820
14782SOL     OW49192   2.037   1.735   9.516 -0.0705  0.4587  0.4596
14782SOL    HW149193   2.076   1.690   9.591 -0.0608  1.2682  0.9509
14782SOL    HW249194   2.001   1.816   9.552  0.0997  0.9496 -0.4367
14783SOL     OW49195   2.972   6.573   7.502 -0.6388  0.1453 -0.4533
14783SOL    HW149196   2.885   6.608   7.481  0.0788  1.1087 -2.0604
14783SOL    HW249197   3.032   6.646   7.483  0.3393  0.7975  3.9858
14784SOL     OW49198   1.247   8.067   2.060  0.3277 -0.2948  0.2118
14784SOL    HW149199   1.179   8.088   1.997  1.0134 -0.5614 -0.6360
14784SOL    HW249200   1.207   8.083   2.145 -0.8238 -0.5598 -0.2655
14785SOL     OW49201   2.953   6.084   9.195 -0.2911  0.0407 -0.1956
14785SOL    HW149202   2.880   6.144   9.183  0.7694  1.5833  0.7989
14785SOL    HW249203   3.011   6.101   9.122 -0.2610 -0.2162 -0.2345
14786SOL     OW49204   2.961   1.318   1.574  0.4399  0.1149 -0.2146
14786SOL    HW149205   2.927   1.235   1.606  1.1495 -1.4695 -3.1970
14786SOL    HW249206   3.056   1.312   1.588  0.3423  1.3064  1.2540
14787SOL     OW49207   3.388   3.691   2.133  0.1222  0.3193  0.6409
14787SOL    HW149208   3.394   3.716   2.226 -2.1837 -0.9922  1.2164
14787SOL    HW249209   3.383   3.596   2.134 -0.2713  0.3068 -0.8205
14788SOL     OW49210   7.249   0.496   6.661  0.1375  0.7946  0.2529
14788SOL    HW149211   7.328   0.469   6.615 -0.4669 -3.0790  1.1042
14788SOL    HW249212   7.196   0.416   6.667 -1.9570  2.1926  3.3779
14789SOL     OW49213   3.403   5.348   4.020 -0.0874  1.1106  0.0836
14789SOL    HW149214   3.466   5.379   4.085 -0.6649  0.4344  0.9773
14789SOL    HW249215   3.456   5.300   3.956  0.4001  1.2089  0.4092
14790SOL     OW49216   1.896   3.628   7.995 -0.0346 -0.5416 -0.0660
14790SOL    HW149217   1.984   3.666   8.009 -0.0821 -0.7301  0.7889
14790SOL    HW249218   1.909   3.534   8.004 -0.0625 -0.6913 -1.4255
14791SOL     OW49219   8.611   2.043   3.975  0.3376  0.2166 -0.5340
14791SOL    HW149220   8.592   1.957   3.939  0.1541 -0.6125  1.4302
14791SOL    HW249221   8.527   2.090   3.973 -0.1327 -0.5399  0.6217
14792SOL     OW49222   6.310   2.917   4.630  0.0860  0.0958  0.4800
14792SOL    HW149223   6.262   2.835   4.642 -1.9697  1.1417 -0.2260
14792SOL    HW249224   6.306   2.933   4.536 -0.4914  1.5465  0.7315
14793SOL     OW49225   9.030   6.411   7.906 -0.5483  1.1100 -1.1370
14793SOL    HW149226   9.034   6.501   7.939 -0.0545  0.1055  1.8821
14793SOL    HW249227   8.937   6.395   7.893 -0.8969  1.3481  0.7268
14794SOL     OW49228   8.049   4.781   6.802  0.1068  0.2167  0.0302
14794SOL    HW149229   8.072   4.848   6.737 -1.4846  0.1592 -0.6391
14794SOL    HW249230   8.030   4.703   6.751 -0.3817 -0.0616  0.6202
14795SOL     OW49231   6.407   3.848   6.068 -0.0070  0.2879 -0.3382
14795SOL    HW149232   6.499   3.822   6.066  0.1379  0.8237 -2.3405
14795SOL    HW249233   6.372   3.803   6.145  2.1535  0.9495  1.1615
14796SOL     OW49234   2.244   5.300   6.585  0.0317  0.1775 -0.3339
14796SOL    HW149235   2.273   5.209   6.581  0.2760  0.1554  1.2025
14796SOL    HW249236   2.294   5.338   6.658 -2.9621  0.4267  1.7751
14797SOL     OW49237   1.248   2.197   9.261  0.7247  0.2661 -0.0576
14797SOL    HW149238   1.264   2.269   9.322  1.3893 -0.3029  0.4746
14797SOL    HW249239   1.155   2.201   9.242  0.8980  1.7535 -0.6818
14798SOL     OW49240   6.551   3.259   1.173 -0.1912  0.0331  0.0703
14798SOL    HW149241   6.624   3.247   1.233 -0.2152 -0.3619  0.0242
14798SOL    HW249242   6.536   3.354   1.171 -0.9946 -0.0354  1.6364
14799SOL     OW49243   1.957   5.734   0.592 -0.2056  0.2220 -0.1751
14799SOL    HW149244   1.933   5.696   0.507  0.7644 -0.6258 -0.0841
14799SOL    HW249245   2.040   5.779   0.575 -0.9462  1.6882 -0.0975
14800SOL     OW49246   1.878   2.155   0.986 -0.1106  0.0610  0.0080
14800SOL    HW149247   1.971   2.148   0.967  0.3240  0.9491  1.6226
14800SOL    HW249248   1.835   2.121   0.908  1.5457  0.7725 -1.2771
14801SOL     OW49249   2.508   7.390   4.058 -0.2081 -0.1682 -0.6053
14801SOL    HW149250   2.518   7.328   3.986  1.4598  0.9381 -1.3820
14801SOL    HW249251   2.468   7.467   4.019  0.9290  0.5346 -0.4236
14802SOL     OW49252   1.338   5.132   1.182 -0.2327 -0.3241 -0.0610
14802SOL    HW149253   1.275   5.073   1.141  0.9863 -1.8378  0.1704
14802SOL    HW249254   1.358   5.091   1.266  1.2122  0.0176 -0.2250
14803SOL     OW49255   0.046   2.212   7.180  0.6029  0.2030 -0.0495
14803SOL    HW149256   0.010   2.278   7.239 -0.6639  0.7242 -1.3266
14803SOL    HW249257   0.042   2.254   7.094 -0.9648 -1.7725 -1.0300
14804SOL     OW49258   6.314   2.106   6.168  0.2312 -0.2905  0.0484
14804SOL    HW149259   6.331   2.036   6.231 -0.0035 -0.1808  0.2340
14804SOL    HW249260   6.231   2.081   6.127  0.3642 -0.3423 -0.1894
14805SOL     OW49261   0.872   6.527   0.541 -0.8336 -0.2158  0.1309
14805SOL    HW149262   0.779   6.551   0.538 -0.9276 -0.6048 -0.1204
14805SOL    HW249263   0.872   6.431   0.542 -0.4484 -0.2108  0.7248
14806SOL     OW49264   7.906   8.511   5.230 -0.0730 -0.0226  0.0974
14806SOL    HW149265   7.968   8.544   5.295 -0.6814  1.8666 -0.2135
14806SOL    HW249266   7.872   8.430   5.268  0.8757  0.1336  1.3288
14807SOL     OW49267   4.298   4.928   5.983  0.6043  0.2911  0.4691
14807SOL    HW149268   4.308   4.916   6.078  0.9526  0.3582  0.4439
14807SOL    HW249269   4.205   4.948   5.971  0.1156 -1.7653  0.5580
14808SOL     OW49270   7.413   9.404   4.139  0.1168 -1.0484 -0.2516
14808SOL    HW149271   7.441   9.312   4.134  1.2096 -0.6525 -1.9346
14808SOL    HW249272   7.357   9.416   4.063 -0.3888 -0.4106  0.2082
14809SOL     OW49273   2.803   7.374   3.201  0.3549 -0.0027  0.9579
14809SOL    HW149274   2.862   7.308   3.165 -1.3686 -1.5285  0.7692
14809SOL    HW249275   2.815   7.368   3.296 -1.5446 -2.4511  1.1335
14810SOL     OW49276   3.249   1.995   8.745 -0.2399  0.0000  0.2865
14810SOL    HW149277   3.223   2.055   8.815 -1.6729  0.2138 -0.4106
14810SOL    HW249278   3.296   2.050   8.683  0.6941 -0.1184  0.8550
14811SOL     OW49279   2.912   7.395   2.404  0.0126 -0.1294  0.1242
14811SOL    HW149280   2.820   7.376   2.382  0.1491 -0.4382 -0.1825
14811SOL    HW249281   2.911   7.488   2.428  0.0924  0.6700 -2.6172
14812SOL     OW49282   0.570   0.782   9.465  0.3263  0.3505  0.0404
14812SOL    HW149283   0.561   0.799   9.558  2.6079 -0.0567  0.3899
14812SOL    HW249284   0.664   0.769   9.451 -0.1256 -1.6028 -1.9517
14813SOL     OW49285   0.063   5.689   5.088 -0.1155  0.0529 -0.0323
14813SOL    HW149286   0.114   5.693   5.007  0.9417  0.4588  0.6455
14813SOL    HW249287   0.035   5.597   5.093  1.2588 -0.3870  0.0047
14814SOL     OW49288   9.402   1.175   1.287 -0.1544 -0.1440  0.0121
14814SOL    HW149289   9.323   1.189   1.338 -0.1602  0.6657 -0.2005
14814SOL    HW249290   9.379   1.108   1.222 -0.3976 -0.5464  0.5121
14815SOL     OW49291   7.675   3.460   0.524 -0.8308  0.3240  0.0515
14815SOL    HW149292   7.646   3.451   0.615 -0.2618 -0.6024  0.1510
14815SOL    HW249293   7.754   3.407   0.518 -1.0281  0.1250 -1.0688
14816SOL     OW49294   7.546   5.160   0.945  0.6320 -0.1552  0.1720
14816SOL    HW149295   7.581   5.194   1.027 -0.3721  1.6641 -0.0810
14816SOL    HW249296   7.514   5.073   0.966  0.5536  0.2149  1.6793
14817SOL     OW49297   6.730   9.102   5.936  0.1803 -0.3934 -0.0244
14817SOL    HW149298   6.729   9.010   5.959  1.4375 -0.3351  0.3618
14817SOL    HW249299   6.639   9.124   5.915 -0.4094 -1.3046  1.5090
14818SOL     OW49300   9.453   8.407   1.977 -0.3474 -0.3710  0.3954
14818SOL    HW149301   9.363   8.427   2.005 -0.1157 -1.0377  1.7139
14818SOL    HW249302   9.508   8.436   2.050  0.4770 -0.3163 -0.2377
14819SOL     OW49303   0.463   3.395   2.229  0.5138  0.1278 -0.2700
14819SOL    HW149304   0.505   3.454   2.167 -0.0655 -0.4698 -1.2520
14819SOL    HW249305   0.535   3.344   2.267  0.7910 -0.0863 -1.0787
14820SOL     OW49306   3.176   7.607   6.829  0.1841 -0.5091 -0.9065
14820SOL    HW149307   3.145   7.661   6.756  2.3156  0.0724 -1.4437
14820SOL    HW249308   3.252   7.653   6.863 -0.4660 -1.0187  1.4262
14821SOL     OW49309   1.280   1.115   1.282 -0.0495  0.0283  0.3597
14821SOL    HW149310   1.225   1.120   1.204  0.3946 -0.4422  0.0100
14821SOL    HW249311   1.370   1.113   1.249  0.1278 -0.6438  0.8485
14822SOL     OW49312   3.332   0.534   0.307  0.3566  0.2959  0.2758
14822SOL    HW149313   3.332   0.612   0.361 -0.9523 -0.1356  0.9386
14822SOL    HW249314   3.398   0.551   0.239 -0.0899  2.0636  0.2546
14823SOL     OW49315   6.049   4.876   9.597  0.6868  0.0786 -0.5077
14823SOL    HW149316   5.974   4.900   9.652  0.2448 -0.1620 -0.9916
14823SOL    HW249317   6.014   4.878   9.508  0.8925 -1.4037 -0.6362
14824SOL     OW49318   7.670   4.990   8.985  0.3620  0.3114 -0.5035
14824SOL    HW149319   7.764   4.999   9.002 -0.0114  0.7963  1.6867
14824SOL    HW249320   7.664   4.930   8.911  2.3980 -0.0523 -0.4255
14825SOL     OW49321   3.603   8.415   6.612 -0.0436 -0.0141  0.0180
14825SOL    HW149322   3.547   8.348   6.571 -1.6479  1.3562 -0.1562
14825SOL    HW249323   3.657   8.448   6.540  0.8316 -1.1402  0.1233
14826SOL     OW49324   9.133   3.358   1.794 -0.1132  0.7681  0.3304
14826SOL    HW149325   9.187   3.436   1.804  0.8851  0.0360  0.9576
14826SOL    HW249326   9.047   3.383   1.828  0.0852  1.7001  0.1662
14827SOL     OW49327   9.397   0.115   3.792 -0.1462 -0.1278  0.4179
14827SOL    HW149328   9.453   0.186   3.760 -0.0561  0.1844  1.2584
14827SOL    HW249329   9.445   0.076   3.865  0.3428 -1.8369 -0.7488
14828SOL     OW49330   7.117   8.716   8.533  0.2982  0.7427 -0.4165
14828SOL    HW149331   7.138   8.676   8.617 -0.5677  2.2552  0.5849
14828SOL    HW249332   7.195   8.705   8.480 -0.3930 -3.6711 -0.8677
14829SOL     OW49333   9.299   2.049   1.761  0.0496  0.1405 -0.8862
14829SOL    HW149334   9.237   2.050   1.834  1.1766 -1.1147  0.1423
14829SOL    HW249335   9.258   1.991   1.696  0.9136 -2.2822  0.5905
14830SOL     OW49336   2.240   2.087   6.738  0.3853 -0.5197  0.4495
14830SOL    HW149337   2.313   2.056   6.684 -0.2730 -0.3027 -0.5970
14830SOL    HW249338   2.280   2.109   6.822  1.5471 -0.2789 -0.1426
14831SOL     OW49339   3.696   7.341   2.351  0.2234 -0.3140 -0.2436
14831SOL    HW149340   3.640   7.414   2.378  0.2044 -0.2160 -0.5385
14831SOL    HW249341   3.758   7.330   2.423  0.4263  0.2053 -0.3342
14832SOL     OW49342   2.136   3.055   2.356  1.0168 -0.3398 -0.7355
14832SOL    HW149343   2.181   3.133   2.389  0.8237  0.1304 -1.5555
14832SOL    HW249344   2.174   2.983   2.407  1.0999  0.2939  0.1283
14833SOL     OW49345   1.588   1.249   8.694  0.1581 -0.1912  0.2769
14833SOL    HW149346   1.669   1.290   8.727 -0.2403 -1.0424  2.5445
14833SOL    HW249347   1.619   1.178   8.637  0.9617  0.3748 -0.0165
14834SOL     OW49348   1.749   4.477   4.581  0.3656  0.0311  0.0813
14834SOL    HW149349   1.828   4.451   4.628  0.4428  1.9832  1.1161
14834SOL    HW249350   1.678   4.458   4.643  0.3554  1.4519  0.5281
14835SOL     OW49351   4.442   8.863   4.165 -0.4360  0.6141 -0.0770
14835SOL    HW149352   4.483   8.939   4.206 -1.0515  0.6230  0.5445
14835SOL    HW249353   4.420   8.805   4.238  0.7904 -0.5669 -0.5918
14836SOL     OW49354   5.462   6.111   7.719 -0.0453  0.4492 -0.0063
14836SOL    HW149355   5.426   6.025   7.700  0.2903  0.0160  1.2450
14836SOL    HW249356   5.524   6.127   7.648  0.6822 -0.8264  0.3042
14837SOL     OW49357   0.282   0.107   3.057 -0.0679 -0.1716  0.1315
14837SOL    HW149358   0.228   0.082   2.982 -0.5303 -0.3287  0.5104
14837SOL    HW249359   0.219   0.134   3.123  0.3963  2.5669 -0.4268
14838SOL     OW49360   5.474   8.387   7.694 -0.3749 -0.3014 -0.0715
14838SOL    HW149361   5.525   8.311   7.668 -1.1434 -1.6299  2.0705
14838SOL    HW249362   5.387   8.352   7.715 -1.5933  1.5733 -1.5265
14839SOL     OW49363   2.540   1.827   7.950  0.4542 -0.1000  0.5582
14839SOL    HW149364   2.474   1.763   7.977  0.6989  0.4445  2.5523
14839SOL    HW249365   2.583   1.853   8.031  0.2605  2.7150 -0.1475
14840SOL     OW49366   1.447   1.709   7.223  1.1388  0.6934 -0.0430
14840SOL    HW149367   1.501   1.778   7.185  2.0096 -0.8923 -1.8682
14840SOL    HW249368   1.376   1.697   7.160  1.0480 -0.1267  0.2003
14841SOL     OW49369   9.355   4.959   2.194  0.4700  0.0313 -0.3197
14841SOL    HW149370   9.358   5.055   2.203  0.5144  0.0673 -0.6791
14841SOL    HW249371   9.320   4.928   2.277 -5.0162  0.7318 -1.9657
14842SOL     OW49372   9.025   1.376   0.430 -0.6291  0.5628  0.2052
14842SOL    HW149373   9.025   1.388   0.525 -2.4100 -1.9707  0.6353
14842SOL    HW249374   8.933   1.359   0.409  0.1781 -2.5747 -1.3572
14843SOL     OW49375   3.347   4.343   0.423 -0.3472 -0.3704 -0.4467
14843SOL    HW149376   3.338   4.304   0.336  3.1344  0.2558 -1.2589
14843SOL    HW249377   3.329   4.436   0.409  1.7577  0.0233 -0.9842
14844SOL     OW49378   7.187   1.553   4.720  0.5041  0.2873 -0.4895
14844SOL    HW149379   7.202   1.528   4.811  0.9001  0.2721 -0.5560
14844SOL    HW249380   7.092   1.553   4.710  0.4624  0.2301 -0.0928
14845SOL     OW49381   6.189   6.467   7.325  0.2326 -0.0763  0.1376
14845SOL    HW149382   6.197   6.407   7.400 -0.2297 -1.2730 -0.7527
14845SOL    HW249383   6.260   6.441   7.266  0.4053  0.6709 -0.0028
14846SOL     OW49384   4.576   0.533   1.697  0.3634 -0.0931 -0.7237
14846SOL    HW149385   4.631   0.551   1.774  0.2107  1.6422 -0.9641
14846SOL    HW249386   4.562   0.439   1.699  1.9708 -0.3540  0.2777
14847SOL     OW49387   3.600   1.546   1.680 -0.3648  0.1822 -0.7092
14847SOL    HW149388   3.559   1.602   1.615  0.8860  0.0187 -1.6783
14847SOL    HW249389   3.573   1.457   1.657 -1.2398  0.2498  0.0022
14848SOL     OW49390   5.399   0.786   2.313  0.4952  0.1305 -0.6280
14848SOL    HW149391   5.390   0.862   2.369 -1.7738 -0.2372 -0.4008
14848SOL    HW249392   5.481   0.745   2.340 -0.3444  0.1282  2.2491
14849SOL     OW49393   2.902   0.315   4.648  0.0951 -0.1147 -0.1927
14849SOL    HW149394   2.884   0.404   4.679 -1.9854 -0.9040  1.0519
14849SOL    HW249395   2.869   0.258   4.717 -0.3640 -1.8876 -1.7896
14850SOL     OW49396   8.430   9.614   7.134 -0.5692  0.6510 -0.0465
14850SOL    HW149397   8.419   9.699   7.093  0.6558  0.7374 -0.2523
14850SOL    HW249398   8.524   9.609   7.154 -0.7130 -0.4179  0.4578
14851SOL     OW49399   3.245   9.210   4.826 -0.0695 -0.0252 -0.3030
14851SOL    HW149400   3.324   9.239   4.780  0.9834 -0.2641  1.2527
14851SOL    HW249401   3.240   9.268   4.903 -0.6083 -0.9086  0.3538
14852SOL     OW49402   2.887   1.279   3.957  0.2365  0.2959 -0.5090
14852SOL    HW149403   2.914   1.190   3.977 -2.6351 -0.6400 -0.2573
14852SOL    HW249404   2.903   1.328   4.038 -1.2096 -0.8398  0.5162
14853SOL     OW49405   8.918   7.365   9.133 -0.0544 -0.6498 -0.0381
14853SOL    HW149406   8.994   7.309   9.146  0.3025 -0.1590  0.0064
14853SOL    HW249407   8.901   7.403   9.220  0.3210  0.0864 -0.2795
14854SOL     OW49408   9.582   3.680   4.761 -0.5582  0.6714  0.1257
14854SOL    HW149409   9.553   3.771   4.759 -0.5655  0.7494  2.3263
14854SOL    HW249410   9.516   3.634   4.812 -0.4270 -0.5427 -0.7527
14855SOL     OW49411   3.343   2.193   2.007  0.3695  0.1951  0.2815
14855SOL    HW149412   3.353   2.109   1.962  2.3083  1.3183 -1.5629
14855SOL    HW249413   3.411   2.192   2.074 -0.3056 -0.0910  0.9849
14856SOL     OW49414   4.763   2.296   4.488  0.4974  0.0129 -0.2671
14856SOL    HW149415   4.678   2.323   4.524  0.6985  1.2502 -0.6730
14856SOL    HW249416   4.770   2.204   4.510 -0.8448 -0.0467  0.0077
14857SOL     OW49417   3.264   4.406   5.522  0.2442  0.1280 -0.0383
14857SOL    HW149418   3.285   4.492   5.485  0.1768 -0.6495 -1.9569
14857SOL    HW249419   3.338   4.350   5.496 -0.1737 -0.6322  0.3778
14858SOL     OW49420   9.415   5.207   5.018 -0.1591 -0.1158 -0.8978
14858SOL    HW149421   9.348   5.262   4.978  0.3455  1.2558  0.0706
14858SOL    HW249422   9.403   5.219   5.112  1.7046  0.5442 -0.6925
14859SOL     OW49423   6.545   4.636   7.477 -0.7548  0.2419 -0.4650
14859SOL    HW149424   6.516   4.661   7.390 -0.4961 -0.3153 -0.7136
14859SOL    HW249425   6.511   4.547   7.489 -0.4506  0.1634 -0.1563
14860SOL     OW49426   4.520   8.247   4.055 -0.0976 -0.1104  0.2779
14860SOL    HW149427   4.572   8.176   4.093  0.5344  0.1217 -0.1324
14860SOL    HW249428   4.548   8.250   3.963 -0.3867  0.4280  0.2055
14861SOL     OW49429   5.477   0.098   4.280 -0.0670 -0.4772  0.3958
14861SOL    HW149430   5.558   0.047   4.272 -0.5209 -1.1967  0.2051
14861SOL    HW249431   5.474   0.153   4.202 -0.5563 -1.6579 -0.4611
14862SOL     OW49432   6.623   5.368   5.356 -0.2160  0.2609 -0.5379
14862SOL    HW149433   6.670   5.294   5.396 -0.2649  0.4374 -0.1469
14862SOL    HW249434   6.636   5.440   5.418 -0.0006  0.6373 -1.0116
14863SOL     OW49435   1.389   8.711   3.954  0.2136  0.2795 -0.1574
14863SOL    HW149436   1.462   8.745   3.902 -1.4473  2.0744 -1.5039
14863SOL    HW249437   1.354   8.640   3.901 -0.0570  0.5793 -0.3903
14864SOL     OW49438   7.378   7.344   0.353  0.4174 -0.1292  0.6762
14864SOL    HW149439   7.427   7.425   0.340  0.7987 -0.1081  2.0830
14864SOL    HW249440   7.375   7.303   0.266  0.8845  1.0053  0.1063
14865SOL     OW49441   7.577   7.239   7.702  0.5423 -0.2173 -0.1925
14865SOL    HW149442   7.505   7.293   7.737  0.7988 -1.2488  2.0680
14865SOL    HW249443   7.624   7.298   7.643 -0.2002  1.5169  0.8600
14866SOL     OW49444   1.546   6.154   3.968 -0.2193  0.4513  0.3464
14866SOL    HW149445   1.513   6.243   3.958 -0.5275  0.3341  0.3058
14866SOL    HW249446   1.471   6.098   3.949 -0.1858  0.1936  0.9536
14867SOL     OW49447   2.816   6.055   8.387  0.3476  0.0750 -0.7023
14867SOL    HW149448   2.787   6.006   8.464 -1.7212  1.8850 -0.2242
14867SOL    HW249449   2.871   6.125   8.422 -1.4734  1.5685 -0.6326
14868SOL     OW49450   0.369   1.051   1.480  0.3942  0.2789  0.1971
14868SOL    HW149451   0.463   1.034   1.487  1.1363  3.5124 -0.4227
14868SOL    HW249452   0.337   0.985   1.418  2.5119 -0.0666 -0.6018
14869SOL     OW49453   4.549   3.311   5.271 -0.1791 -0.2188  0.1297
14869SOL    HW149454   4.554   3.215   5.275 -1.3516 -0.3912 -1.5065
14869SOL    HW249455   4.464   3.332   5.310 -0.0710  0.1344  0.1772
14870SOL     OW49456   4.643   5.587   8.452 -0.1050 -0.4064  0.1434
14870SOL    HW149457   4.638   5.605   8.358 -0.0740 -1.8140 -0.1365
14870SOL    HW249458   4.721   5.534   8.463 -0.1913 -0.3778  0.9546
14871SOL     OW49459   5.491   1.093   5.806 -0.3062 -0.0678 -0.3362
14871SOL    HW149460   5.530   1.174   5.840 -2.9719  0.5225  1.6028
14871SOL    HW249461   5.465   1.115   5.716  1.4640  0.2628 -0.8250
14872SOL     OW49462   0.780   8.828   9.547  0.2245  0.1082  0.1135
14872SOL    HW149463   0.712   8.840   9.613  1.1221  0.6888  0.9712
14872SOL    HW249464   0.790   8.915   9.507 -0.8448 -0.4116 -1.3496
14873SOL     OW49465   4.235   2.839   1.646  0.1432  0.1512 -0.4085
14873SOL    HW149466   4.180   2.913   1.673 -0.8930 -0.1399 -1.6399
14873SOL    HW249467   4.245   2.850   1.552  0.8137 -0.7334 -0.4502
14874SOL     OW49468   7.435   7.692   3.457 -0.0013  0.2165 -0.2605
14874SOL    HW149469   7.504   7.738   3.409  0.8891 -0.7317  0.0743
14874SOL    HW249470   7.438   7.603   3.423 -0.9736  0.1344 -0.1399
14875SOL     OW49471   2.063   8.664   5.857  0.1350 -0.1656 -0.0275
14875SOL    HW149472   2.062   8.732   5.925 -2.7374 -2.2292  2.2195
14875SOL    HW249473   2.136   8.608   5.881  0.7301  0.5137 -0.2049
14876SOL     OW49474   2.908   4.016   7.229  0.4061 -0.0039 -0.4924
14876SOL    HW149475   2.972   3.962   7.182  2.4134  0.6310  1.3185
14876SOL    HW249476   2.910   4.100   7.184  0.4289 -0.1568 -0.7812
14877SOL     OW49477   3.552   7.963   5.989 -0.0578 -0.0229 -0.0257
14877SOL    HW149478   3.492   7.902   6.032  0.8920  0.1035  1.5536
14877SOL    HW249479   3.578   7.918   5.908 -1.1930 -0.6722 -0.0529
14878SOL     OW49480   5.320   1.794   7.487 -0.0322  0.1195  0.1289
14878SOL    HW149481   5.341   1.706   7.456  1.4881 -0.1743  1.8002
14878SOL    HW249482   5.402   1.843   7.477  0.1436  0.3685  2.2870
14879SOL     OW49483   0.134   8.562   8.853 -0.1985  0.3304 -1.2697
14879SOL    HW149484   0.196   8.631   8.827  0.0209 -0.3003 -2.4970
14879SOL    HW249485   0.052   8.587   8.811 -1.0840  1.5928  0.9860
14880SOL     OW49486   5.391   1.669   7.797 -0.2899  0.2328 -0.1151
14880SOL    HW149487   5.464   1.706   7.748  0.4600 -0.3693  0.5035
14880SOL    HW249488   5.427   1.655   7.885 -1.2139  0.1162  0.2498
14881SOL     OW49489   4.241   0.191   9.664  0.2133 -0.0590  0.7751
14881SOL    HW149490   4.290   0.260   9.710 -1.9633  2.6547 -0.6964
14881SOL    HW249491   4.219   0.128   9.732  1.2332  1.3313  2.4815
14882SOL     OW49492   1.163   5.286   4.102 -0.2099  0.5479 -0.3907
14882SOL    HW149493   1.207   5.360   4.143 -1.1034  0.2341  1.2278
14882SOL    HW249494   1.122   5.322   4.023  2.2019  1.0132 -1.5058
14883SOL     OW49495   5.658   7.888   7.185  0.1810  0.8587 -0.1194
14883SOL    HW149496   5.663   7.793   7.199  1.7107  1.1587  1.7797
14883SOL    HW249497   5.568   7.903   7.157 -2.0212 -0.6085  5.0418
14884SOL     OW49498   0.303   4.288   5.076  0.1947  0.1491 -0.2134
14884SOL    HW149499   0.339   4.372   5.047  0.9385  0.1064  0.5488
14884SOL    HW249500   0.223   4.277   5.024  0.2713  1.1590 -0.5684
14885SOL     OW49501   0.340   5.993   9.329  0.1412  0.1999  0.2660
14885SOL    HW149502   0.280   6.065   9.348 -0.3571 -0.2324  0.3422
14885SOL    HW249503   0.289   5.914   9.344  0.8786 -0.1847  0.8303
14886SOL     OW49504   1.160   5.414   6.744 -0.7004  0.8463 -0.0842
14886SOL    HW149505   1.238   5.466   6.765 -0.4102  0.3322  0.1299
14886SOL    HW249506   1.130   5.382   6.829 -1.0110  0.8521 -0.1918
14887SOL     OW49507   6.558   1.446   0.977 -0.1759  0.3665  0.8871
14887SOL    HW149508   6.513   1.528   0.996 -1.6660 -0.1654 -0.2071
14887SOL    HW249509   6.552   1.395   1.058  0.1529  1.0420  1.3466
14888SOL     OW49510   9.010   3.253   7.546 -0.2422  0.5822  0.3824
14888SOL    HW149511   9.000   3.285   7.636  0.1397  0.1498  0.5878
14888SOL    HW249512   8.970   3.321   7.492 -1.7893  0.1675  0.9622
14889SOL     OW49513   2.456   7.211   2.740  0.1548  0.3480  0.3230
14889SOL    HW149514   2.510   7.147   2.786 -0.1040  0.1782  0.3893
14889SOL    HW249515   2.496   7.219   2.653  0.3614  0.3189  0.4148
14890SOL     OW49516   1.579   2.454   7.060  0.2441 -0.4363 -0.2026
14890SOL    HW149517   1.638   2.444   6.986 -0.3390 -1.3102 -0.5612
14890SOL    HW249518   1.537   2.539   7.047  2.6654  1.0566  0.9868
14891SOL     OW49519   3.905   2.213   6.995 -0.0045  0.8149 -0.3400
14891SOL    HW149520   3.979   2.199   6.937 -0.0587  1.5765 -0.5958
14891SOL    HW249521   3.896   2.130   7.043 -0.6461 -0.2486 -2.1951
14892SOL     OW49522   1.914   1.165   9.299  0.1981  0.2104  0.3582
14892SOL    HW149523   1.864   1.094   9.259 -0.8873  1.9903 -1.6935
14892SOL    HW249524   1.848   1.226   9.332  1.0886  0.4579  1.7732
14893SOL     OW49525   9.195   7.563   0.388  0.0795  0.6277 -0.0494
14893SOL    HW149526   9.145   7.521   0.458  0.0702 -0.8616 -0.9051
14893SOL    HW249527   9.129   7.597   0.328  0.0903  1.4204  0.3802
14894SOL     OW49528   2.664   5.238   9.300 -0.1761  0.1420  0.6188
14894SOL    HW149529   2.597   5.292   9.257 -2.2180 -1.9695  0.9657
14894SOL    HW249530   2.723   5.213   9.230 -1.5456 -0.4919 -0.3446
14895SOL     OW49531   2.043   2.733   5.400 -0.0894  0.2281  0.0610
14895SOL    HW149532   2.091   2.651   5.394  0.6642  0.7119 -0.6260
14895SOL    HW249533   2.085   2.791   5.337 -1.9339  0.4928 -0.9843
14896SOL     OW49534   3.214   7.240   9.380 -0.0937  0.0248  0.4226
14896SOL    HW149535   3.287   7.215   9.437  1.1294  0.9125 -0.6852
14896SOL    HW249536   3.149   7.278   9.439 -0.9152 -3.1962  1.8133
14897SOL     OW49537   0.825   9.509   7.498  0.3542 -0.0749 -0.7345
14897SOL    HW149538   0.818   9.593   7.452 -0.5734  0.1612 -0.1732
14897SOL    HW249539   0.917   9.483   7.485  0.7524  1.1996 -0.6096
14898SOL     OW49540   2.423   8.803   1.307  0.0636 -0.9004  0.1226
14898SOL    HW149541   2.461   8.832   1.224  1.2302  1.1659  1.2766
14898SOL    HW249542   2.329   8.803   1.292  0.1571  0.9880 -0.8005
14899SOL     OW49543   7.952   6.665   2.085  0.2473 -0.1442 -0.0159
14899SOL    HW149544   8.004   6.726   2.033 -0.7014  0.9306  0.2673
14899SOL    HW249545   7.967   6.691   2.176 -0.4593 -0.0922  0.0893
14900SOL     OW49546   1.610   1.093   3.775  0.1178  0.0536  0.0919
14900SOL    HW149547   1.588   1.045   3.855  1.8657 -1.2772 -0.1667
14900SOL    HW249548   1.636   1.180   3.806 -0.9636  0.1483  0.7833
14901SOL     OW49549   1.578   9.035   7.666  0.5482 -0.0462  0.5630
14901SOL    HW149550   1.614   8.995   7.746  0.8827 -0.7054  0.0912
14901SOL    HW249551   1.628   8.995   7.595  0.1887  0.4706  0.0114
14902SOL     OW49552   6.172   6.655   7.845 -0.7048 -0.0287  0.2676
14902SOL    HW149553   6.171   6.748   7.865 -0.8088 -0.0854  0.5256
14902SOL    HW249554   6.126   6.647   7.761 -0.6241  0.1594  0.2059
14903SOL     OW49555   8.980   1.277   5.395  0.7053  0.3618  0.3726
14903SOL    HW149556   8.895   1.234   5.403  1.3836 -1.0303  0.3293
14903SOL    HW249557   8.991   1.325   5.477  0.5485 -0.6900  1.0108
14904SOL     OW49558   8.602   8.711   8.138 -0.1510  0.3799 -0.1587
14904SOL    HW149559   8.588   8.703   8.043  4.0119  1.2429 -1.0653
14904SOL    HW249560   8.557   8.792   8.162 -2.2254 -0.4246 -1.0950
14905SOL     OW49561   5.122   6.287   3.846 -0.5064  0.0622 -0.2594
14905SOL    HW149562   5.118   6.382   3.831 -0.4401 -0.0078 -0.7199
14905SOL    HW249563   5.059   6.272   3.917  1.4931  0.8397  1.7979
14906SOL     OW49564   8.120   2.927   8.428 -0.0860 -0.1970  0.3845
14906SOL    HW149565   8.154   2.840   8.406  0.4640 -0.1185  0.8937
14906SOL    HW249566   8.198   2.981   8.438 -0.4270  0.3456  0.1273
14907SOL     OW49567   4.301   6.257   0.023 -0.2651 -0.5072 -0.0347
14907SOL    HW149568   4.305   6.177   0.075  2.3412  1.1185  2.5441
14907SOL    HW249569   4.363   6.243  -0.048 -0.4895 -1.0623 -0.1298
14908SOL     OW49570   6.334   1.829   2.458 -0.5579 -0.0710 -0.0039
14908SOL    HW149571   6.323   1.867   2.545  0.5848 -0.0911  0.1650
14908SOL    HW249572   6.289   1.745   2.463 -0.5500 -0.0470  0.5529
14909SOL     OW49573   7.627   8.430   6.618  0.5183  0.7346 -0.3014
14909SOL    HW149574   7.716   8.427   6.653  0.0324 -2.0633  0.9189
14909SOL    HW249575   7.626   8.509   6.563  2.3834  3.5112  3.1892
14910SOL     OW49576   1.706   6.039   0.415 -0.0579  0.3777  0.2757
14910SOL    HW149577   1.794   6.044   0.453 -0.4551 -1.7874  1.6346
14910SOL    HW249578   1.649   6.021   0.490 -1.5291  0.5578 -0.7559
14911SOL     OW49579   4.750   6.112   8.739 -0.1916 -0.1623  0.8351
14911SOL    HW149580   4.656   6.094   8.741 -0.0561 -0.9103  0.8759
14911SOL    HW249581   4.759   6.190   8.685 -0.8868  0.2617  1.3178
14912SOL     OW49582   3.848   2.903   9.307  0.1348 -0.7236 -0.2312
14912SOL    HW149583   3.773   2.915   9.364 -0.2830 -0.8967 -0.7400
14912SOL    HW249584   3.811   2.896   9.219  0.8362  0.5077 -0.6417
14913SOL     OW49585   1.145   9.231   3.722  0.2484 -0.6199  0.1094
14913SOL    HW149586   1.147   9.181   3.804  1.6860 -2.9936 -1.2356
14913SOL    HW249587   1.119   9.166   3.656 -0.9006  1.2227 -1.3326
14914SOL     OW49588   0.775   8.094   2.296  0.0733 -1.0896 -0.1590
14914SOL    HW149589   0.761   8.026   2.229  0.7670 -0.7301 -0.6877
14914SOL    HW249590   0.828   8.161   2.251  0.8334 -0.9904  0.8464
14915SOL     OW49591   3.635   0.518   6.762 -0.2605  0.7201  0.3054
14915SOL    HW149592   3.542   0.538   6.769 -0.4408 -0.3984  1.3551
14915SOL    HW249593   3.639   0.424   6.747  0.6971  0.8748 -0.6076
14916SOL     OW49594   1.425   8.992   2.142  0.2313 -0.0475  0.8373
14916SOL    HW149595   1.495   8.982   2.078 -0.2207 -0.0311  0.3421
14916SOL    HW249596   1.350   8.946   2.105 -0.9110  2.3027  0.0008
14917SOL     OW49597   8.953   1.283   4.047  0.2102 -0.7063 -0.0414
14917SOL    HW149598   8.986   1.367   4.079 -0.6006 -0.2937 -0.2612
14917SOL    HW249599   9.030   1.239   4.011  0.8105 -0.4441  0.8826
14918SOL     OW49600   6.086   2.852   3.509 -0.0432 -0.0476 -0.9034
14918SOL    HW149601   6.050   2.928   3.462  2.6473  2.6961  1.0367
14918SOL    HW249602   6.136   2.805   3.443  0.6855  1.6224 -1.6008
14919SOL     OW49603   8.337   1.987   0.402 -0.4219  0.3918  0.0633
14919SOL    HW149604   8.365   1.898   0.422 -1.0518  0.1910  0.0708
14919SOL    HW249605   8.368   2.040   0.476  0.0872  0.2087 -0.0179
14920SOL     OW49606   1.976   0.716   2.183 -0.5305  0.1225  0.4897
14920SOL    HW149607   1.987   0.633   2.137 -2.3639 -1.3063  2.3929
14920SOL    HW249608   2.065   0.745   2.203  0.1461 -1.5735  0.1030
14921SOL     OW49609   7.761   7.931   5.864 -0.2083 -0.3436 -0.1015
14921SOL    HW149610   7.803   7.887   5.938 -1.0362  0.0266  0.6110
14921SOL    HW249611   7.748   8.021   5.894  1.0521  0.2866 -1.3729
14922SOL     OW49612   5.831   9.378   7.312  0.2665  0.1339  0.0602
14922SOL    HW149613   5.841   9.398   7.405 -0.9618 -1.3167  0.5543
14922SOL    HW249614   5.785   9.454   7.276  2.9292  1.8474  0.0424
14923SOL     OW49615   7.878   7.296   5.121 -0.1352  0.0344  0.2678
14923SOL    HW149616   7.879   7.207   5.155  2.0663  0.3170  1.1179
14923SOL    HW249617   7.901   7.351   5.196  0.6804  1.0746 -0.7073
14924SOL     OW49618   0.232   4.434   3.278 -0.2280  0.1381  0.1172
14924SOL    HW149619   0.326   4.441   3.294 -0.0196 -0.2481 -0.8846
14924SOL    HW249620   0.204   4.360   3.333 -0.5795  2.1660  2.9052
14925SOL     OW49621   0.101   7.874   6.569  0.2062  0.3054  0.1116
14925SOL    HW149622   0.121   7.818   6.644  0.2991  0.2225  0.0259
14925SOL    HW249623   0.016   7.842   6.537  0.4070  0.0093 -0.1264
14926SOL     OW49624   9.658   1.044   1.311 -0.5015 -0.1250  0.3972
14926SOL    HW149625   9.580   1.100   1.309 -0.1056  0.5496  1.7766
14926SOL    HW249626   9.731   1.106   1.307 -0.0475 -0.4383  2.5421
14927SOL     OW49627   3.952   2.347   2.093  0.1166 -0.6124 -0.0434
14927SOL    HW149628   3.935   2.332   2.000  0.4582 -1.6707  0.0511
14927SOL    HW249629   4.032   2.297   2.111  0.1600 -0.2647  0.7776
14928SOL     OW49630   4.427   4.817   8.183 -0.3955  0.1551  0.1437
14928SOL    HW149631   4.463   4.749   8.240 -0.1582  0.4659  0.3653
14928SOL    HW249632   4.488   4.822   8.109 -1.1187 -0.8000 -0.5454
14929SOL     OW49633   6.278   3.643   1.744 -0.4859  0.5266 -0.0484
14929SOL    HW149634   6.361   3.692   1.739  0.6887 -1.4181 -0.8607
14929SOL    HW249635   6.251   3.634   1.652 -0.1434 -1.1411 -0.0126
14930SOL     OW49636   6.609   1.329   3.923  0.1394  0.1315 -0.1074
14930SOL    HW149637   6.672   1.304   3.990 -1.1651 -0.3198  1.0111
14930SOL    HW249638   6.652   1.310   3.840  1.5605  0.1137  0.6019
14931SOL     OW49639   6.098   3.764   7.800 -0.5803 -0.6265  0.4045
14931SOL    HW149640   6.122   3.702   7.731  0.6894  0.0126  0.2549
14931SOL    HW249641   6.002   3.767   7.796 -0.6335 -2.1047  0.0124
14932SOL     OW49642   0.646   6.805   1.132 -0.4384 -0.4583 -0.3401
14932SOL    HW149643   0.630   6.899   1.123 -1.0249 -0.5383 -0.1438
14932SOL    HW249644   0.647   6.790   1.226  0.5009 -0.5099 -0.3509
14933SOL     OW49645   5.030   1.346   7.898  0.6206 -0.5571 -0.0798
14933SOL    HW149646   5.072   1.432   7.891 -2.2249  0.9169 -0.9732
14933SOL    HW249647   5.044   1.306   7.812 -0.3752  0.2953 -0.6790
14934SOL     OW49648   8.423   5.232   5.048 -0.2228 -0.5060 -0.2114
14934SOL    HW149649   8.375   5.269   5.122 -1.5598 -0.3405 -1.1082
14934SOL    HW249650   8.484   5.170   5.087  2.0791  2.5231  1.3557
14935SOL     OW49651   3.749   6.584   6.993  0.2123 -0.2039 -0.2420
14935SOL    HW149652   3.720   6.506   6.947  0.5864 -0.3782 -0.1928
14935SOL    HW249653   3.843   6.569   7.007  0.2818  0.2481 -0.2234
14936SOL     OW49654   2.945   4.475   9.313 -0.3584  0.0887  0.3126
14936SOL    HW149655   2.934   4.427   9.395  1.4464 -1.8750 -0.5071
14936SOL    HW249656   3.039   4.495   9.309 -0.6998  1.7280 -0.4709
14937SOL     OW49657   0.435   0.421   7.703  0.1480  0.1470 -0.1717
14937SOL    HW149658   0.403   0.492   7.759  0.7171 -0.3293  0.7882
14937SOL    HW249659   0.493   0.464   7.641 -0.6279  0.7108 -0.5243
14938SOL     OW49660   4.119   5.963   7.501 -0.5530 -0.1863 -0.1507
14938SOL    HW149661   4.172   5.996   7.573  0.6813 -2.0486 -0.1451
14938SOL    HW249662   4.048   6.027   7.492  0.4685  1.2158  1.2751
14939SOL     OW49663   0.471   4.946   9.390  0.5014 -0.1127  0.1797
14939SOL    HW149664   0.440   4.868   9.344 -1.1656  0.5285  0.1490
14939SOL    HW249665   0.511   4.912   9.470 -2.2681 -0.9948  1.3428
14940SOL     OW49666   2.842   0.306   1.479  0.3609  0.2276 -0.2612
14940SOL    HW149667   2.899   0.302   1.403 -0.8684  1.4606 -1.2979
14940SOL    HW249668   2.762   0.348   1.447  0.0839  1.4705  1.8824
14941SOL     OW49669   0.894   2.115   4.000 -0.0847  0.1866 -0.1534
14941SOL    HW149670   0.859   2.070   4.077 -0.8532  0.0890 -0.5448
14941SOL    HW249671   0.887   2.050   3.930 -0.7539  0.7384 -0.6194
14942SOL     OW49672   3.417   7.472   9.295 -0.4947  0.5165  0.1783
14942SOL    HW149673   3.498   7.436   9.332 -0.5546 -2.8973 -2.4928
14942SOL    HW249674   3.353   7.401   9.304 -2.0523  1.6520 -1.3176
14943SOL     OW49675   3.018   6.989   3.811 -0.2445 -0.8940  0.0426
14943SOL    HW149676   2.956   7.025   3.874 -1.2826 -0.5456 -1.1240
14943SOL    HW249677   3.084   7.058   3.800 -1.9436  0.5818 -1.7891
14944SOL     OW49678   4.582   3.902   2.812  0.1223  0.2946 -0.2754
14944SOL    HW149679   4.544   3.920   2.899  0.5748  0.7039 -0.1600
14944SOL    HW249680   4.617   3.986   2.783 -0.5360  0.2899 -1.1168
14945SOL     OW49681   0.929   0.106   4.228 -0.0104 -0.4084 -0.0232
14945SOL    HW149682   0.973   0.069   4.305  2.6949  0.7894 -0.8875
14945SOL    HW249683   0.840   0.126   4.259  0.6897 -0.8525  2.4975
14946SOL     OW49684   0.774   2.581   5.499 -0.0080 -0.1754 -0.4060
14946SOL    HW149685   0.694   2.622   5.466  0.3353  0.2374 -0.7532
14946SOL    HW249686   0.827   2.567   5.421  0.8769  0.9350 -0.0409
14947SOL     OW49687   4.230   5.722   8.731  0.2649  0.6321  0.4013
14947SOL    HW149688   4.241   5.817   8.723  0.4503  0.4312 -2.8423
14947SOL    HW249689   4.284   5.686   8.661 -2.4319 -1.6832 -0.6530
14948SOL     OW49690   2.079   2.431   7.692 -0.3960 -0.3657  0.0118
14948SOL    HW149691   2.079   2.391   7.605 -0.7570  0.6586 -0.4707
14948SOL    HW249692   2.101   2.359   7.751 -0.3187 -1.1141 -0.9045
14949SOL     OW49693   2.234   9.691   2.799  0.3688 -0.3967  0.1260
14949SOL    HW149694   2.178   9.615   2.786  0.2348  0.0247 -2.1477
14949SOL    HW249695   2.201   9.732   2.878 -1.6590 -0.9225 -0.3917
14950SOL     OW49696   8.962   3.307   8.691 -0.4027  0.6827 -0.3454
14950SOL    HW149697   8.986   3.325   8.782 -0.5476 -1.0544  0.0703
14950SOL    HW249698   8.986   3.215   8.678  1.1538  1.3267 -2.5861
14951SOL     OW49699   7.438   1.044   5.844 -0.1168  0.0747  0.3611
14951SOL    HW149700   7.490   1.107   5.893 -1.4758  0.7407  0.9849
14951SOL    HW249701   7.358   1.033   5.895 -2.0379  1.5051 -2.1095
14952SOL     OW49702   6.994   7.072   1.766 -0.1833 -0.4876  0.6449
14952SOL    HW149703   6.995   7.165   1.742 -1.0014 -0.3479  1.1095
14952SOL    HW249704   6.992   7.072   1.862 -0.1857 -0.9858  0.6478
14953SOL     OW49705   3.044   0.634   5.040 -0.2678  0.2270 -0.3919
14953SOL    HW149706   3.057   0.708   5.100 -1.6127 -0.4264  0.7718
14953SOL    HW249707   3.057   0.557   5.095 -0.8727 -0.3933 -1.1127
14954SOL     OW49708   5.796   8.870   9.212 -0.3148  0.6159 -0.8119
14954SOL    HW149709   5.800   8.941   9.147 -1.1184  1.3304 -0.1083
14954SOL    HW249710   5.711   8.829   9.197 -0.6382  0.9840 -0.0146
14955SOL     OW49711   2.804   2.724   9.662  0.3740  0.0622  0.2494
14955SOL    HW149712   2.828   2.757   9.575  0.4599 -2.1426 -0.6450
14955SOL    HW249713   2.735   2.783   9.692 -1.5324 -0.5697 -2.5098
14956SOL     OW49714   0.803   7.228   6.423  0.5950 -0.2276  0.6572
14956SOL    HW149715   0.820   7.250   6.331 -1.5380 -0.0295  0.2373
14956SOL    HW249716   0.831   7.305   6.472  0.7484  0.1100  0.0477
14957SOL     OW49717   3.845   8.031   3.026 -0.1097  0.7164  0.9174
14957SOL    HW149718   3.808   7.943   3.022  0.6990  0.4150 -0.1359
14957SOL    HW249719   3.828   8.059   3.116  0.7619 -1.0159  1.6665
14958SOL     OW49720   1.861   7.231   0.155 -0.2100 -0.2185  0.0282
14958SOL    HW149721   1.869   7.293   0.227  0.0614  0.0952 -0.2717
14958SOL    HW249722   1.798   7.166   0.187  1.1483 -1.0102  1.2071
14959SOL     OW49723   8.312   5.091   3.138  0.1407 -1.2282  0.1209
14959SOL    HW149724   8.396   5.097   3.093 -0.4348  0.4977 -0.8160
14959SOL    HW249725   8.306   5.000   3.166  1.4993 -1.8289 -1.4048
14960SOL     OW49726   3.689   3.090   4.288  0.4489 -0.6287  0.4206
14960SOL    HW149727   3.655   3.177   4.267 -0.3650 -0.4269  2.4106
14960SOL    HW249728   3.755   3.073   4.220 -1.8071  0.0260 -2.1042
14961SOL     OW49729   6.804   4.527   7.212 -0.1468 -0.3818 -0.5183
14961SOL    HW149730   6.723   4.577   7.202  0.5730  0.7390 -0.9383
14961SOL    HW249731   6.869   4.592   7.240  0.4267 -1.4180  0.6583
14962SOL     OW49732   2.288   6.519   1.676 -0.5248 -0.3098 -0.0822
14962SOL    HW149733   2.265   6.610   1.658 -0.3247 -0.2329  0.0518
14962SOL    HW249734   2.362   6.524   1.736  0.3243 -0.5501 -1.0835
14963SOL     OW49735   1.744   5.528   0.123 -0.1343 -0.5401 -0.3089
14963SOL    HW149736   1.723   5.519   0.030 -1.0561 -0.9403 -0.0752
14963SOL    HW249737   1.682   5.593   0.156  0.0897 -0.5038  0.0487
14964SOL     OW49738   9.253   1.720   1.314 -0.1691 -0.5926  0.2790
14964SOL    HW149739   9.306   1.677   1.381  0.1307 -0.5895  0.0420
14964SOL    HW249740   9.255   1.659   1.240 -0.0158 -0.3213  0.0607
14965SOL     OW49741   4.176   8.955   8.768  0.1227 -0.5569 -0.6710
14965SOL    HW149742   4.111   9.001   8.716 -0.3451 -2.7862 -2.2087
14965SOL    HW249743   4.137   8.870   8.786  2.4074 -1.8319 -1.3028
14966SOL     OW49744   0.348   8.961   8.396 -0.4338  0.1625  0.2264
14966SOL    HW149745   0.329   8.982   8.305 -0.1608  0.9508  0.3455
14966SOL    HW249746   0.382   8.872   8.393  0.5059  0.5360 -0.5624
14967SOL     OW49747   0.935   1.435   8.723  0.2525 -0.3313 -0.2068
14967SOL    HW149748   0.947   1.357   8.776 -1.0035 -1.7283 -1.8650
14967SOL    HW249749   1.010   1.437   8.664  0.1941 -0.3854 -0.2828
14968SOL     OW49750   6.204   4.838   3.245 -0.3906 -0.1254  0.5576
14968SOL    HW149751   6.213   4.773   3.175 -0.1101 -1.0011  1.3843
14968SOL    HW249752   6.194   4.921   3.199  1.8472 -0.3905 -0.5452
14969SOL     OW49753   7.113   2.585   7.161 -0.5004  0.2875 -0.1914
14969SOL    HW149754   7.173   2.517   7.192  0.3243  1.0783  0.0170
14969SOL    HW249755   7.154   2.667   7.190 -2.2866  0.8182  1.0170
14970SOL     OW49756   2.759   2.863   5.080 -0.0693  0.2232  0.5865
14970SOL    HW149757   2.664   2.879   5.076  0.0954  1.1589  0.0665
14970SOL    HW249758   2.796   2.949   5.101  0.6690 -0.1411  0.7853
14971SOL     OW49759   3.991   8.274   1.812  0.1180 -0.2873  0.1768
14971SOL    HW149760   4.058   8.271   1.744  1.1388 -0.4753  1.1650
14971SOL    HW249761   3.996   8.189   1.854 -1.0842 -0.4825 -0.0247
14972SOL     OW49762   6.174   0.494   3.693  0.1423 -0.3977  0.1545
14972SOL    HW149763   6.267   0.494   3.714  0.6032  1.5521 -1.4639
14972SOL    HW249764   6.130   0.495   3.778  1.7355  2.2953  1.1003
14973SOL     OW49765   2.972   9.208   3.288  0.1672 -0.1658 -0.9777
14973SOL    HW149766   3.034   9.243   3.352  0.0599  0.0955 -1.0141
14973SOL    HW249767   3.001   9.118   3.274 -0.5490 -0.6427  0.3876
14974SOL     OW49768   4.052   9.095   5.281  0.1811 -0.6326 -0.5447
14974SOL    HW149769   4.118   9.027   5.266  1.0021 -0.0212  0.1912
14974SOL    HW249770   4.059   9.152   5.205 -0.1891 -1.1176 -0.9429
14975SOL     OW49771   4.472   3.427   3.676  0.2224 -0.2127 -0.1621
14975SOL    HW149772   4.474   3.346   3.725 -0.7297  0.1093  0.4404
14975SOL    HW249773   4.417   3.486   3.728  0.1985  0.5386 -0.9998
14976SOL     OW49774   9.677   1.108   6.805  0.0539 -0.2987  0.1005
14976SOL    HW149775   9.633   1.097   6.889  0.4665 -0.1325  0.3394
14976SOL    HW249776   9.716   1.022   6.787  1.1428  0.0442  0.7538
14977SOL     OW49777   7.336   8.319   7.591  0.1060  0.1806 -0.1996
14977SOL    HW149778   7.241   8.308   7.595  0.2671 -2.9016 -1.9061
14977SOL    HW249779   7.371   8.232   7.610  2.5542  1.0234 -0.5617
14978SOL     OW49780   4.864   1.854   0.279 -0.1839  0.0264 -0.1686
14978SOL    HW149781   4.910   1.937   0.292 -1.2306  0.9314 -1.8484
14978SOL    HW249782   4.862   1.813   0.366  2.0887  0.7937  0.3291
14979SOL     OW49783   6.135   2.746   3.766  0.1256  0.3910  0.1108
14979SOL    HW149784   6.110   2.771   3.677  0.1054 -2.0708 -0.6604
14979SOL    HW249785   6.229   2.729   3.761 -0.0783 -0.9301  0.1943
14980SOL     OW49786   3.038   7.691   5.747 -0.3301 -0.0323  0.6701
14980SOL    HW149787   3.013   7.783   5.752 -0.1410 -0.0351  1.9308
14980SOL    HW249788   3.091   7.676   5.825  1.6122 -0.6464 -0.6857
14981SOL     OW49789   6.443   4.847   8.388 -0.2355 -0.1721 -0.0038
14981SOL    HW149790   6.500   4.860   8.312  0.5638  1.4398  0.8131
14981SOL    HW249791   6.354   4.852   8.353  0.1196  0.7112 -0.8194
14982SOL     OW49792   7.693   1.442   1.528  0.0732  0.2728  0.2417
14982SOL    HW149793   7.627   1.391   1.576  0.7470  0.8802  1.8876
14982SOL    HW249794   7.698   1.400   1.442 -0.7633 -1.2320  0.8900
14983SOL     OW49795   2.897   1.292   0.888  0.3198  0.5941  0.5202
14983SOL    HW149796   2.929   1.372   0.848  0.2885  1.0324  1.3701
14983SOL    HW249797   2.939   1.222   0.838 -0.4250  1.1017 -0.8890
14984SOL     OW49798   4.657   9.096   5.959  0.7329  0.0605  0.1043
14984SOL    HW149799   4.568   9.074   5.934  0.9888 -0.4177 -0.4232
14984SOL    HW249800   4.649   9.174   6.013 -0.2014 -1.1971  1.8585
14985SOL     OW49801   3.479   5.680   5.872  0.1383 -0.0562  0.4707
14985SOL    HW149802   3.536   5.756   5.883 -1.3565  1.0742  0.8396
14985SOL    HW249803   3.458   5.654   5.962 -2.3582  1.5369  0.4635
14986SOL     OW49804   4.572   5.159   9.070  0.1745 -0.1985  0.5629
14986SOL    HW149805   4.540   5.243   9.036 -0.5518 -1.5953 -2.6232
14986SOL    HW249806   4.667   5.165   9.063  0.2717  0.9485  2.1486
14987SOL     OW49807   6.511   0.997   1.268  0.4683  0.4240  0.2675
14987SOL    HW149808   6.430   0.958   1.302 -0.3460  0.2736 -1.6791
14987SOL    HW249809   6.528   0.949   1.187  2.4084  0.6189  0.5202
14988SOL     OW49810   8.947   9.606   8.963 -0.8961 -0.3540  0.5202
14988SOL    HW149811   9.032   9.642   8.991 -1.0436 -0.1671  0.7265
14988SOL    HW249812   8.886   9.631   9.033 -1.4722  0.9419 -0.4009
14989SOL     OW49813   0.309   3.491   5.347  0.2888  0.6920 -0.2495
14989SOL    HW149814   0.297   3.435   5.270 -0.5658  0.8269 -0.2276
14989SOL    HW249815   0.401   3.517   5.343  1.0888 -1.7795  0.4789
14990SOL     OW49816   4.624   8.492   2.877 -0.0123  0.1612 -0.7025
14990SOL    HW149817   4.652   8.413   2.831 -0.8306  1.1077 -3.0083
14990SOL    HW249818   4.672   8.563   2.834 -1.7584  1.2316 -1.0104
14991SOL     OW49819   7.905   1.966   7.250  0.0967 -0.1670 -0.2895
14991SOL    HW149820   7.904   2.060   7.232 -1.0576 -0.2327 -0.6729
14991SOL    HW249821   7.834   1.953   7.313 -0.1549 -0.8626 -0.7023
14992SOL     OW49822   1.319   1.464   9.361 -0.1441  0.3647 -0.5814
14992SOL    HW149823   1.285   1.553   9.360 -0.1944  0.3429 -0.9073
14992SOL    HW249824   1.300   1.431   9.449  2.7171  1.7716  0.7221
14993SOL     OW49825   5.639   4.906   2.006 -0.0338 -0.2802 -0.1665
14993SOL    HW149826   5.659   4.813   2.003  2.6919  0.2360 -0.9780
14993SOL    HW249827   5.598   4.925   1.922  0.8816 -0.4986 -0.6776
14994SOL     OW49828   0.981   2.243   9.205  0.5097  0.0517  0.2076
14994SOL    HW149829   0.914   2.190   9.163 -0.8691  0.4048  1.8460
14994SOL    HW249830   1.026   2.287   9.133  0.1725 -1.5692 -1.0271
14995SOL     OW49831   4.165   4.617   4.111  0.3999 -0.1288  0.2834
14995SOL    HW149832   4.093   4.600   4.172  1.2565 -0.1954  1.3017
14995SOL    HW249833   4.144   4.703   4.073 -0.7272 -0.5997 -0.2067
14996SOL     OW49834   2.990   6.499   8.748 -0.4212  0.1200  0.0078
14996SOL    HW149835   2.985   6.522   8.656  0.2438 -0.6793 -0.2343
14996SOL    HW249836   3.082   6.508   8.771 -0.3108 -1.1958  0.1790
14997SOL     OW49837   7.994   4.497   7.412  0.0204  0.9512 -0.9325
14997SOL    HW149838   7.932   4.490   7.338 -0.8259 -2.3346 -0.0947
14997SOL    HW249839   8.076   4.463   7.377 -0.2273 -0.0644 -0.5573
14998SOL     OW49840   5.631   2.381   9.339 -0.1167  0.7286  0.8598
14998SOL    HW149841   5.711   2.395   9.390  1.8519 -1.7921 -1.1938
14998SOL    HW249842   5.592   2.302   9.377 -0.9361  1.2173  1.0465
14999SOL     OW49843   1.719   3.261   8.575  0.5113 -0.0829  0.3588
14999SOL    HW149844   1.658   3.260   8.649  1.3341 -0.4098  1.0455
14999SOL    HW249845   1.785   3.325   8.599  0.0738  0.8151 -0.7122
15000SOL     OW49846   0.829   7.679   6.060 -0.3320 -0.7785  0.0803
15000SOL    HW149847   0.866   7.605   6.013  0.3274  0.2317 -1.0573
15000SOL    HW249848   0.781   7.728   5.993  0.9020  0.8752  0.3373
15001SOL     OW49849   9.082   9.109   3.641  0.5773 -0.1850 -0.6326
15001SOL    HW149850   9.083   9.205   3.638 -0.2178 -0.0320  1.7438
15001SOL    HW249851   9.014   9.088   3.705  0.1008 -2.3907 -1.7697
15002SOL     OW49852   6.340   2.519   4.214 -0.0811  0.0455  0.1683
15002SOL    HW149853   6.425   2.482   4.194  0.4576  1.1752  0.2637
15002SOL    HW249854   6.348   2.552   4.304 -0.3189  0.9361 -0.1207
15003SOL     OW49855   2.309   3.917   5.813  0.1495  0.1382 -0.2558
15003SOL    HW149856   2.234   3.947   5.762 -1.2772 -0.6593  1.2526
15003SOL    HW249857   2.339   3.994   5.861 -1.6713 -0.0899  1.4073
15004SOL     OW49858   9.040   3.092   5.310 -0.7233  0.5557 -0.4176
15004SOL    HW149859   9.048   3.023   5.376 -0.7187 -0.9905 -1.9766
15004SOL    HW249860   8.953   3.079   5.272 -0.9774  1.8216 -0.3076
15005SOL     OW49861   2.141   9.734   0.297  0.3635 -0.1425  0.6687
15005SOL    HW149862   2.146   9.829   0.305  1.9142 -0.0833 -0.4881
15005SOL    HW249863   2.218   9.702   0.344  1.1152 -0.6555 -0.8593
15006SOL     OW49864   1.465   6.135   8.667  0.0929  0.4047  0.2613
15006SOL    HW149865   1.534   6.146   8.732  1.1800  0.8884 -0.9367
15006SOL    HW249866   1.384   6.148   8.716  0.7769 -0.9963  1.8670
15007SOL     OW49867   4.278   8.799   9.485  0.2929  0.0785  0.0921
15007SOL    HW149868   4.344   8.867   9.470  1.5133 -0.9408  0.6303
15007SOL    HW249869   4.319   8.739   9.547 -0.5931 -1.3450 -0.6398
15008SOL     OW49870   4.458   9.428   3.947  0.6480  0.2856 -0.2709
15008SOL    HW149871   4.415   9.370   3.884  0.8114 -1.4581  1.1345
15008SOL    HW249872   4.387   9.479   3.986  0.2491 -0.3299 -0.1881
15009SOL     OW49873   0.801   7.451   3.075  0.0906  0.6052  0.3396
15009SOL    HW149874   0.726   7.391   3.073 -1.1582  2.1334 -0.4949
15009SOL    HW249875   0.850   7.429   2.995 -1.2894  1.7543 -0.8917
15010SOL     OW49876   6.384   5.085   9.404  0.2985  0.3127  0.8625
15010SOL    HW149877   6.353   5.175   9.405  0.0217  0.2577 -0.5556
15010SOL    HW249878   6.444   5.080   9.330 -1.5890 -1.2166 -0.7088
15011SOL     OW49879   3.671   7.891   9.146 -0.4513 -0.2542 -0.3511
15011SOL    HW149880   3.643   7.865   9.233 -2.0722  2.2557 -0.0036
15011SOL    HW249881   3.765   7.873   9.144 -0.4960 -0.9444  1.6644
15012SOL     OW49882   6.463   2.397   5.631  0.0877  0.2434  0.1368
15012SOL    HW149883   6.379   2.359   5.605  0.1252  0.3700 -0.1712
15012SOL    HW249884   6.495   2.339   5.699  0.2880 -0.4609 -0.5422
15013SOL     OW49885   1.647   6.682   0.864 -0.5571  0.2578 -0.0959
15013SOL    HW149886   1.663   6.697   0.771  0.1898  1.2445  0.1715
15013SOL    HW249887   1.567   6.629   0.867 -0.0015 -0.6875 -1.3226
15014SOL     OW49888   6.487   6.682   5.155  0.7888 -0.5834  0.2841
15014SOL    HW149889   6.479   6.698   5.249  0.0107 -0.2230  0.1626
15014SOL    HW249890   6.405   6.638   5.131 -0.2654  1.7754 -0.7271
15015SOL     OW49891   3.476   5.818   2.219 -0.1072  0.0569 -0.4990
15015SOL    HW149892   3.516   5.815   2.306 -0.3163  0.6641 -0.3760
15015SOL    HW249893   3.450   5.728   2.201  0.5469 -0.1980 -0.2200
15016SOL     OW49894   4.386   6.541   8.555 -0.4597  0.4354  0.5576
15016SOL    HW149895   4.300   6.555   8.594 -1.0596 -0.6554 -0.2857
15016SOL    HW249896   4.426   6.628   8.552 -1.7056  1.0355  0.5859
15017SOL     OW49897   4.684   2.769   0.536  0.0854 -0.0227 -0.1173
15017SOL    HW149898   4.713   2.700   0.596 -1.6332  0.8588  1.8706
15017SOL    HW249899   4.693   2.850   0.587 -0.3607  0.9154 -1.4759
15018SOL     OW49900   6.039   1.059   9.279  0.0373  0.2930  0.0282
15018SOL    HW149901   6.098   0.995   9.239  0.8495  0.9973  0.0751
15018SOL    HW249902   6.028   1.126   9.212 -1.0816 -0.0400 -0.1496
15019SOL     OW49903   0.683   3.839   5.190 -0.1384  0.4345  0.3869
15019SOL    HW149904   0.615   3.785   5.150 -0.7157  0.8502  0.7865
15019SOL    HW249905   0.645   3.927   5.193  0.1221  0.5300  1.2915
15020SOL     OW49906   1.271   0.746   6.596 -0.3123  0.5566  0.0635
15020SOL    HW149907   1.286   0.788   6.681 -0.3915  1.3472 -0.3000
15020SOL    HW249908   1.333   0.673   6.594 -1.4366 -0.4854  1.4686
15021SOL     OW49909   9.263   3.497   7.576  0.4483 -0.9440  0.4226
15021SOL    HW149910   9.347   3.531   7.548  0.1505  0.5944  1.2813
15021SOL    HW249911   9.202   3.521   7.507 -0.0914  1.9465  1.7670
15022SOL     OW49912   2.723   8.290   8.523 -0.7812 -0.1651  0.0290
15022SOL    HW149913   2.777   8.308   8.600 -0.1996  0.1496 -0.4405
15022SOL    HW249914   2.720   8.373   8.476  0.1058 -0.7094 -1.0413
15023SOL     OW49915   9.345   5.479   6.780 -0.5666  0.8602  0.1233
15023SOL    HW149916   9.398   5.455   6.856 -0.7306 -2.4810 -0.6882
15023SOL    HW249917   9.259   5.440   6.797 -0.6328  0.1272 -1.6904
15024SOL     OW49918   5.576   0.487   3.147 -0.2127 -0.0748  0.0972
15024SOL    HW149919   5.527   0.405   3.152  1.0380 -0.7988  1.0458
15024SOL    HW249920   5.555   0.522   3.060 -0.6081 -1.5079 -0.4213
15025SOL     OW49921   3.616   2.402   1.998  0.0644  0.1350  0.0563
15025SOL    HW149922   3.596   2.404   2.091  1.3276  0.0040  0.3534
15025SOL    HW249923   3.620   2.309   1.976 -0.0641  0.1625 -0.0847
15026SOL     OW49924   7.313   7.619   6.929 -0.3209  0.2734  0.4690
15026SOL    HW149925   7.223   7.601   6.899 -0.5907  0.3084  1.2316
15026SOL    HW249926   7.303   7.692   6.990  0.1196 -0.2111  1.1357
15027SOL     OW49927   0.608   7.813   9.058  0.9307  0.5964  0.1458
15027SOL    HW149928   0.581   7.750   8.991  2.2185 -0.3176  0.4633
15027SOL    HW249929   0.615   7.761   9.138 -1.2818  1.7920  1.2166
15028SOL     OW49930   8.141   1.218   7.755  0.6336 -0.2892  0.0639
15028SOL    HW149931   8.219   1.193   7.806 -0.2394 -3.3976  0.0679
15028SOL    HW249932   8.071   1.163   7.790 -0.6882 -0.3491 -2.4941
15029SOL     OW49933   0.208   0.166   9.224 -0.9031  0.1431  0.1215
15029SOL    HW149934   0.192   0.229   9.154 -0.0034 -0.2612 -0.4747
15029SOL    HW249935   0.269   0.210   9.284  1.7376 -0.9348 -1.5686
15030SOL     OW49936   4.130   3.924   3.448  0.0976 -0.4700  0.0278
15030SOL    HW149937   4.167   4.010   3.427  0.9579 -0.4495  1.4829
15030SOL    HW249938   4.204   3.863   3.441 -0.1997 -0.8703  0.3228
15031SOL     OW49939   1.240   6.151   4.955 -0.6861  0.1428 -0.4832
15031SOL    HW149940   1.150   6.123   4.939 -0.7980 -0.0063  0.3610
15031SOL    HW249941   1.232   6.238   4.993 -0.3887  0.8575 -2.0155
15032SOL     OW49942   3.154   6.472   4.669  0.0087 -0.5147  0.0266
15032SOL    HW149943   3.209   6.397   4.646  0.2224 -0.1931 -0.5154
15032SOL    HW249944   3.080   6.468   4.609  0.9312  0.7383 -1.2501
15033SOL     OW49945   5.683   5.265   3.183  0.0098  0.0509  0.1783
15033SOL    HW149946   5.660   5.242   3.273  0.3323  0.1353  0.2851
15033SOL    HW249947   5.709   5.357   3.188 -1.0557  0.3845 -0.2040
15034SOL     OW49948   4.420   1.082   9.695 -0.4269 -0.4345  0.5671
15034SOL    HW149949   4.509   1.109   9.714 -0.0944 -0.2773 -1.0584
15034SOL    HW249950   4.428   1.025   9.618 -1.7833  0.0861  0.0133
15035SOL     OW49951   5.959   8.588   7.281  0.5878 -0.5269  0.0060
15035SOL    HW149952   5.969   8.624   7.193 -0.1120 -1.6384 -0.5427
15035SOL    HW249953   5.982   8.661   7.339 -0.5057  0.7167 -1.0638
15036SOL     OW49954   7.253   4.143   0.397 -0.3045  0.1535  0.0186
15036SOL    HW149955   7.233   4.049   0.400 -1.5850  0.3888 -0.3646
15036SOL    HW249956   7.181   4.181   0.347  0.1799  1.3524  0.1981
15037SOL     OW49957   0.478   9.579   2.615  0.1070 -0.2477 -0.1810
15037SOL    HW149958   0.511   9.564   2.527  0.9864  3.5346 -0.6689
15037SOL    HW249959   0.395   9.626   2.603 -0.1871 -0.4196  0.9947
15038SOL     OW49960   0.841   2.361   0.181  0.3762  0.8288  0.1633
15038SOL    HW149961   0.890   2.326   0.107 -0.8294  0.3921 -0.4683
15038SOL    HW249962   0.891   2.437   0.210  1.6244  0.1676 -0.1719
15039SOL     OW49963   9.505   6.144   4.256  0.1615 -0.0830 -0.3802
15039SOL    HW149964   9.511   6.132   4.162  0.5347  0.2878 -0.4106
15039SOL    HW249965   9.586   6.190   4.279 -0.4036  0.7682 -0.0377
15040SOL     OW49966   7.700   8.572   9.591 -0.1791 -0.3647 -0.1614
15040SOL    HW149967   7.677   8.484   9.560  3.1613 -0.8363 -1.7259
15040SOL    HW249968   7.750   8.611   9.519 -0.4794  2.3672  0.9923
15041SOL     OW49969   8.024   6.383   8.648  0.4411 -0.9432 -0.1106
15041SOL    HW149970   7.963   6.442   8.603  1.1245 -1.3271 -1.6143
15041SOL    HW249971   8.110   6.423   8.635  0.6695 -1.0971  0.8437
15042SOL     OW49972   3.834   5.305   8.499  0.3048 -0.0981 -0.5700
15042SOL    HW149973   3.790   5.359   8.434  1.2574  1.0669 -0.2657
15042SOL    HW249974   3.927   5.310   8.477  0.7783  1.2282  1.4981
15043SOL     OW49975   7.768   1.251   6.492  0.4452 -0.2336  0.5482
15043SOL    HW149976   7.824   1.204   6.555  0.4710 -0.5429  0.2960
15043SOL    HW249977   7.681   1.215   6.507  0.7500 -1.6565 -0.8469
15044SOL     OW49978   8.284   3.206   6.221 -0.2159  0.1198 -0.0768
15044SOL    HW149979   8.231   3.145   6.272  0.6520  1.3596  2.5221
15044SOL    HW249980   8.375   3.181   6.241  0.1527  1.0090 -0.5649
15045SOL     OW49981   5.559   9.639   4.875  0.1473  0.0513  0.6712
15045SOL    HW149982   5.483   9.669   4.824 -0.6640 -0.9961  1.2042
15045SOL    HW249983   5.635   9.674   4.828 -0.5152 -1.2341 -1.5668
15046SOL     OW49984   3.416   4.357   5.789  0.3901 -0.5548  0.2687
15046SOL    HW149985   3.346   4.352   5.724 -0.2884  0.2972  0.9131
15046SOL    HW249986   3.445   4.266   5.800 -1.4895 -1.1148  0.9196
15047SOL     OW49987   0.542   4.550   4.761  0.2582  0.0112  0.0391
15047SOL    HW149988   0.466   4.605   4.775 -0.3227 -0.6788 -0.3661
15047SOL    HW249989   0.566   4.564   4.670  1.0421  0.7419  0.3401
15048SOL     OW49990   8.123   5.309   8.230 -0.3850  0.2105 -0.3219
15048SOL    HW149991   8.101   5.377   8.293 -0.0403  2.1514 -2.1666
15048SOL    HW249992   8.047   5.303   8.172  0.2428  0.2431 -1.1731
15049SOL     OW49993   0.916   9.220   1.526  0.3462  0.0449  0.0025
15049SOL    HW149994   0.841   9.259   1.481  0.1009 -0.8467 -0.3914
15049SOL    HW249995   0.878   9.154   1.583  0.8349 -0.4430 -0.2289
15050SOL     OW49996   6.310   5.591   3.757 -0.2979  0.0350 -0.7633
15050SOL    HW149997   6.254   5.667   3.745  1.2972  1.7934  1.8496
15050SOL    HW249998   6.267   5.540   3.826  0.8192  0.9921  0.7004
15051SOL     OW49999   8.540   9.225   3.938  0.3696 -0.3809  0.5676
15051SOL    HW150000   8.488   9.193   3.865  0.4719 -1.3578  0.9136
15051SOL    HW250001   8.619   9.171   3.938  0.2843 -0.5221  1.5019
15052SOL     OW50002   9.027   5.194   8.020 -0.2290 -0.1159  0.4601
15052SOL    HW150003   9.085   5.205   8.095  0.0371  1.9957 -0.0033
15052SOL    HW250004   9.027   5.279   7.976 -2.4417 -0.5123 -0.4545
15053SOL     OW50005   3.946   8.028   7.980  0.3735 -0.0530  0.2511
15053SOL    HW150006   3.990   8.112   7.990  1.2914 -0.6992  2.1040
15053SOL    HW250007   3.978   7.993   7.897 -0.6508  1.7370 -0.9568
15054SOL     OW50008   5.187   4.841   3.590 -0.5379  0.0393 -0.3020
15054SOL    HW150009   5.237   4.767   3.624 -1.5774 -0.4297  0.2426
15054SOL    HW250010   5.205   4.912   3.652 -1.8183 -0.5963  0.8526
15055SOL     OW50011   6.305   8.612   1.508  0.0679 -0.0167  0.6791
15055SOL    HW150012   6.329   8.676   1.441 -0.7368 -1.5963 -1.1968
15055SOL    HW250013   6.261   8.664   1.576  1.6960  1.7491  0.4863
15056SOL     OW50014   5.642   5.469   2.585 -0.0036 -0.3660 -0.0141
15056SOL    HW150015   5.695   5.493   2.661  1.6463 -1.8278 -0.6437
15056SOL    HW250016   5.695   5.405   2.538 -0.4498  1.3109 -3.0579
15057SOL     OW50017   1.168   0.403   4.494  0.3740 -0.0210  0.2881
15057SOL    HW150018   1.243   0.348   4.516 -1.7574 -3.4645 -0.3993
15057SOL    HW250019   1.153   0.456   4.572  2.0679 -0.9679  1.3105
15058SOL     OW50020   5.784   4.538   4.134 -0.2434  0.0681 -0.1809
15058SOL    HW150021   5.751   4.449   4.125 -1.4066 -0.1275  4.0422
15058SOL    HW250022   5.875   4.533   4.104 -0.2149 -2.6227  0.1042
15059SOL     OW50023   4.085   5.363   5.176  0.0414  0.2226  0.3756
15059SOL    HW150024   4.079   5.457   5.195  0.1344 -0.2406  3.1762
15059SOL    HW250025   4.114   5.324   5.259  0.9781 -2.1854 -0.9932
15060SOL     OW50026   4.205   8.427   1.228  0.0827 -0.1450  0.3196
15060SOL    HW150027   4.116   8.458   1.209  0.7922  0.9494 -1.4347
15060SOL    HW250028   4.222   8.456   1.318 -1.5959 -1.1098  1.0069
15061SOL     OW50029   5.749   5.622   3.554 -0.0116  0.0539 -0.0871
15061SOL    HW150030   5.709   5.596   3.637  1.9817 -1.4303  0.4778
15061SOL    HW250031   5.801   5.546   3.527  2.0005  1.6445 -0.9959
15062SOL     OW50032   6.563   6.666   4.225  0.0994 -0.4943  0.3523
15062SOL    HW150033   6.576   6.576   4.255 -0.6204 -0.3580  1.1074
15062SOL    HW250034   6.632   6.716   4.268  0.9782 -0.7877 -0.6643
15063SOL     OW50035   3.354   4.768   0.784  0.4133 -0.1747 -0.0293
15063SOL    HW150036   3.428   4.829   0.773  0.4729 -0.2969 -0.3363
15063SOL    HW250037   3.320   4.787   0.871  0.6967  0.0080  0.0454
15064SOL     OW50038   7.071   2.179   3.081 -0.0439  0.3723  0.4054
15064SOL    HW150039   7.138   2.114   3.060 -0.5873 -0.1997  0.4488
15064SOL    HW250040   7.121   2.257   3.105  0.6145  0.3561 -0.8049
15065SOL     OW50041   1.763   1.359   0.699  0.3022  0.9277  0.3672
15065SOL    HW150042   1.747   1.435   0.642  0.3707  1.2669  0.7924
15065SOL    HW250043   1.857   1.363   0.718  0.2453  0.9296  0.6570
15066SOL     OW50044   7.956   0.567   9.707  0.3740 -0.1256 -0.0769
15066SOL    HW150045   7.900   0.521   9.644  0.7224  0.1228 -0.5739
15066SOL    HW250046   7.896   0.623   9.756  0.1411 -0.1123 -0.3790
15067SOL     OW50047   2.803   3.903   8.713  0.4584 -0.1097  0.0150
15067SOL    HW150048   2.810   3.929   8.621  0.3350 -1.9111 -0.5461
15067SOL    HW250049   2.709   3.901   8.731  0.5087  1.4022  0.5656
15068SOL     OW50050   9.449   3.217   5.351 -0.6597 -0.2775 -0.0434
15068SOL    HW150051   9.505   3.145   5.379 -0.7968 -0.0104  0.9548
15068SOL    HW250052   9.468   3.288   5.413  0.4019  1.0112 -1.7479
15069SOL     OW50053   7.652   8.663   8.247  0.2515  0.3576  0.2552
15069SOL    HW150054   7.625   8.748   8.283 -0.4458  0.4959 -0.5771
15069SOL    HW250055   7.682   8.683   8.159  1.2951 -0.0868  0.4970
15070SOL     OW50056   2.236   0.295   3.618  0.2753 -0.4450 -0.1078
15070SOL    HW150057   2.244   0.390   3.612 -1.6470  0.0741  2.8411
15070SOL    HW250058   2.299   0.269   3.685 -2.2852 -0.3968  2.5533
15071SOL     OW50059   5.974   0.982   8.993 -0.8697  0.3997  0.3828
15071SOL    HW150060   6.013   1.069   8.997 -0.8831  0.5533 -1.7159
15071SOL    HW250061   6.042   0.924   9.028 -0.2324  1.0845  0.3019
15072SOL     OW50062   4.396   9.448   6.859  0.3076  0.1326  0.6730
15072SOL    HW150063   4.323   9.503   6.887  0.2399 -0.2612  1.2849
15072SOL    HW250064   4.430   9.491   6.780 -0.5925  0.3105  0.3705
15073SOL     OW50065   6.841   7.018   8.533 -0.1757 -0.1589 -0.4936
15073SOL    HW150066   6.750   6.990   8.525 -0.3652 -0.1245  1.1457
15073SOL    HW250067   6.891   6.937   8.534 -0.2622 -0.2148 -0.6112
15074SOL     OW50068   7.362   1.494   9.534  0.1227  0.3319 -0.0326
15074SOL    HW150069   7.297   1.557   9.504 -1.7702 -0.9356  1.1233
15074SOL    HW250070   7.348   1.417   9.479  0.5907  0.0216  0.2763
15075SOL     OW50071   9.145   5.721   6.380 -0.1127 -0.1483 -0.6088
15075SOL    HW150072   9.215   5.660   6.400 -1.3433 -1.0273  1.2965
15075SOL    HW250073   9.090   5.674   6.317 -0.9567 -0.9714  0.7125
15076SOL     OW50074   3.007   0.039   1.763  0.2480  0.1905  0.2742
15076SOL    HW150075   2.996  -0.042   1.814  2.2188  0.4124  1.1486
15076SOL    HW250076   2.918   0.065   1.740 -0.4410 -2.3787 -0.2939
15077SOL     OW50077   2.993   2.969   8.982  0.1510 -0.2834  0.2895
15077SOL    HW150078   3.039   2.934   8.906 -0.8684  0.7361 -0.8576
15077SOL    HW250079   3.061   3.011   9.035  0.6846  0.3993 -0.8944
15078SOL     OW50080   1.558   6.207   2.014 -0.2399  0.7590 -0.7678
15078SOL    HW150081   1.468   6.213   1.981 -0.7056  0.1454  0.3117
15078SOL    HW250082   1.604   6.155   1.949 -0.8266  0.5786 -1.0457
15079SOL     OW50083   6.391   3.994   7.811  0.4631 -0.1201  0.1422
15079SOL    HW150084   6.322   3.957   7.757 -0.3148  2.6386 -0.8938
15079SOL    HW250085   6.470   3.987   7.757  0.6154 -1.3210  0.4756
15080SOL     OW50086   4.978   2.697   6.499 -0.1478  0.4649 -0.7538
15080SOL    HW150087   5.044   2.765   6.485  0.1495  0.4454  0.4223
15080SOL    HW250088   4.905   2.743   6.540 -0.4779  0.3074 -1.1599
15081SOL     OW50089   6.521   4.404   7.740  0.1806 -0.1281  0.1121
15081SOL    HW150090   6.615   4.385   7.737  0.0112 -0.8930 -0.4394
15081SOL    HW250091   6.500   4.434   7.652  0.1958  1.5659  0.6289
15082SOL     OW50092   3.801   6.335   2.377 -0.2127 -0.0392 -0.5121
15082SOL    HW150093   3.888   6.374   2.378 -0.0873 -0.3087  0.6105
15082SOL    HW250094   3.785   6.312   2.286  0.2652  1.3974 -0.9897
15083SOL     OW50095   3.614   0.324   3.525  0.5587  0.2570 -0.3048
15083SOL    HW150096   3.573   0.246   3.562  0.4819  0.0771 -0.7605
15083SOL    HW250097   3.702   0.326   3.564  0.2641  0.4159  0.3566
15084SOL     OW50098   3.507   7.290   9.014 -0.2314 -0.1449 -0.1630
15084SOL    HW150099   3.434   7.246   8.969 -1.2730  0.4090  0.9371
15084SOL    HW250100   3.525   7.235   9.090  1.3504 -0.9300 -1.0300
15085SOL     OW50101   7.213   6.512   7.789  0.7743  0.1833 -0.4910
15085SOL    HW150102   7.151   6.583   7.808 -0.5435 -0.8057 -0.9106
15085SOL    HW250103   7.236   6.525   7.697 -0.9102 -0.9371 -1.1223
15086SOL     OW50104   1.175   5.349   4.686 -0.1839  0.0109 -0.1506
15086SOL    HW150105   1.091   5.360   4.640 -1.3718  0.3237  1.9453
15086SOL    HW250106   1.167   5.406   4.763  2.4525  0.9494 -0.4711
15087SOL     OW50107   2.712   3.474   3.615 -0.8750  0.2285  0.1689
15087SOL    HW150108   2.727   3.427   3.532  1.4493  0.8020  0.2073
15087SOL    HW250109   2.730   3.409   3.683 -1.8846  0.0200  0.2585
15088SOL     OW50110   9.290   0.528   4.585 -0.1919  0.8697  1.0209
15088SOL    HW150111   9.221   0.588   4.556  1.4279  1.9239 -0.8688
15088SOL    HW250112   9.254   0.441   4.569 -1.2889  1.3764  0.6108
15089SOL     OW50113   7.532   1.328   5.509 -0.5492  0.2205 -0.0366
15089SOL    HW150114   7.539   1.233   5.494 -0.4978  0.4586 -1.7603
15089SOL    HW250115   7.482   1.336   5.590 -0.5684 -1.2818  0.1326
15090SOL     OW50116   9.113   8.626   0.052  0.0524 -0.2977 -0.4679
15090SOL    HW150117   9.071   8.705   0.019 -1.1673 -0.9787 -0.6257
15090SOL    HW250118   9.189   8.657   0.101 -1.4634  1.0979  1.1293
15091SOL     OW50119   2.512   9.441   5.875  0.4529 -0.2829  0.0966
15091SOL    HW150120   2.429   9.401   5.847 -0.2425  1.2378 -0.1127
15091SOL    HW250121   2.501   9.534   5.856  1.9426  0.0525  0.7628
15092SOL     OW50122   0.787   4.291   1.034 -0.1624 -0.1522 -0.7244
15092SOL    HW150123   0.812   4.379   1.008  0.8797 -0.3879 -0.5840
15092SOL    HW250124   0.860   4.236   1.005 -1.2995 -1.1390 -1.8227
15093SOL     OW50125   0.135   9.081   7.604  0.0960 -0.3634  0.3178
15093SOL    HW150126   0.096   8.994   7.603 -0.5238 -0.0942 -0.3351
15093SOL    HW250127   0.198   9.079   7.676 -0.1496 -1.2418  0.5173
15094SOL     OW50128   4.603   2.530   6.418 -0.2928  0.2302  0.1654
15094SOL    HW150129   4.683   2.555   6.372 -1.1426  1.8304 -0.5637
15094SOL    HW250130   4.538   2.520   6.348 -1.5500  2.4563  0.9022
15095SOL     OW50131   9.202   6.104   0.180 -0.4282 -0.4666 -0.2046
15095SOL    HW150132   9.229   6.029   0.232 -2.4758  0.7951  2.9490
15095SOL    HW250133   9.284   6.144   0.150  0.8298 -1.7368  1.3730
15096SOL     OW50134   3.641   6.807   1.002  0.0227 -0.6227  0.3299
15096SOL    HW150135   3.546   6.820   0.996  0.0446 -0.4066  0.4410
15096SOL    HW250136   3.669   6.795   0.912 -0.3149 -2.1547  0.4066
15097SOL     OW50137   8.107   5.474   5.871  0.6216  0.1738 -0.4122
15097SOL    HW150138   8.103   5.454   5.778  0.5577  0.0685 -0.3869
15097SOL    HW250139   8.189   5.524   5.881  0.2120  0.9043 -0.6548
15098SOL     OW50140   1.094   3.050   3.625 -0.1096 -0.3262  0.1479
15098SOL    HW150141   1.013   3.011   3.591  0.5989 -1.0206 -0.7901
15098SOL    HW250142   1.081   3.054   3.720 -2.1281  1.6056 -0.1177
15099SOL     OW50143   7.929   3.009   0.025 -0.4358  0.2742 -0.3901
15099SOL    HW150144   7.945   2.961   0.106 -1.4745 -0.4290 -0.5775
15099SOL    HW250145   7.999   3.074   0.021 -0.1256  0.0384  0.8501
15100SOL     OW50146   4.102   0.806   7.963 -0.2227 -0.0979  0.3372
15100SOL    HW150147   4.026   0.770   7.918  1.0143 -1.3260 -0.8876
15100SOL    HW250148   4.174   0.746   7.941  1.6441  2.3058 -0.5941
15101SOL     OW50149   6.188   8.473   1.289  0.4915 -0.2675 -0.0021
15101SOL    HW150150   6.186   8.525   1.369 -0.2693 -0.6319  0.2297
15101SOL    HW250151   6.274   8.490   1.251  0.5573  0.5295  0.4777
15102SOL     OW50152   6.514   3.657   0.721 -0.3538 -0.5455 -0.5158
15102SOL    HW150153   6.560   3.574   0.722  0.8888  0.1101 -0.9032
15102SOL    HW250154   6.512   3.686   0.813 -0.2969 -0.7354 -0.4561
15103SOL     OW50155   0.454   4.030   5.199  0.2901  0.0815 -0.5677
15103SOL    HW150156   0.410   3.945   5.208 -0.4122  0.5423  0.4908
15103SOL    HW250157   0.386   4.089   5.169  0.6823  0.3769 -0.8952
15104SOL     OW50158   3.354   4.079   3.876 -0.1033  0.1030  0.1318
15104SOL    HW150159   3.268   4.038   3.887  0.5408 -1.2854  0.1968
15104SOL    HW250160   3.394   4.075   3.963  0.4215 -0.1750 -0.1206
15105SOL     OW50161   5.137   9.546   1.175 -0.0957  0.0642  0.6033
15105SOL    HW150162   5.116   9.633   1.208 -2.3580  0.0538 -0.5989
15105SOL    HW250163   5.178   9.502   1.250  2.1318  2.4306  0.9122
15106SOL     OW50164   1.994   0.033   7.602  0.1385  0.3359  0.0705
15106SOL    HW150165   1.946   0.063   7.525  0.7515  1.5016  0.1298
15106SOL    HW250166   2.000  -0.062   7.590  0.4007  0.5167 -1.4151
15107SOL     OW50167   9.134   6.519   3.423  0.1081 -0.1328 -0.5211
15107SOL    HW150168   9.128   6.607   3.386  0.1863 -0.4208 -1.2275
15107SOL    HW250169   9.092   6.527   3.509  0.7073  0.7445 -0.2915
15108SOL     OW50170   7.548   1.711   3.152  0.0542 -0.2418 -0.7316
15108SOL    HW150171   7.453   1.714   3.148  0.0372  0.3781 -0.0325
15108SOL    HW250172   7.568   1.664   3.233  0.3318  0.5134 -0.3489
15109SOL     OW50173   1.305   8.520   0.816  0.8358  0.2757  0.3904
15109SOL    HW150174   1.261   8.492   0.736 -0.4663  2.8118  0.1127
15109SOL    HW250175   1.304   8.443   0.873 -0.2356 -0.9276 -1.1700
15110SOL     OW50176   5.845   7.740   1.775  0.1320 -0.3537  0.0116
15110SOL    HW150177   5.924   7.710   1.819 -0.5459 -1.0427  0.7911
15110SOL    HW250178   5.858   7.717   1.683  0.9636 -0.1728  0.0748
15111SOL     OW50179   8.538   1.112   0.558  0.4493 -0.4529  0.3241
15111SOL    HW150180   8.604   1.084   0.494 -0.4303  0.3389 -0.9718
15111SOL    HW250181   8.456   1.077   0.524 -0.5613  2.6766 -0.8373
15112SOL     OW50182   7.177   3.194   1.957 -0.4716 -0.5109  0.1967
15112SOL    HW150183   7.269   3.220   1.949 -0.1301 -1.6951  0.1116
15112SOL    HW250184   7.168   3.164   2.047 -1.3604  1.6610  0.8995
15113SOL     OW50185   9.343   2.561   6.130  0.5742  0.2356 -0.0668
15113SOL    HW150186   9.365   2.649   6.159 -1.7185  0.5914  0.8654
15113SOL    HW250187   9.356   2.507   6.208  0.1861  0.0905 -0.1018
15114SOL     OW50188   2.881   5.262   8.514  0.3654  0.3756  0.4344
15114SOL    HW150189   2.932   5.227   8.588 -0.4198 -1.0097  0.3618
15114SOL    HW250190   2.887   5.193   8.447  0.0605  1.0848 -0.3363
15115SOL     OW50191   2.057   5.885   9.108 -0.0728  0.2196 -0.8195
15115SOL    HW150192   2.075   5.798   9.144 -0.5888 -0.0308 -1.1676
15115SOL    HW250193   2.035   5.938   9.184  1.3391  0.3357 -0.4658
15116SOL     OW50194   5.729   3.812   1.783  0.5517 -0.7473  0.1330
15116SOL    HW150195   5.791   3.796   1.712  1.2856  0.5649  0.4429
15116SOL    HW250196   5.644   3.821   1.739  0.5230 -2.6297 -0.2885
15117SOL     OW50197   5.793   0.991   1.836 -0.1038 -0.1028 -0.3682
15117SOL    HW150198   5.810   0.927   1.904  0.3460  1.3983  0.9953
15117SOL    HW250199   5.714   1.037   1.865 -2.2360 -1.9172 -2.8098
15118SOL     OW50200   3.594   2.792   8.284 -0.7625 -0.0452 -0.2132
15118SOL    HW150201   3.610   2.885   8.275 -2.8073  0.3248 -0.4553
15118SOL    HW250202   3.640   2.752   8.210  0.1908  0.7291 -0.0596
15119SOL     OW50203   3.293   3.769   0.496 -0.5573 -0.1059 -0.4446
15119SOL    HW150204   3.253   3.683   0.505  0.4772 -0.7128 -1.3031
15119SOL    HW250205   3.382   3.758   0.530 -0.7755  0.9394  0.5154
15120SOL     OW50206   2.240   7.068   4.444  0.0354  0.0542 -0.3423
15120SOL    HW150207   2.304   7.138   4.436  0.8386 -0.7010 -0.7692
15120SOL    HW250208   2.268   7.018   4.521  0.0023 -0.3170 -0.5684
15121SOL     OW50209   6.518   4.845   4.566 -0.1556 -0.3395 -0.1429
15121SOL    HW150210   6.535   4.787   4.491  0.3825 -0.9681  0.4548
15121SOL    HW250211   6.492   4.786   4.636 -0.9138  0.2741  0.1079
15122SOL     OW50212   5.503   5.633   4.776 -0.3240  0.3253  0.0869
15122SOL    HW150213   5.478   5.569   4.709  1.4075 -2.4050  1.8220
15122SOL    HW250214   5.441   5.617   4.848  0.0881  0.6602  0.5169
15123SOL     OW50215   8.248   1.815   3.108 -0.2016  0.4170  0.0952
15123SOL    HW150216   8.199   1.736   3.130  0.5975 -0.4110 -1.0070
15123SOL    HW250217   8.233   1.874   3.183 -1.2827 -0.5328  0.6613
15124SOL     OW50218   5.468   3.427   3.708  0.1522  0.1577 -0.1992
15124SOL    HW150219   5.508   3.426   3.621  2.3216 -1.2188  0.7224
15124SOL    HW250220   5.523   3.369   3.760 -2.5113 -1.0809  1.4965
15125SOL     OW50221   8.740   9.516   3.076  0.1048  0.1469 -0.6490
15125SOL    HW150222   8.708   9.565   3.151  0.2966 -0.4167 -0.1868
15125SOL    HW250223   8.795   9.578   3.028  0.5464  0.3212  0.0627
15126SOL     OW50224   8.142   7.635   6.227  0.2429 -0.1026  0.2346
15126SOL    HW150225   8.205   7.706   6.214  0.9868 -0.7372  0.3197
15126SOL    HW250226   8.194   7.562   6.258 -0.6666 -0.4033  1.1019
15127SOL     OW50227   6.522   3.350   3.839  0.6805 -0.3845  0.2075
15127SOL    HW150228   6.549   3.421   3.897  0.0287 -1.0167  1.3065
15127SOL    HW250229   6.474   3.290   3.895  0.8437 -1.4855 -0.7941
15128SOL     OW50230   1.472   8.505   7.551 -0.5577  0.4139 -0.2136
15128SOL    HW150231   1.519   8.482   7.471  1.4396  0.4313  0.8894
15128SOL    HW250232   1.512   8.451   7.619 -1.3490  1.2980  1.0056
15129SOL     OW50233   5.660   6.147   6.396  0.0212  0.1682  0.7083
15129SOL    HW150234   5.611   6.160   6.315  0.7141  0.3248  0.3024
15129SOL    HW250235   5.687   6.055   6.393 -1.3029 -0.2736  1.5444
15130SOL     OW50236   2.165   7.209   8.893 -0.1057 -0.0631  0.1166
15130SOL    HW150237   2.130   7.121   8.879 -0.2145  0.0753 -0.5399
15130SOL    HW250238   2.256   7.204   8.866  0.2354 -0.2708  1.2477
15131SOL     OW50239   5.245   4.767   4.988  0.2141  0.2546 -0.1494
15131SOL    HW150240   5.186   4.780   5.062  0.0243  0.2083 -0.2890
15131SOL    HW250241   5.299   4.692   5.013  0.0297  0.1274 -0.1316
15132SOL     OW50242   5.606   0.780   4.791  0.3498  0.0490 -0.3620
15132SOL    HW150243   5.636   0.725   4.719  1.0468 -0.2353  0.1361
15132SOL    HW250244   5.517   0.750   4.808  0.2724 -0.0636 -0.9209
15133SOL     OW50245   6.567   3.926   9.601 -0.1468 -0.0792 -0.0004
15133SOL    HW150246   6.514   3.987   9.653  0.6081 -1.1801  2.2113
15133SOL    HW250247   6.511   3.850   9.589  0.5202 -0.8347  1.4530
15134SOL     OW50248   4.750   2.773   6.644  0.6484  0.3145 -0.2370
15134SOL    HW150249   4.671   2.787   6.592 -0.2321 -0.2867  0.8977
15134SOL    HW250250   4.742   2.684   6.678  1.3385  0.5810  0.6732
15135SOL     OW50251   4.442   4.163   9.471 -0.1182  0.1768 -0.0490
15135SOL    HW150252   4.403   4.175   9.384 -2.0679  0.1518  0.7680
15135SOL    HW250253   4.483   4.247   9.490  0.0156  0.3033 -0.8389
15136SOL     OW50254   6.745   7.308   9.197  0.3394  0.6170  0.2756
15136SOL    HW150255   6.781   7.396   9.193 -1.1757  1.2240 -0.5163
15136SOL    HW250256   6.786   7.262   9.123  1.1927  0.5977  0.7398
15137SOL     OW50257   5.137   4.290   8.715 -0.5747 -0.2934  0.4125
15137SOL    HW150258   5.230   4.310   8.705 -0.6486 -0.5468 -1.0561
15137SOL    HW250259   5.134   4.213   8.772  0.6953 -4.6773 -4.6292
15138SOL     OW50260   2.103   8.269   5.447 -0.0417 -0.6571  0.5809
15138SOL    HW150261   2.127   8.306   5.362 -0.7902 -1.9473 -0.2341
15138SOL    HW250262   2.184   8.271   5.497  0.5519 -0.3612 -0.3516
15139SOL     OW50263   8.528   6.233   7.835 -0.6634  0.8133 -0.3555
15139SOL    HW150264   8.504   6.148   7.798 -2.2375  0.3579  1.5214
15139SOL    HW250265   8.450   6.287   7.824 -0.3827  1.3534  0.2397
15140SOL     OW50266   1.488   5.857   8.853 -0.1878  0.3373  0.2442
15140SOL    HW150267   1.410   5.885   8.899 -0.3027 -0.7055  0.7060
15140SOL    HW250268   1.561   5.885   8.909 -0.3183 -0.6997  0.9660
15141SOL     OW50269   1.938   1.976   2.263  0.6813 -0.1560 -0.4503
15141SOL    HW150270   1.842   1.981   2.255  0.4656 -1.9754  0.6562
15141SOL    HW250271   1.970   2.004   2.177 -0.8500 -0.0754 -1.0271
15142SOL     OW50272   8.117   5.188   4.489 -0.0163  0.0927 -0.7068
15142SOL    HW150273   8.078   5.103   4.470  1.1349 -0.6180 -0.0563
15142SOL    HW250274   8.128   5.230   4.404  0.1999 -0.7881 -1.1209
15143SOL     OW50275   5.308   9.118   4.472 -0.0806 -0.2497  0.1103
15143SOL    HW150276   5.287   9.165   4.553 -0.2838 -1.9148  1.0828
15143SOL    HW250277   5.228   9.068   4.453  0.5196 -1.0913 -0.2230
15144SOL     OW50278   4.842   4.942   2.071  0.2172  0.1745 -0.2191
15144SOL    HW150279   4.749   4.949   2.049  0.4045  0.3916 -0.9603
15144SOL    HW250280   4.849   4.857   2.114 -0.1973 -0.1842 -0.8330
15145SOL     OW50281   2.015   5.902   6.553 -0.3335  0.4389  0.6651
15145SOL    HW150282   1.979   5.817   6.528 -1.5520  0.5922  1.8427
15145SOL    HW250283   1.963   5.966   6.504  0.6845  0.5298 -0.3435
15146SOL     OW50284   4.829   4.233   8.622 -0.0488 -0.4828  0.4219
15146SOL    HW150285   4.772   4.309   8.617  0.6846  0.0287 -2.2175
15146SOL    HW250286   4.896   4.256   8.686  0.3434  1.3069 -0.5590
15147SOL     OW50287   7.418   2.655   6.577  0.0320  0.3648  0.3192
15147SOL    HW150288   7.468   2.681   6.499  0.5573  0.0863  0.5569
15147SOL    HW250289   7.485   2.641   6.644 -0.4880  1.9824  1.2360
15148SOL     OW50290   9.316   2.353   1.252 -0.0224 -0.5158  0.1693
15148SOL    HW150291   9.336   2.409   1.327  0.0053  0.4947 -0.5651
15148SOL    HW250292   9.394   2.356   1.197 -0.3741 -0.5022 -0.3425
15149SOL     OW50293   3.547   4.121   0.349  0.0071  0.6723 -0.5127
15149SOL    HW150294   3.527   4.115   0.256 -0.1431 -1.1072 -0.4089
15149SOL    HW250295   3.462   4.128   0.392 -0.1411 -1.3224 -0.3879
15150SOL     OW50296   4.965   2.907   1.037 -0.0485 -0.1001 -0.2141
15150SOL    HW150297   4.989   2.992   0.999  0.2494 -0.2738 -0.4236
15150SOL    HW250298   5.025   2.897   1.112  1.6142 -1.2131 -1.6255
15151SOL     OW50299   5.824   0.490   9.306  0.3129 -0.1623 -0.3215
15151SOL    HW150300   5.799   0.410   9.260  0.3324 -0.4692  0.1926
15151SOL    HW250301   5.750   0.508   9.365  0.4362  0.0314 -0.2234
15152SOL     OW50302   7.871   8.609   2.903 -0.3597 -0.3396  0.5697
15152SOL    HW150303   7.929   8.575   2.834 -0.0722 -0.1331  0.7104
15152SOL    HW250304   7.822   8.680   2.861 -1.3649 -1.2683  0.1120
15153SOL     OW50305   4.799   3.940   6.741  0.3340  0.3672 -0.1955
15153SOL    HW150306   4.856   3.885   6.686  0.7930  1.6219 -1.0336
15153SOL    HW250307   4.779   3.885   6.817 -0.8420 -1.6883 -1.8736
15154SOL     OW50308   3.996   4.003   9.133 -0.0170  0.1552  0.8807
15154SOL    HW150309   3.956   4.082   9.169 -3.5016 -2.0005  2.3191
15154SOL    HW250310   3.952   3.989   9.050  1.6011  0.3869 -0.0585
15155SOL     OW50311   5.039   7.936   2.325 -0.2507 -0.0373 -0.0413
15155SOL    HW150312   5.008   8.014   2.280 -0.7950 -0.9232 -1.2794
15155SOL    HW250313   5.065   7.876   2.254 -0.2937 -1.1439  0.8432
15156SOL     OW50314   5.326   8.706   9.245  0.2330 -0.7107  0.0733
15156SOL    HW150315   5.317   8.755   9.327  1.4804  0.7429 -0.6018
15156SOL    HW250316   5.238   8.673   9.227 -0.6207  1.0124  0.7686
15157SOL     OW50317   8.850   0.025   1.963  0.3569  0.0735  0.0099
15157SOL    HW150318   8.798  -0.053   1.945 -2.2895  1.9499 -1.2162
15157SOL    HW250319   8.823   0.051   2.052 -0.9487  1.0532 -0.6307
15158SOL     OW50320   5.451   3.364   4.201  0.4135 -0.6492  0.3379
15158SOL    HW150321   5.448   3.460   4.200  0.2771 -0.6570 -0.0752
15158SOL    HW250322   5.381   3.338   4.141  0.6896 -1.0039  0.1725
15159SOL     OW50323   0.678   2.588   0.343  0.0453 -0.0472 -0.1737
15159SOL    HW150324   0.733   2.631   0.278  0.2065  1.2800  0.8157
15159SOL    HW250325   0.681   2.645   0.420 -0.2569 -1.4936  0.9623
15160SOL     OW50326   5.194   9.042   9.039 -0.0744 -0.3723 -0.0704
15160SOL    HW150327   5.224   9.130   9.017  1.1110  0.0919  3.0592
15160SOL    HW250328   5.262   8.984   9.005  1.3463  0.2644  1.5681
15161SOL     OW50329   9.493   7.875   7.665 -0.0376 -0.5004  0.0740
15161SOL    HW150330   9.562   7.907   7.608 -0.5737  2.8332  1.0822
15161SOL    HW250331   9.425   7.844   7.605  0.7129 -0.1035 -1.0119
15162SOL     OW50332   9.227   4.930   1.925  0.8196  0.3004  0.1814
15162SOL    HW150333   9.266   4.943   2.011 -0.6825  2.2532  0.6574
15162SOL    HW250334   9.185   4.844   1.929  1.6763 -0.0861  1.0082
15163SOL     OW50335   8.375   8.790   2.353  0.2497  0.5621  0.1085
15163SOL    HW150336   8.390   8.850   2.426 -0.6862  0.5463  0.3361
15163SOL    HW250337   8.389   8.703   2.390 -0.5275  0.5383  0.3606
15164SOL     OW50338   6.596   4.509   1.299 -0.0613 -0.0755 -0.5500
15164SOL    HW150339   6.650   4.432   1.313  0.9188  0.7879  0.5993
15164SOL    HW250340   6.574   4.506   1.205 -2.6730 -3.3604  0.0090
15165SOL     OW50341   2.644   9.639   2.297 -0.1499  0.1423 -0.5648
15165SOL    HW150342   2.557   9.636   2.258 -0.0812  1.3290 -0.8598
15165SOL    HW250343   2.702   9.661   2.225  0.4090 -0.7105 -0.3799
15166SOL     OW50344   4.642   2.635   8.885  0.2352  0.2726 -0.9036
15166SOL    HW150345   4.660   2.674   8.971 -1.8534  0.7115 -0.6230
15166SOL    HW250346   4.564   2.582   8.898  0.1753 -0.0554 -2.4273
15167SOL     OW50347   9.524   3.460   1.335 -0.1105 -0.4218  0.1916
15167SOL    HW150348   9.461   3.454   1.263 -0.3434  1.0708  0.2523
15167SOL    HW250349   9.585   3.528   1.308  0.4251 -0.5935  0.9445
15168SOL     OW50350   0.249   1.999   8.226 -0.0469 -0.5055 -0.0194
15168SOL    HW150351   0.277   1.952   8.305  1.2955  0.2124 -0.0350
15168SOL    HW250352   0.262   1.936   8.155  0.3459 -0.6133  0.1418
15169SOL     OW50353   5.741   7.615   7.555 -0.0991 -0.0875  0.6304
15169SOL    HW150354   5.694   7.693   7.582 -1.0644 -0.2769 -0.4628
15169SOL    HW250355   5.809   7.604   7.622  1.1057  2.5839 -0.0463
15170SOL     OW50356   9.124   7.492   6.524 -0.9583 -0.2272  0.3442
15170SOL    HW150357   9.167   7.486   6.609  1.1183  1.6337 -0.4912
15170SOL    HW250358   9.112   7.586   6.509 -3.3059 -0.5926 -0.5010
15171SOL     OW50359   2.687   2.858   2.740  0.4595  0.2938  0.5403
15171SOL    HW150360   2.754   2.883   2.676  0.3422 -1.9258 -0.5328
15171SOL    HW250361   2.619   2.816   2.688  0.3857 -1.6480  2.1071
15172SOL     OW50362   8.296   5.101   3.465 -0.2143 -0.1469  0.1611
15172SOL    HW150363   8.384   5.064   3.460 -0.3521 -0.3462 -1.1904
15172SOL    HW250364   8.240   5.027   3.491 -0.1163 -0.2513  0.0749
15173SOL     OW50365   8.461   4.879   2.715  0.3413  0.4311  0.7929
15173SOL    HW150366   8.461   4.819   2.640  0.3119  1.3584  0.0313
15173SOL    HW250367   8.369   4.889   2.739  0.1555  1.6856 -0.3436
15174SOL     OW50368   3.721   4.255   2.105 -0.7008 -0.2419  0.0769
15174SOL    HW150369   3.650   4.228   2.164 -0.9667  1.3122  0.5013
15174SOL    HW250370   3.744   4.175   2.058 -0.6561 -1.4821  2.0912
15175SOL     OW50371   5.722   0.406   0.996  0.0421 -0.0009  0.2200
15175SOL    HW150372   5.794   0.469   0.997 -1.0194  1.3482 -1.5611
15175SOL    HW250373   5.695   0.404   0.904 -2.4350 -0.1436  0.8973
15176SOL     OW50374   6.925   6.141   0.708  0.6139  0.1670 -0.0166
15176SOL    HW150375   6.842   6.105   0.741  1.6034 -0.5399  1.8981
15176SOL    HW250376   6.942   6.217   0.764  0.2671  1.6217 -1.7837
15177SOL     OW50377   9.099   5.117   4.939  0.3445 -0.0116 -0.7977
15177SOL    HW150378   9.095   5.201   4.893  1.4220  2.2661  2.8219
15177SOL    HW250379   9.029   5.121   5.004  1.7740 -0.8739  0.9024
15178SOL     OW50380   2.635   0.733   2.261 -0.2692  0.4099  0.0088
15178SOL    HW150381   2.558   0.695   2.219 -0.3071 -0.4789  0.8610
15178SOL    HW250382   2.666   0.666   2.321  3.0644 -0.5867 -2.5148
15179SOL     OW50383   6.613   3.556   4.008  0.2824  0.0969 -0.5919
15179SOL    HW150384   6.708   3.550   4.012  0.2505 -0.3935 -0.5180
15179SOL    HW250385   6.595   3.596   3.923  0.5091 -1.0611 -1.2095
15180SOL     OW50386   4.900   3.285   0.807  0.3689  0.3397 -0.4061
15180SOL    HW150387   4.974   3.339   0.832 -0.4810  0.7828  1.3300
15180SOL    HW250388   4.936   3.198   0.795  1.2406  0.6285  0.0424
15181SOL     OW50389   4.208   7.694   6.152  0.1195  0.7714  0.4968
15181SOL    HW150390   4.232   7.644   6.230  1.0297 -0.4526 -0.5270
15181SOL    HW250391   4.235   7.783   6.171  0.1245  0.5356  1.6582
15182SOL     OW50392   1.977   4.507   1.519 -0.7344 -0.2023  0.0718
15182SOL    HW150393   1.907   4.573   1.519 -1.6320 -1.1111  1.3185
15182SOL    HW250394   1.932   4.424   1.506  0.3425 -0.6354 -1.0523
15183SOL     OW50395   5.900   2.960   3.025 -0.6537 -0.2654  0.0342
15183SOL    HW150396   5.939   3.010   3.097  0.1586  0.1982 -0.7116
15183SOL    HW250397   5.964   2.891   3.007 -1.2370 -0.8838  0.2888
15184SOL     OW50398   8.393   9.038   8.486  0.6148  0.1007  0.5339
15184SOL    HW150399   8.393   9.114   8.427 -2.1068  1.7023  2.3588
15184SOL    HW250400   8.411   9.075   8.573 -1.1215 -1.2183  1.5346
15185SOL     OW50401   0.755   6.748   7.902  0.1302 -0.4840  0.2792
15185SOL    HW150402   0.850   6.752   7.911 -0.0347 -0.0124  2.0495
15185SOL    HW250403   0.738   6.789   7.817  1.4953 -0.3928  0.0255
15186SOL     OW50404   4.339   5.357   5.666  0.3522 -0.2964 -0.4552
15186SOL    HW150405   4.346   5.301   5.743  0.8663  0.5593  0.1422
15186SOL    HW250406   4.423   5.403   5.662 -0.9813  2.4551  0.7029
15187SOL     OW50407   0.026   5.374   4.519 -0.4383  0.0221 -0.5039
15187SOL    HW150408  -0.015   5.316   4.584  0.6541 -3.3287 -2.5502
15187SOL    HW250409  -0.047   5.405   4.465 -0.9853 -0.1625  0.1165
15188SOL     OW50410   0.451   7.020   5.298  0.1390  0.0895  0.5587
15188SOL    HW150411   0.535   7.060   5.275 -0.0909  0.0698 -0.3328
15188SOL    HW250412   0.386   7.089   5.283 -0.1244 -0.2368  0.1622
15189SOL     OW50413   3.900   6.474   8.019 -0.3216  0.1077  0.5171
15189SOL    HW150414   3.905   6.567   8.037 -0.1082  0.3692 -0.7641
15189SOL    HW250415   3.955   6.461   7.941  1.2814 -1.4297  1.8237
15190SOL     OW50416   7.153   2.416   3.134 -0.3678 -0.0672  0.5397
15190SOL    HW150417   7.179   2.437   3.044  0.5998 -1.5454  0.4432
15190SOL    HW250418   7.215   2.465   3.189 -0.6308  0.4295  0.3934
15191SOL     OW50419   3.171   4.947   4.107 -0.3616  0.4664  0.1328
15191SOL    HW150420   3.227   4.870   4.123 -2.7846 -0.9386  2.9986
15191SOL    HW250421   3.209   5.015   4.162 -1.3217 -0.5061  2.1331
15192SOL     OW50422   2.341   1.525   0.738  0.1344  0.2517 -0.6251
15192SOL    HW150423   2.413   1.582   0.767 -0.1454  0.6033 -0.6163
15192SOL    HW250424   2.305   1.489   0.819 -0.6038  1.1815 -0.5149
15193SOL     OW50425   4.396   2.191   9.405 -1.0166 -0.1305 -0.1114
15193SOL    HW150426   4.330   2.163   9.468 -0.8510 -1.1711 -0.3803
15193SOL    HW250427   4.479   2.188   9.453 -0.9783 -0.2878 -0.1830
15194SOL     OW50428   7.097   7.099   5.585  0.9367 -0.0857  0.0949
15194SOL    HW150429   7.039   7.101   5.662  1.3209 -0.2023  0.3908
15194SOL    HW250430   7.041   7.124   5.512  0.1872 -1.4708  0.1667
15195SOL     OW50431   6.629   2.380   8.259  0.1452 -0.1293  0.3682
15195SOL    HW150432   6.692   2.371   8.188  1.7155 -2.0960  1.8930
15195SOL    HW250433   6.582   2.297   8.260 -1.5406  0.7765  0.1641
15196SOL     OW50434   8.688   4.853   3.917 -0.0226 -0.1135  0.1863
15196SOL    HW150435   8.623   4.821   3.978 -1.7569  1.9070 -0.4840
15196SOL    HW250436   8.651   4.836   3.830 -0.6867  2.7704 -0.2069
15197SOL     OW50437   5.462   9.225   8.557 -0.1558 -0.1583 -0.0727
15197SOL    HW150438   5.510   9.291   8.507 -0.8447  0.1768 -0.3060
15197SOL    HW250439   5.473   9.144   8.508 -1.4077  0.3065 -1.1714
15198SOL     OW50440   6.007   5.497   6.832  0.2213 -0.0188  0.1698
15198SOL    HW150441   6.012   5.492   6.927 -0.1983 -1.1357  0.1502
15198SOL    HW250442   6.044   5.582   6.810  0.6156  0.1145  1.3056
15199SOL     OW50443   5.461   9.539   5.678  0.0532  0.0407  0.5566
15199SOL    HW150444   5.457   9.473   5.609 -1.6821 -0.6748  1.2945
15199SOL    HW250445   5.391   9.601   5.657 -0.3039 -0.0280  1.4996
15200SOL     OW50446   5.845   4.617   0.817 -0.1683  0.1039 -0.5525
15200SOL    HW150447   5.907   4.547   0.795 -1.1710 -1.9714  2.5790
15200SOL    HW250448   5.762   4.571   0.835 -0.4239  1.7172  3.4542
15201SOL     OW50449   5.499   7.531   0.310 -0.5149  0.2321  0.4231
15201SOL    HW150450   5.435   7.502   0.246 -2.8902 -0.1403  2.7897
15201SOL    HW250451   5.508   7.457   0.371  3.3264 -0.2915 -0.5009
15202SOL     OW50452   4.496   1.306   5.430  0.3135 -0.5158 -0.5843
15202SOL    HW150453   4.471   1.307   5.522 -1.1868  1.0721 -0.9594
15202SOL    HW250454   4.592   1.304   5.431  0.4521  2.0373  1.0922
15203SOL     OW50455   8.901   9.356   0.813 -0.6239 -0.2562 -0.0559
15203SOL    HW150456   8.977   9.348   0.871 -0.8522 -0.5864  0.2041
15203SOL    HW250457   8.898   9.272   0.768 -1.9030 -0.9675  1.2648
15204SOL     OW50458   0.193   2.452   9.120 -0.3512  0.2672 -0.2149
15204SOL    HW150459   0.164   2.525   9.175 -2.3827  0.7751 -1.8534
15204SOL    HW250460   0.287   2.469   9.106 -0.1557  1.0012  1.6747
15205SOL     OW50461   5.987   9.117   2.147  0.9221 -0.4523 -0.2408
15205SOL    HW150462   6.016   9.037   2.192  1.5515 -0.1800 -0.1382
15205SOL    HW250463   6.066   9.171   2.143  0.5146  0.1412 -0.3581
15206SOL     OW50464   4.309   2.337   8.783  0.1123 -0.1033 -0.4104
15206SOL    HW150465   4.330   2.399   8.853  1.0716 -1.0883  0.2184
15206SOL    HW250466   4.292   2.392   8.707 -0.6503  0.9886  0.5032
15207SOL     OW50467   5.242   3.450   8.961  0.2522 -0.3059  0.5087
15207SOL    HW150468   5.302   3.524   8.967  0.4972 -0.5762  1.7796
15207SOL    HW250469   5.203   3.443   9.048 -0.0500 -1.4229  0.3084
15208SOL     OW50470   8.820   5.670   3.165  0.1781 -0.4767  0.0998
15208SOL    HW150471   8.798   5.764   3.168 -0.0483 -0.5345  0.2523
15208SOL    HW250472   8.855   5.651   3.252  0.0812 -0.5686  0.1190
15209SOL     OW50473   4.367   4.276   5.227  0.5028  0.7406  0.9686
15209SOL    HW150474   4.314   4.346   5.189  0.4406 -0.2760 -0.9430
15209SOL    HW250475   4.457   4.309   5.223  0.3034  1.3803  1.6675
15210SOL     OW50476   5.162   4.305   7.016 -0.3651 -0.0319 -0.2555
15210SOL    HW150477   5.121   4.391   7.020  0.3305  0.2638  2.5516
15210SOL    HW250478   5.089   4.243   7.019 -0.7872  0.4657 -0.1616
15211SOL     OW50479   3.788   9.436   7.947  0.5577  0.0937  0.1400
15211SOL    HW150480   3.789   9.532   7.944 -0.6003  0.1050 -0.8658
15211SOL    HW250481   3.723   9.411   7.882 -0.4551 -1.3159  1.5983
15212SOL     OW50482   8.878   5.757   8.733 -0.3116  0.4025 -0.2404
15212SOL    HW150483   8.954   5.793   8.688  0.3518 -0.7591 -0.1111
15212SOL    HW250484   8.881   5.797   8.820 -0.7378  1.5192 -0.7243
15213SOL     OW50485   9.688   0.407   2.426 -0.1143  0.6879 -0.2815
15213SOL    HW150486   9.674   0.419   2.520  1.4693 -0.6376  0.1915
15213SOL    HW250487   9.602   0.419   2.387 -0.7782  1.4546  1.3193
15214SOL     OW50488   6.376   0.870   6.676 -0.1250 -0.0819 -0.6336
15214SOL    HW150489   6.317   0.893   6.748 -0.9792 -1.5293 -0.8179
15214SOL    HW250490   6.412   0.953   6.646 -1.6605  0.7964 -0.1504
15215SOL     OW50491   3.823   4.088   6.813 -0.7795 -0.3676  0.8083
15215SOL    HW150492   3.870   4.093   6.895  1.1057  1.9061 -0.2941
15215SOL    HW250493   3.886   4.117   6.747 -2.4849 -1.2434 -1.3356
15216SOL     OW50494   5.470   0.982   2.501 -0.1742 -0.0083  0.5327
15216SOL    HW150495   5.537   1.024   2.555  0.7036  0.2753 -0.7150
15216SOL    HW250496   5.387   1.004   2.543  0.4025  1.2787  1.0460
15217SOL     OW50497   2.642   7.995   2.857  0.3518 -0.0432  0.2072
15217SOL    HW150498   2.591   8.066   2.896  3.7517  1.9915  1.4657
15217SOL    HW250499   2.631   8.006   2.763 -3.4429 -1.4018  0.3376
15218SOL     OW50500   7.508   7.578   3.117 -0.4809  0.2446 -0.2009
15218SOL    HW150501   7.539   7.637   3.186  0.4140 -0.2901 -0.1323
15218SOL    HW250502   7.587   7.555   3.068 -0.7889 -1.0424 -0.1187
15219SOL     OW50503   0.266   4.856   2.107 -0.2963 -0.0276  0.0047
15219SOL    HW150504   0.304   4.842   2.194 -0.7051 -2.5676 -0.1351
15219SOL    HW250505   0.174   4.830   2.117 -1.5246  3.6344 -0.2483
15220SOL     OW50506   4.000   4.071   5.561 -0.0944 -0.3536 -0.1870
15220SOL    HW150507   4.062   4.108   5.498  1.2630 -1.0881  0.6543
15220SOL    HW250508   3.985   4.142   5.624  0.7016 -0.4737  0.1529
15221SOL     OW50509   4.987   6.793   0.013 -0.2748 -0.0136 -0.4293
15221SOL    HW150510   4.979   6.863   0.078  1.2773 -0.6451  0.4794
15221SOL    HW250511   4.936   6.824  -0.062 -0.4238  1.6354  0.3200
15222SOL     OW50512   2.871   6.626   0.165  0.5197  0.2151  0.4098
15222SOL    HW150513   2.832   6.579   0.091  0.7496  0.3883  0.1784
15222SOL    HW250514   2.899   6.557   0.226 -1.0328  0.0994  1.0430
15223SOL     OW50515   6.432   2.018   8.854 -0.4356 -0.4440 -0.4198
15223SOL    HW150516   6.501   2.051   8.911  1.8381  1.1750 -3.7562
15223SOL    HW250517   6.465   1.934   8.821 -0.7291 -0.3813 -0.8958
15224SOL     OW50518   8.361   5.956   0.472 -0.1490 -0.7484  0.4542
15224SOL    HW150519   8.357   5.919   0.560 -3.4557 -1.7272  0.0504
15224SOL    HW250520   8.324   6.044   0.481 -0.9663 -1.0331  0.0223
15225SOL     OW50521   8.537   6.464   1.998 -0.1633  0.6600  0.1536
15225SOL    HW150522   8.626   6.493   1.978  0.4925 -1.8145 -0.8248
15225SOL    HW250523   8.538   6.444   2.091  0.8995 -1.1151 -0.1988
15226SOL     OW50524   4.508   0.282   1.215  0.6135  0.0793 -0.3101
15226SOL    HW150525   4.493   0.227   1.138 -0.4567 -0.2850  0.1451
15226SOL    HW250526   4.590   0.249   1.252  1.1567  0.2767 -1.2966
15227SOL     OW50527   9.691   5.879   0.622 -0.4736  0.1953 -0.0246
15227SOL    HW150528   9.758   5.935   0.662 -0.3942 -0.1927  0.4052
15227SOL    HW250529   9.734   5.793   0.614 -0.4163  0.3252 -1.1632
15228SOL     OW50530   1.475   6.486   7.160 -0.3388  0.2332 -0.0152
15228SOL    HW150531   1.564   6.510   7.186 -0.1568  1.5592 -1.7165
15228SOL    HW250532   1.427   6.568   7.157 -0.3486  0.2291 -3.5997
15229SOL     OW50533   4.516   6.553   0.806  0.0028 -0.2918 -0.2398
15229SOL    HW150534   4.436   6.575   0.759  0.8684 -0.0321 -1.6694
15229SOL    HW250535   4.487   6.501   0.881 -1.4919 -0.1334 -0.6795
15230SOL     OW50536   8.838   9.127   4.796 -0.1682 -0.8054  0.3274
15230SOL    HW150537   8.880   9.208   4.827 -0.0219 -0.2688 -1.1770
15230SOL    HW250538   8.838   9.069   4.872 -2.9130  1.5815  2.3762
15231SOL     OW50539   2.027   9.489   2.844  0.2090 -0.3155 -0.0300
15231SOL    HW150540   2.018   9.395   2.863  0.8409 -0.1875  1.0025
15231SOL    HW250541   1.975   9.532   2.911 -0.1690  0.0838 -0.5692
15232SOL     OW50542   4.951   4.928   8.128 -0.2817  0.2608  0.1948
15232SOL    HW150543   4.916   5.017   8.125  0.7800  0.6833 -0.3979
15232SOL    HW250544   4.881   4.875   8.167 -0.3343  1.6209  2.0550
15233SOL     OW50545   9.695   8.404   0.959 -0.2876  0.4943 -0.6581
15233SOL    HW150546   9.754   8.467   1.000 -0.2138 -1.1943  2.0382
15233SOL    HW250547   9.607   8.436   0.979 -0.3711  1.8447 -2.8333
15234SOL     OW50548   8.115   6.200   3.877 -0.0715 -0.1824  0.3304
15234SOL    HW150549   8.097   6.119   3.924  0.5888 -1.1218 -0.9621
15234SOL    HW250550   8.210   6.207   3.874 -0.1143  0.9670  0.9243
15235SOL     OW50551   6.545   7.050   5.546 -0.2964 -0.3590  0.6183
15235SOL    HW150552   6.468   7.103   5.527 -0.6663 -1.0488  0.1509
15235SOL    HW250553   6.583   7.031   5.461  1.0785  0.9504  0.9069
15236SOL     OW50554   8.811   1.839   9.170 -0.3068 -0.2810  0.2074
15236SOL    HW150555   8.896   1.795   9.160  0.0180  0.3617  0.0721
15236SOL    HW250556   8.828   1.929   9.144 -0.5543  0.3528  2.1272
15237SOL     OW50557   3.610   6.572   6.318  0.0933 -0.3245  0.8380
15237SOL    HW150558   3.580   6.550   6.406  0.0822  0.3729  1.0100
15237SOL    HW250559   3.706   6.568   6.324  0.1180 -2.8961  0.2026
15238SOL     OW50560   3.254   7.849   3.576 -0.0575  0.1520 -0.7986
15238SOL    HW150561   3.314   7.901   3.629  0.3830 -2.0390  1.0216
15238SOL    HW250562   3.219   7.910   3.511  0.3401  2.6636  1.2250
15239SOL     OW50563   0.473   1.092   2.067 -0.3173 -0.6856  0.1664
15239SOL    HW150564   0.425   1.158   2.117  1.1293 -0.5103  1.4001
15239SOL    HW250565   0.544   1.141   2.024 -0.6862 -1.0657 -0.9037
15240SOL     OW50566   7.085   2.607   7.728  0.3776  0.0247 -0.5544
15240SOL    HW150567   7.043   2.530   7.691 -4.6482  2.5734 -1.1108
15240SOL    HW250568   7.086   2.671   7.656  0.8977  1.6126  0.7880
15241SOL     OW50569   8.939   5.718   7.562 -0.1101  0.2571  0.2392
15241SOL    HW150570   8.936   5.803   7.517 -0.1844  0.9060  1.4381
15241SOL    HW250571   9.028   5.713   7.597 -0.5063  0.4607  1.3070
15242SOL     OW50572   1.003   5.440   1.216  0.6898  0.3538  0.0785
15242SOL    HW150573   1.089   5.474   1.189  1.0101 -0.5275 -0.0374
15242SOL    HW250574   0.962   5.412   1.135  0.1830  0.9823  0.1074
15243SOL     OW50575   4.759   2.370   4.004 -0.0906 -0.4947  0.1743
15243SOL    HW150576   4.773   2.307   4.074  0.5721 -0.1473  0.3592
15243SOL    HW250577   4.708   2.441   4.044 -1.3403 -1.1594 -0.1771
15244SOL     OW50578   7.602   2.116   7.991  0.3495  0.2826 -0.0447
15244SOL    HW150579   7.577   2.033   8.032  2.0902  0.0372  0.5953
15244SOL    HW250580   7.554   2.182   8.040 -1.2427 -0.3209 -0.7128
15245SOL     OW50581   6.410   0.652   0.924 -0.0658  0.3423  0.4934
15245SOL    HW150582   6.409   0.748   0.932 -0.1346  0.3988 -0.1107
15245SOL    HW250583   6.339   0.633   0.863  0.2749 -0.0529  0.2137
15246SOL     OW50584   2.634   4.937   0.613 -0.0715 -0.2216  0.2816
15246SOL    HW150585   2.573   5.003   0.581 -2.6105 -1.8209  1.4722
15246SOL    HW250586   2.638   4.951   0.707  2.1252  0.3367  0.1621
15247SOL     OW50587   3.456   1.980   0.024  0.1504  0.5432  0.2140
15247SOL    HW150588   3.393   1.923  -0.020 -0.5290  0.7423  0.9051
15247SOL    HW250589   3.542   1.942   0.003 -0.3123 -1.2707  1.3426
15248SOL     OW50590   1.879   7.700   2.118  0.2167 -0.2432 -0.4584
15248SOL    HW150591   1.940   7.726   2.049  1.4721  0.0611  0.7217
15248SOL    HW250592   1.838   7.781   2.147  0.6956 -0.1666  0.0434
15249SOL     OW50593   1.883   0.982   5.144  0.5067 -0.3976 -0.0188
15249SOL    HW150594   1.959   1.003   5.198 -0.8055  1.4726  1.2322
15249SOL    HW250595   1.896   1.031   5.063  0.0299  1.0633  0.7493
15250SOL     OW50596   4.713   8.999   9.610 -0.0241  0.2050  0.3953
15250SOL    HW150597   4.786   9.023   9.553 -0.9279 -1.8109 -1.8200
15250SOL    HW250598   4.694   9.078   9.660  1.0410  2.0774 -1.9428
15251SOL     OW50599   3.121   4.608   5.012 -0.1266 -0.3498 -0.1598
15251SOL    HW150600   3.092   4.696   5.037  0.3884 -0.4702  0.8801
15251SOL    HW250601   3.085   4.550   5.079 -0.6811 -0.9927 -0.9783
15252SOL     OW50602   1.201   1.952   4.537 -0.5500  0.7406 -0.3151
15252SOL    HW150603   1.235   1.934   4.625 -0.9119 -0.9020 -0.4763
15252SOL    HW250604   1.268   1.918   4.479 -1.8062 -1.3633 -0.6374
15253SOL     OW50605   4.576   4.792   3.716  0.1556 -0.3967  0.1490
15253SOL    HW150606   4.542   4.799   3.806 -0.2711 -1.9423  0.1450
15253SOL    HW250607   4.665   4.825   3.722  0.0779 -0.3114  1.1058
15254SOL     OW50608   3.410   2.150   2.258  0.2061 -0.1370  0.5319
15254SOL    HW150609   3.341   2.211   2.284 -1.5740 -0.5896 -2.6475
15254SOL    HW250610   3.367   2.065   2.257  1.7581 -0.9828  1.6541
15255SOL     OW50611   4.229   4.333   2.918 -0.1741  0.0457 -0.1120
15255SOL    HW150612   4.269   4.331   3.005 -0.2200  0.3457 -0.0840
15255SOL    HW250613   4.154   4.273   2.924  1.2884 -1.9725 -0.6665
15256SOL     OW50614   5.502   5.114   0.993 -0.1860 -0.1493  0.4242
15256SOL    HW150615   5.464   5.133   1.079 -1.6754  1.4499 -0.5345
15256SOL    HW250616   5.498   5.197   0.946  1.7539 -0.6901 -0.7931
15257SOL     OW50617   0.209   1.736   6.170 -0.4155  0.6739  0.1925
15257SOL    HW150618   0.244   1.793   6.238 -0.7165  0.1589  0.7890
15257SOL    HW250619   0.125   1.776   6.146 -0.1705  1.0224 -0.1001
15258SOL     OW50620   6.171   7.119   4.545 -0.4049  0.5059 -0.7165
15258SOL    HW150621   6.142   7.033   4.574 -1.0166  0.1839 -2.1826
15258SOL    HW250622   6.178   7.171   4.625 -4.4668  0.4238 -0.1097
15259SOL     OW50623   3.777   8.133   8.811  0.2877 -0.1279  0.0823
15259SOL    HW150624   3.777   8.206   8.749  0.3551 -0.5189 -0.3893
15259SOL    HW250625   3.815   8.168   8.891 -1.6527  0.9527  0.5927
15260SOL     OW50626   5.320   0.570   6.083 -0.4036 -0.2092 -0.0044
15260SOL    HW150627   5.264   0.608   6.151 -1.1452  0.7931 -1.1296
15260SOL    HW250628   5.334   0.480   6.112 -0.7069  0.1799  1.4569
15261SOL     OW50629   6.184   5.616   8.272  0.6664 -0.1958 -0.2754
15261SOL    HW150630   6.175   5.582   8.362 -3.1593  0.9250 -0.0521
15261SOL    HW250631   6.251   5.560   8.232  1.2659 -1.8632  2.7391
15262SOL     OW50632   7.413   9.338   6.851 -0.2738  0.2319 -0.1211
15262SOL    HW150633   7.347   9.362   6.916 -1.5309 -0.6471 -1.0346
15262SOL    HW250634   7.466   9.417   6.841  0.5486  0.1339  2.5995
15263SOL     OW50635   1.438   9.707   5.838  0.1504  0.6701  0.3183
15263SOL    HW150636   1.489   9.643   5.887  0.9021  2.2662  1.7020
15263SOL    HW250637   1.480   9.709   5.752  1.9999  1.3819  1.1772
15264SOL     OW50638   7.665   8.521   6.340  0.0172 -0.1717  0.1373
15264SOL    HW150639   7.712   8.438   6.349 -1.3588 -0.9269  0.6324
15264SOL    HW250640   7.592   8.502   6.281 -1.4034  0.1610  1.7019
15265SOL     OW50641   5.815   6.591   3.881  0.1672  0.7719 -0.5240
15265SOL    HW150642   5.818   6.643   3.801  2.6999 -0.1257 -1.1227
15265SOL    HW250643   5.890   6.623   3.932 -0.2798  0.0337  0.6271
15266SOL     OW50644   2.585   8.222   0.968 -0.5977  0.6933  0.0810
15266SOL    HW150645   2.511   8.265   1.011 -0.3748  1.2709 -0.0885
15266SOL    HW250646   2.618   8.288   0.907 -0.3752  0.1946 -0.3461
15267SOL     OW50647   1.630   2.226   2.866 -0.0758 -0.3102 -0.0587
15267SOL    HW150648   1.672   2.305   2.831  0.7091 -0.7339 -0.0807
15267SOL    HW250649   1.613   2.172   2.789  1.8099 -1.3200  0.1859
15268SOL     OW50650   1.318   6.716   7.260  0.0814 -0.6113 -0.3356
15268SOL    HW150651   1.363   6.692   7.341 -1.4752  0.7079  0.9793
15268SOL    HW250652   1.225   6.706   7.279 -0.3390 -0.0569 -1.8975
15269SOL     OW50653   8.801   1.841   6.160  0.1088 -0.6492 -0.4391
15269SOL    HW150654   8.819   1.933   6.143  1.8738 -0.5173  1.7479
15269SOL    HW250655   8.790   1.802   6.073 -3.6255  2.0492 -1.4583
15270SOL     OW50656   6.042   5.574   2.671 -0.0427  0.3878 -0.5174
15270SOL    HW150657   5.980   5.574   2.744  0.1546  1.0414 -0.3419
15270SOL    HW250658   6.104   5.504   2.692  1.1184  1.7864  0.9148
15271SOL     OW50659   5.589   0.085   1.761  0.6340 -0.3416  0.0601
15271SOL    HW150660   5.666   0.037   1.792  1.8372  0.9799 -0.7399
15271SOL    HW250661   5.604   0.175   1.789 -0.1077  0.1396 -1.0184
15272SOL     OW50662   1.580   9.155   8.005 -0.1668 -0.3521  0.4800
15272SOL    HW150663   1.595   9.227   7.943  0.7341 -0.6735  0.3150
15272SOL    HW250664   1.640   9.086   7.977 -0.8348 -1.0790  0.8012
15273SOL     OW50665   7.706   1.991   5.124 -0.6336 -0.1826  0.0195
15273SOL    HW150666   7.670   1.937   5.054 -0.4931  0.3531 -0.4679
15273SOL    HW250667   7.741   1.927   5.187 -1.3474 -0.6815 -0.0730
15274SOL     OW50668   7.789   8.126   1.347 -0.0696 -0.5963  0.3503
15274SOL    HW150669   7.871   8.173   1.331 -1.7014  2.6623  0.7011
15274SOL    HW250670   7.808   8.036   1.323  3.2386  0.2540 -0.7578
15275SOL     OW50671   4.521   6.437   0.174 -0.1059 -0.2589  0.9895
15275SOL    HW150672   4.552   6.361   0.223  0.4599  0.9202  2.5597
15275SOL    HW250673   4.467   6.486   0.237 -1.7137 -0.0980 -0.4365
15276SOL     OW50674   6.337   6.958   2.942  0.3658 -0.4165  0.0797
15276SOL    HW150675   6.299   7.034   2.897  1.0997  1.0332  1.7877
15276SOL    HW250676   6.294   6.882   2.902 -1.0532  0.9328 -1.0663
15277SOL     OW50677   0.758   1.626   8.403 -0.4101  0.1426  0.2524
15277SOL    HW150678   0.808   1.695   8.445 -0.1155 -0.1421  0.3707
15277SOL    HW250679   0.795   1.619   8.315  0.8014 -1.1063  0.8277
15278SOL     OW50680   2.346   4.364   6.746  0.1521 -0.0957 -0.4821
15278SOL    HW150681   2.381   4.427   6.683  1.5040 -0.3543 -0.0348
15278SOL    HW250682   2.361   4.279   6.706 -0.5681 -0.1885 -0.5603
15279SOL     OW50683   0.819   6.154   2.839 -0.5862  0.0411  0.2446
15279SOL    HW150684   0.755   6.169   2.770 -0.6023 -0.4598  0.1449
15279SOL    HW250685   0.793   6.071   2.878  1.3699 -1.4290 -1.3730
15280SOL     OW50686   7.787   7.987   4.900 -0.3781 -0.3357  0.5377
15280SOL    HW150687   7.848   7.927   4.942  2.2079  0.4508 -1.7478
15280SOL    HW250688   7.827   8.073   4.911 -0.9723  0.1991 -1.1241
15281SOL     OW50689   2.042   0.039   9.525 -0.2814 -0.4813 -0.1619
15281SOL    HW150690   2.009   0.009   9.610  0.0192  1.8187  0.8596
15281SOL    HW250691   1.966   0.037   9.467 -1.1357  0.2796  0.8811
15282SOL     OW50692   3.710   4.639   4.196  0.2676 -0.1913  0.1338
15282SOL    HW150693   3.631   4.584   4.197 -0.0203  0.1633 -1.2179
15282SOL    HW250694   3.695   4.702   4.267  0.3526 -1.4768  1.3332
15283SOL     OW50695   2.294   5.326   3.017  0.2163  0.4609  0.2978
15283SOL    HW150696   2.328   5.334   2.929 -1.1889  2.1695 -0.1445
15283SOL    HW250697   2.199   5.327   3.007  0.0154  1.0151  1.8228
15284SOL     OW50698   0.041   2.436   3.956 -0.6514  0.3240  0.3214
15284SOL    HW150699   0.137   2.440   3.957 -0.5389 -1.3580 -0.8337
15284SOL    HW250700   0.014   2.491   4.030  1.0970  2.8432 -0.7622
15285SOL     OW50701   9.028   9.480   7.080  0.3137 -0.3592  0.4052
15285SOL    HW150702   9.046   9.442   6.993  1.6838 -0.2108  0.6045
15285SOL    HW250703   9.035   9.574   7.067 -0.2002 -0.2980  0.5373
15286SOL     OW50704   6.854   6.781   9.352 -0.5095 -0.0153  0.3255
15286SOL    HW150705   6.932   6.747   9.309 -0.3588  0.5181  0.1629
15286SOL    HW250706   6.859   6.876   9.339 -1.2366  0.0200  0.2193
15287SOL     OW50707   3.322   0.918   7.693 -0.1020 -0.1203  0.2217
15287SOL    HW150708   3.338   0.981   7.763  2.1275 -0.1808 -0.1495
15287SOL    HW250709   3.278   0.969   7.625 -2.7122 -0.1647  1.7527
15288SOL     OW50710   8.050   4.773   2.066  0.4733 -0.3366  0.5853
15288SOL    HW150711   8.114   4.842   2.047 -0.9008  0.8805  0.1281
15288SOL    HW250712   8.085   4.729   2.143  2.2263 -0.2227 -0.0884
15289SOL     OW50713   1.664   1.477   9.696 -0.4274 -0.4016  0.7103
15289SOL    HW150714   1.705   1.532   9.763 -0.2834  1.2007 -0.6082
15289SOL    HW250715   1.574   1.463   9.728 -0.2094 -0.1239  1.4724
15290SOL     OW50716   6.481   2.564   3.319 -0.0654 -0.9032  0.7441
15290SOL    HW150717   6.527   2.556   3.235  0.0484 -1.5754  0.8672
15290SOL    HW250718   6.470   2.658   3.330  0.3293 -0.7819  0.1943
15291SOL     OW50719   3.346   9.631   8.245 -0.3782 -0.2793 -0.1174
15291SOL    HW150720   3.383   9.662   8.162 -0.1887 -0.9995 -0.3093
15291SOL    HW250721   3.255   9.663   8.243  0.1974  1.4915  0.3586
15292SOL     OW50722   2.877   1.997   7.517  0.3505  0.3630  0.4784
15292SOL    HW150723   2.965   2.020   7.546  0.8604  0.9879 -1.3951
15292SOL    HW250724   2.870   2.037   7.430 -1.6126 -0.0853  0.3955
15293SOL     OW50725   3.725   5.017   7.447  0.1931 -0.2539  0.2145
15293SOL    HW150726   3.676   4.959   7.506 -1.3586  0.5366 -0.2188
15293SOL    HW250727   3.728   5.101   7.493  1.1282 -0.2743  0.2052
15294SOL     OW50728   5.319   5.432   4.732  0.2348  0.4119 -0.3315
15294SOL    HW150729   5.407   5.400   4.711 -0.1290  0.0095 -1.2844
15294SOL    HW250730   5.278   5.362   4.782  0.0161  0.0624 -0.9920
15295SOL     OW50731   1.089   3.757   0.597  0.0017 -0.4358 -0.1847
15295SOL    HW150732   1.005   3.736   0.555 -0.3508 -0.6132  0.5907
15295SOL    HW250733   1.117   3.675   0.636  0.0495 -0.1466  0.3970
15296SOL     OW50734   8.407   1.002   4.117 -0.1365 -0.0969  0.5740
15296SOL    HW150735   8.419   0.954   4.035  0.5375 -1.5297  1.4713
15296SOL    HW250736   8.424   0.937   4.186 -0.0275  1.2317  1.8506
15297SOL     OW50737   2.409   0.008   1.365  0.2117 -0.3689 -0.0723
15297SOL    HW150738   2.362   0.055   1.297  0.4754 -0.5544 -0.3856
15297SOL    HW250739   2.484  -0.031   1.320  2.2056  2.1304  0.8962
15298SOL     OW50740   7.164   4.726   7.885 -0.2504  0.4397  0.7256
15298SOL    HW150741   7.253   4.709   7.918 -0.3723  0.4823  1.0824
15298SOL    HW250742   7.169   4.707   7.792 -0.3953 -1.6310  1.1018
15299SOL     OW50743   3.929   5.245   1.522  0.2438  0.0163 -0.2318
15299SOL    HW150744   3.968   5.266   1.437  1.7459 -0.8437  0.2167
15299SOL    HW250745   3.964   5.158   1.544 -1.0433 -0.2895  0.7358
15300SOL     OW50746   8.435   7.545   6.335  0.3676  0.0821 -0.3958
15300SOL    HW150747   8.462   7.565   6.246 -0.4995  0.8161 -0.5059
15300SOL    HW250748   8.512   7.505   6.375  0.7465 -0.3009 -1.4811
15301SOL     OW50749   4.775   7.408   1.413 -0.4165 -0.4997 -0.1984
15301SOL    HW150750   4.760   7.420   1.319 -1.6530  0.2878  0.0766
15301SOL    HW250751   4.700   7.451   1.455  0.1269 -0.8224  1.1517
15302SOL     OW50752   3.718   4.166   3.463 -0.1490 -1.0177 -0.7128
15302SOL    HW150753   3.791   4.106   3.474  0.8617  0.3137  0.1886
15302SOL    HW250754   3.654   4.139   3.529  0.2957 -1.1186 -0.3194
15303SOL     OW50755   7.188   9.474   1.360 -0.5106 -0.1990  1.3472
15303SOL    HW150756   7.164   9.566   1.363 -0.0453 -0.0830  1.6771
15303SOL    HW250757   7.260   9.466   1.423  1.8328 -0.0983 -1.1336
15304SOL     OW50758   5.820   5.176   7.125 -0.9005 -0.0663 -0.1699
15304SOL    HW150759   5.809   5.242   7.057  0.2112 -2.0564 -2.4327
15304SOL    HW250760   5.744   5.118   7.116  0.1303 -1.3644 -1.0317
15305SOL     OW50761   9.168   4.968   3.595  0.0068  0.5782 -0.0268
15305SOL    HW150762   9.236   5.012   3.544 -1.7058  2.3732 -0.9090
15305SOL    HW250763   9.167   5.013   3.679  0.3363  0.0985  0.2399
15306SOL     OW50764   1.390   7.298   6.575 -0.5068  0.0832 -0.2837
15306SOL    HW150765   1.311   7.298   6.521 -1.4533  0.1700  1.0672
15306SOL    HW250766   1.413   7.391   6.583 -1.4790  0.2293  1.0205
15307SOL     OW50767   0.007   9.102   9.699 -0.4099  0.9703  0.6724
15307SOL    HW150768   0.102   9.112   9.710 -0.0605  0.3792 -1.3853
15307SOL    HW250769  -0.002   9.028   9.638 -2.1461  1.8074 -0.1522
15308SOL     OW50770   7.986   1.921   8.605  0.0317  0.4562  0.0352
15308SOL    HW150771   7.987   1.893   8.696  1.8374  0.7072  0.1434
15308SOL    HW250772   8.035   1.853   8.559 -0.5505  0.5172 -0.6912
15309SOL     OW50773   6.152   2.756   1.880  0.4876  0.4494 -0.0488
15309SOL    HW150774   6.239   2.718   1.887  0.1745 -0.4426 -0.8899
15309SOL    HW250775   6.151   2.799   1.795  0.3473  1.1234  0.2805
15310SOL     OW50776   2.243   8.867   0.845 -0.4536 -0.1267 -0.7598
15310SOL    HW150777   2.188   8.788   0.846 -0.9716  0.2289  0.0283
15310SOL    HW250778   2.330   8.836   0.823 -0.4765 -1.0443  0.3412
15311SOL     OW50779   8.160   4.151   0.383  0.2585 -0.3196 -0.0981
15311SOL    HW150780   8.220   4.103   0.326 -1.5130 -0.3507 -2.0189
15311SOL    HW250781   8.105   4.083   0.422 -0.0644 -0.1116 -0.1908
15312SOL     OW50782   7.845   3.351   4.821  0.0492 -0.4286  0.4551
15312SOL    HW150783   7.861   3.322   4.910  0.4539 -1.5916  0.0157
15312SOL    HW250784   7.823   3.272   4.773 -1.2701  0.3294 -0.2573
15313SOL     OW50785   4.704   6.669   2.082 -0.1042 -0.1725  0.1849
15313SOL    HW150786   4.752   6.683   2.164  0.4814 -0.8365 -0.0346
15313SOL    HW250787   4.771   6.642   2.019 -0.7603 -1.1311 -0.1232
15314SOL     OW50788   8.464   7.400   5.902  0.2668 -0.8082 -0.3406
15314SOL    HW150789   8.527   7.370   5.836 -0.9993 -0.7798 -1.5982
15314SOL    HW250790   8.397   7.333   5.903 -0.7664  0.1901 -0.5899
15315SOL     OW50791   5.682   6.445   2.259 -0.2222 -0.4658  0.1353
15315SOL    HW150792   5.768   6.405   2.249  1.2206  2.1535  1.1084
15315SOL    HW250793   5.675   6.507   2.187 -0.8840  0.0121  0.5961
15316SOL     OW50794   6.439   9.271   1.623  0.2852  0.0719 -0.3398
15316SOL    HW150795   6.421   9.333   1.693 -0.1378 -0.8420  0.3788
15316SOL    HW250796   6.489   9.201   1.665  0.1489 -0.4204 -0.9753
15317SOL     OW50797   9.187   7.812   1.418  0.4163 -0.0098  0.0833
15317SOL    HW150798   9.165   7.719   1.424  0.5824  0.0365  2.0101
15317SOL    HW250799   9.102   7.856   1.416  0.3376 -0.1871 -0.5715
15318SOL     OW50800   4.120   2.372   6.163  0.4269 -0.1408 -0.3399
15318SOL    HW150801   4.115   2.398   6.071  2.3799 -0.3263 -0.5438
15318SOL    HW250802   4.082   2.446   6.210  2.5025  1.5490 -1.1260
15319SOL     OW50803   9.512   0.729   1.974 -0.1896  0.0633 -0.2803
15319SOL    HW150804   9.497   0.804   1.916 -0.2335 -0.1490 -0.5462
15319SOL    HW250805   9.576   0.676   1.928 -1.4337 -0.9467 -0.9191
15320SOL     OW50806   2.438   3.089   7.855 -0.2779 -0.2900 -1.2893
15320SOL    HW150807   2.363   3.089   7.915  0.3926  1.6180 -0.3352
15320SOL    HW250808   2.442   3.180   7.824  2.1668 -0.0814 -0.5528
15321SOL     OW50809   6.295   0.687   1.215  0.1667 -0.0143  0.1578
15321SOL    HW150810   6.241   0.763   1.237 -0.2396 -0.5869  1.1826
15321SOL    HW250811   6.269   0.666   1.125 -1.5206 -0.4100  0.6858
15322SOL     OW50812   1.764   7.418   5.414  0.1488  0.2362 -0.0713
15322SOL    HW150813   1.831   7.401   5.479  0.0711  0.4569  0.0664
15322SOL    HW250814   1.684   7.435   5.465  0.0813  0.3791 -0.2217
15323SOL     OW50815   6.222   6.700   8.134 -0.1750  0.3609 -0.6786
15323SOL    HW150816   6.286   6.772   8.136  0.9574 -0.6269  0.2422
15323SOL    HW250817   6.203   6.688   8.041  0.1520  1.3762 -0.8981
15324SOL     OW50818   3.794   9.477   3.635 -0.0787  0.1799 -1.0695
15324SOL    HW150819   3.871   9.430   3.604 -0.7125 -0.5925 -1.4986
15324SOL    HW250820   3.738   9.488   3.558 -0.7389  0.0668 -0.6200
15325SOL     OW50821   0.209   7.982   9.555  0.1825 -0.3100 -0.0514
15325SOL    HW150822   0.233   7.952   9.643  0.7952 -0.0155 -0.1136
15325SOL    HW250823   0.292   7.991   9.509 -0.1771 -1.1309 -0.8913
15326SOL     OW50824   4.021   1.073   4.290 -0.3720  0.6408  0.1113
15326SOL    HW150825   4.068   1.156   4.304 -1.0175  1.0066  0.1670
15326SOL    HW250826   4.090   1.006   4.291  0.2483  1.2403 -0.6397
15327SOL     OW50827   1.837   3.482   5.679 -0.3088  0.6713 -0.0257
15327SOL    HW150828   1.910   3.429   5.647 -0.6839 -0.0137  0.2227
15327SOL    HW250829   1.816   3.444   5.764  0.0234  1.8294  0.5958
15328SOL     OW50830   1.568   6.254   0.331  0.0047 -0.0270  0.3246
15328SOL    HW150831   1.628   6.183   0.355  1.1173  0.6328 -0.3928
15328SOL    HW250832   1.586   6.322   0.395 -1.7404 -0.7099  1.5987
15329SOL     OW50833   4.850   1.176   0.425 -0.5334 -0.3321 -0.2968
15329SOL    HW150834   4.784   1.193   0.492 -0.9082 -1.2074 -0.4256
15329SOL    HW250835   4.876   1.262   0.394 -1.5672  0.0266 -0.1912
15330SOL     OW50836   0.874   8.599   6.785 -0.0865 -0.4721 -0.1434
15330SOL    HW150837   0.849   8.664   6.720 -1.3002  0.9161  1.6182
15330SOL    HW250838   0.968   8.611   6.797 -0.2761  0.8936  0.0809
15331SOL     OW50839   1.065   5.051   5.693  0.0814 -0.1300  0.2244
15331SOL    HW150840   1.084   5.139   5.723 -0.4580  1.1129 -2.7092
15331SOL    HW250841   0.969   5.048   5.685  0.1535 -0.5775 -0.6864
15332SOL     OW50842   7.123   7.823   1.677 -0.3341 -0.3054  0.2547
15332SOL    HW150843   7.071   7.812   1.598 -0.9288 -1.1808  0.7629
15332SOL    HW250844   7.069   7.878   1.734  0.4325  1.0107 -0.2368
15333SOL     OW50845   7.865   0.473   1.052 -0.7361  0.7498 -0.0377
15333SOL    HW150846   7.845   0.532   1.124 -1.2055 -1.1516  1.4743
15333SOL    HW250847   7.783   0.467   1.002 -0.4462  1.9654 -0.6900
15334SOL     OW50848   6.163   4.242   2.690  0.2018  0.3057  0.2834
15334SOL    HW150849   6.258   4.254   2.698  0.1981 -0.4727  1.9758
15334SOL    HW250850   6.132   4.243   2.781 -1.3910  0.3370 -0.2426
15335SOL     OW50851   7.241   5.421   6.400 -0.3166  0.4797 -0.5958
15335SOL    HW150852   7.268   5.513   6.406 -1.5106  0.7947  0.5032
15335SOL    HW250853   7.145   5.425   6.398 -0.3635 -0.6840 -2.1687
15336SOL     OW50854   2.901   3.278   2.295 -0.3956  0.0582  0.8260
15336SOL    HW150855   2.823   3.234   2.261 -1.0114  1.4282  0.3884
15336SOL    HW250856   2.900   3.364   2.253  1.8223 -0.1863  0.1750
15337SOL     OW50857   3.841   2.273   0.976 -0.0360  0.5681 -0.0154
15337SOL    HW150858   3.798   2.226   0.904 -0.1927 -1.2975  1.2255
15337SOL    HW250859   3.774   2.279   1.044  0.8836 -0.0809  0.9778
15338SOL     OW50860   7.126   7.300   0.943 -0.0291 -0.4210  0.2023
15338SOL    HW150861   7.095   7.293   0.853 -1.1012  1.9687  0.3141
15338SOL    HW250862   7.218   7.326   0.935 -0.8411  2.7556 -0.3713
15339SOL     OW50863   8.858   8.888   1.283 -0.0963  0.5884  0.0871
15339SOL    HW150864   8.778   8.890   1.230  0.3938  0.2460 -0.6748
15339SOL    HW250865   8.878   8.980   1.300 -0.5543  0.6819  0.1450
15340SOL     OW50866   4.416   0.465   7.723  0.0826  0.0678 -0.3496
15340SOL    HW150867   4.340   0.520   7.704  1.5130  2.4690  0.4100
15340SOL    HW250868   4.442   0.431   7.637 -0.7416  0.7183 -0.8790
15341SOL     OW50869   4.057   4.073   0.464 -0.3636 -0.0087 -0.4631
15341SOL    HW150870   4.029   4.102   0.377 -1.5179  0.1575 -0.0501
15341SOL    HW250871   4.077   4.154   0.511  0.7281 -0.1191 -0.7080
15342SOL     OW50872   1.516   5.201   0.788 -0.3601  0.1298  0.3875
15342SOL    HW150873   1.594   5.256   0.781  0.8651 -1.4753  0.7769
15342SOL    HW250874   1.547   5.121   0.831 -2.4372 -0.1698  1.4615
15343SOL     OW50875   1.920   6.046   4.962  0.4579  0.1264  0.2370
15343SOL    HW150876   1.878   6.130   4.944  1.4799  0.7582  0.7333
15343SOL    HW250877   1.914   6.035   5.057 -0.9822 -1.0924  0.0470
15344SOL     OW50878   4.979   5.644   7.118  1.1994  0.0285 -0.7340
15344SOL    HW150879   4.962   5.584   7.190 -0.5827  0.3652 -0.8407
15344SOL    HW250880   5.030   5.592   7.056 -0.5373 -1.5095 -0.9600
15345SOL     OW50881   4.822   7.181   9.429 -0.2309  0.1684 -0.7282
15345SOL    HW150882   4.741   7.193   9.479  0.1842  0.8858 -0.2032
15345SOL    HW250883   4.862   7.268   9.428  0.5532 -0.1875 -0.9439
15346SOL     OW50884   4.348   5.232   6.448 -0.2483 -0.0508  0.2181
15346SOL    HW150885   4.416   5.187   6.398  0.3895 -0.1779  1.1655
15346SOL    HW250886   4.306   5.290   6.385  0.7296  0.0054 -0.4058
15347SOL     OW50887   4.678   7.782   4.685  0.2644 -0.3341  0.6021
15347SOL    HW150888   4.697   7.857   4.742  0.0995  1.0658 -1.0870
15347SOL    HW250889   4.761   7.734   4.681  1.0598  1.0264 -0.0569
15348SOL     OW50890   5.540   6.553   3.969 -0.1505  0.0831  0.2201
15348SOL    HW150891   5.506   6.634   3.932 -1.2512 -1.0354 -1.3664
15348SOL    HW250892   5.635   6.560   3.960 -0.2806  0.7874 -0.8291
15349SOL     OW50893   4.745   5.450   2.186  0.4996  0.3198  0.5099
15349SOL    HW150894   4.769   5.485   2.272  1.4993  0.7899  0.0546
15349SOL    HW250895   4.669   5.394   2.203  1.3280 -0.4379  1.8669
15350SOL     OW50896   2.262   2.581   4.931 -0.0107  0.3699 -0.2291
15350SOL    HW150897   2.250   2.552   5.021  0.6499  0.5700 -0.0780
15350SOL    HW250898   2.173   2.603   4.902 -0.4067 -0.8856 -0.0502
15351SOL     OW50899   0.433   1.211   4.898 -0.0672  0.1640 -0.1902
15351SOL    HW150900   0.521   1.186   4.926 -0.5227 -1.4170 -0.0343
15351SOL    HW250901   0.446   1.282   4.836  1.2926  0.1999  0.1110
15352SOL     OW50902   3.577   9.055   3.126  0.5031 -0.4499 -0.2668
15352SOL    HW150903   3.616   9.093   3.204 -0.9523 -0.5134  0.5345
15352SOL    HW250904   3.587   9.122   3.058 -2.0612  1.4986  1.1169
15353SOL     OW50905   5.406   4.387   4.828  0.0436  0.3661  0.2042
15353SOL    HW150906   5.403   4.459   4.892  1.2405  0.9634 -0.3685
15353SOL    HW250907   5.499   4.379   4.807 -0.1601 -0.9310 -0.2326
15354SOL     OW50908   9.108   5.161   1.534  0.1627  0.7983  0.2472
15354SOL    HW150909   9.151   5.157   1.620  0.0662 -0.2394  0.2535
15354SOL    HW250910   9.107   5.071   1.503 -2.9445  0.5443  0.7102
15355SOL     OW50911   3.264   3.685   8.040  0.1831  0.2539  0.3586
15355SOL    HW150912   3.240   3.627   8.112 -0.4718 -0.8170 -0.6861
15355SOL    HW250913   3.353   3.657   8.017 -0.7100 -1.5331 -1.2058
15356SOL     OW50914   8.828   4.606   8.562 -0.0716  0.4885 -0.2408
15356SOL    HW150915   8.792   4.630   8.476 -0.0852  0.2924 -0.2901
15356SOL    HW250916   8.920   4.633   8.557  0.4004 -1.1161 -0.9631
15357SOL     OW50917   7.917   6.389   5.971  0.2852 -0.3036  0.6349
15357SOL    HW150918   7.845   6.443   5.939  0.8720 -0.3320 -0.8215
15357SOL    HW250919   7.877   6.329   6.034 -0.5775  1.0068  1.3731
15358SOL     OW50920   9.023   7.861   0.411 -0.1428 -0.5274  0.0290
15358SOL    HW150921   9.003   7.789   0.350 -0.3005 -1.8168  1.5403
15358SOL    HW250922   8.943   7.873   0.461 -0.4705  1.4681 -0.8789
15359SOL     OW50923   4.073   3.567   5.548  0.3420  0.0216 -0.5880
15359SOL    HW150924   4.083   3.541   5.640 -0.3099 -1.1666 -0.8270
15359SOL    HW250925   3.978   3.579   5.537  0.6073  2.8365 -0.4424
15360SOL     OW50926   2.683   9.180   8.482 -0.1872 -0.1924 -0.1697
15360SOL    HW150927   2.698   9.178   8.388  0.9775  1.2928 -0.0513
15360SOL    HW250928   2.632   9.259   8.497  1.0674  0.5083  0.5928
15361SOL     OW50929   8.125   6.423   4.535 -0.1006 -0.0044  0.2298
15361SOL    HW150930   8.046   6.370   4.524  0.3102 -0.3981 -0.9570
15361SOL    HW250931   8.198   6.362   4.520  0.3780  0.9023 -1.3215
15362SOL     OW50932   6.136   8.092   2.903  0.2188  0.1642  0.8980
15362SOL    HW150933   6.175   8.065   2.820 -2.4335  1.6206 -0.9994
15362SOL    HW250934   6.158   8.185   2.911 -2.1870  0.9026  0.0061
15363SOL     OW50935   5.878   8.592   8.804  0.0895  0.0075 -0.1846
15363SOL    HW150936   5.799   8.588   8.859 -0.1832  0.9617 -0.4917
15363SOL    HW250937   5.875   8.512   8.752  1.5411 -2.1347  2.7190
15364SOL     OW50938   9.276   9.140   7.386  0.0904  0.9166  0.5562
15364SOL    HW150939   9.182   9.155   7.393 -0.0762 -0.2664  1.0980
15364SOL    HW250940   9.306   9.134   7.477  0.2391 -1.2063  0.4130
15365SOL     OW50941   0.027   8.187   4.519 -0.2891  0.0733  0.2163
15365SOL    HW150942   0.070   8.104   4.497  1.4156  0.4681  1.8068
15365SOL    HW250943  -0.010   8.172   4.606 -1.0687  0.6118 -0.0129
15366SOL     OW50944   5.977   9.668   2.096  0.2022 -0.7447 -0.2720
15366SOL    HW150945   6.063   9.689   2.131 -0.5188 -0.9738  1.7739
15366SOL    HW250946   5.984   9.577   2.068  1.6091  0.2356 -3.6059
15367SOL     OW50947   7.241   4.584   3.711  0.6382 -0.4617 -0.6532
15367SOL    HW150948   7.162   4.565   3.659  0.9487 -0.0968 -1.2731
15367SOL    HW250949   7.276   4.663   3.672  1.0343 -0.3359 -0.0459
15368SOL     OW50950   5.598   6.944   7.259 -0.6110  0.2189  0.0488
15368SOL    HW150951   5.621   6.997   7.183  1.4704  1.8579  1.7004
15368SOL    HW250952   5.502   6.943   7.260 -0.7025  0.0830 -2.5623
15369SOL     OW50953   4.781   7.345   1.787  0.3415  0.3317  0.0437
15369SOL    HW150954   4.804   7.355   1.694  0.3294 -0.4123 -0.0429
15369SOL    HW250955   4.693   7.382   1.794 -0.1977 -0.7808 -0.5200
15370SOL     OW50956   6.431   8.304   2.945  0.5351  0.0791 -0.0403
15370SOL    HW150957   6.525   8.320   2.937  0.6660 -1.2165 -1.7331
15370SOL    HW250958   6.394   8.335   2.863  0.0474 -2.6005 -0.9489
15371SOL     OW50959   7.741   3.661   7.231 -0.4523 -0.7778 -0.5639
15371SOL    HW150960   7.699   3.660   7.318 -1.9575  2.3365 -1.1241
15371SOL    HW250961   7.702   3.587   7.185 -1.9124 -0.6865  0.4613
15372SOL     OW50962   8.738   3.400   8.881 -0.0701  0.0656  0.1634
15372SOL    HW150963   8.806   3.344   8.843  0.0918 -0.9856  1.8906
15372SOL    HW250964   8.668   3.339   8.905 -0.5077  0.7976  0.7847
15373SOL     OW50965   9.342   1.441   6.761  0.0800  0.4637  0.1549
15373SOL    HW150966   9.283   1.514   6.780  1.3183  1.4799  0.2314
15373SOL    HW250967   9.306   1.368   6.812  0.0925  1.6286  1.9257
15374SOL     OW50968   6.138   7.807   5.096  0.0456 -0.0896  0.4423
15374SOL    HW150969   6.091   7.864   5.156 -0.0276  1.3008 -0.8678
15374SOL    HW250970   6.095   7.820   5.012  1.4216 -0.3915 -0.3442
15375SOL     OW50971   8.710   5.036   1.659  0.2182  0.0337 -0.1093
15375SOL    HW150972   8.687   5.075   1.744 -0.3913 -0.4871 -0.0360
15375SOL    HW250973   8.773   4.967   1.681  1.1454  0.8235 -0.2210
15376SOL     OW50974   4.247   1.159   8.590  0.2919 -0.3709  0.2816
15376SOL    HW150975   4.337   1.135   8.615  0.5120 -0.1686 -0.3041
15376SOL    HW250976   4.250   1.168   8.495 -0.4657 -0.8344  0.2074
15377SOL     OW50977   9.127   4.093   6.568  0.4902  0.0927  0.1988
15377SOL    HW150978   9.096   4.182   6.583  0.3070  0.0998 -0.2083
15377SOL    HW250979   9.060   4.037   6.607 -0.5907  0.0795 -1.5557
15378SOL     OW50980   9.426   7.648   6.731 -0.4708 -0.3281 -0.2524
15378SOL    HW150981   9.501   7.705   6.748 -0.2126 -0.1948 -1.7377
15378SOL    HW250982   9.464   7.565   6.703 -0.8204  0.2042 -2.5095
15379SOL     OW50983   0.622   1.238   5.749 -0.3568 -0.0904  0.1824
15379SOL    HW150984   0.712   1.218   5.774 -0.6175 -0.7231  0.6206
15379SOL    HW250985   0.624   1.331   5.724  0.6175 -0.3493 -0.7676
15380SOL     OW50986   3.932   3.401   4.364  0.6493 -0.0575  0.0013
15380SOL    HW150987   3.940   3.354   4.447  1.0686  0.4107  0.2241
15380SOL    HW250988   3.838   3.411   4.352  0.5940  2.2839  1.7867
15381SOL     OW50989   4.003   6.414   4.437  0.4158  0.0017  0.2311
15381SOL    HW150990   4.074   6.349   4.430 -1.7136 -2.6360  1.2945
15381SOL    HW250991   3.984   6.418   4.530 -1.4602 -0.0961 -0.1214
15382SOL     OW50992   7.973   1.356   6.323 -0.0678 -0.5744  0.4692
15382SOL    HW150993   7.944   1.345   6.414  0.3080 -2.9731  0.3731
15382SOL    HW250994   8.043   1.291   6.313  0.6547  0.4179 -1.2304
15383SOL     OW50995   5.622   7.367   7.576 -0.5084  0.4985  0.1030
15383SOL    HW150996   5.634   7.452   7.534 -0.5076  0.1143 -0.7000
15383SOL    HW250997   5.635   7.384   7.669 -2.6764  1.7865  0.2241
15384SOL     OW50998   4.104   5.418   3.856  0.2817  0.0646  0.6171
15384SOL    HW150999   4.054   5.413   3.937  0.1099  0.7453  0.5645
15384SOL    HW251000   4.041   5.451   3.791  0.6764  0.5007  0.4465
15385SOL     OW51001   5.823   0.408   6.638 -0.5214 -1.3350  0.2962
15385SOL    HW151002   5.908   0.375   6.609  0.5627  1.0781  0.5090
15385SOL    HW251003   5.833   0.420   6.732 -0.3620  0.8437  0.0393
15386SOL     OW51004   8.150   3.306   9.015 -0.1121 -0.8422 -0.0412
15386SOL    HW151005   8.057   3.324   9.030 -0.8770 -2.4445 -2.3018
15386SOL    HW251006   8.151   3.242   8.943  2.7198 -1.5518  0.4993
15387SOL     OW51007   2.544   4.725   7.626  0.5345 -0.4672  0.1848
15387SOL    HW151008   2.638   4.716   7.641  0.4178  0.0948  1.3207
15387SOL    HW251009   2.504   4.659   7.682  0.1939  0.1723  0.7074
15388SOL     OW51010   1.907   2.796   9.024 -0.6210  0.1184 -0.5047
15388SOL    HW151011   1.814   2.815   9.036 -0.5642 -0.0124  0.1516
15388SOL    HW251012   1.932   2.744   9.100 -0.2931 -0.8815 -1.2669
15389SOL     OW51013   9.707   9.463   1.116  0.0032 -0.1032  0.2165
15389SOL    HW151014   9.679   9.501   1.033  3.1979  2.9026  0.2833
15389SOL    HW251015   9.700   9.535   1.179  2.5842 -0.6836  1.3025
15390SOL     OW51016   4.923   2.040   0.581 -0.2641  0.1910 -0.5150
15390SOL    HW151017   4.948   1.962   0.631  0.5676  0.9620  0.2953
15390SOL    HW251018   4.997   2.099   0.589 -0.5688  0.7859 -1.7636
15391SOL     OW51019   0.213   6.459   8.427 -0.1509 -0.7555 -0.6140
15391SOL    HW151020   0.152   6.416   8.486 -1.0169  1.8118  0.5236
15391SOL    HW251021   0.296   6.414   8.442 -0.1810  0.0740  3.0956
15392SOL     OW51022   7.697   9.458   2.764  0.2693  0.7141 -0.2327
15392SOL    HW151023   7.781   9.417   2.783  0.2720  1.5571  1.9395
15392SOL    HW251024   7.720   9.548   2.739  0.0795  0.5183 -1.1250
15393SOL     OW51025   8.976   1.069   7.691 -0.0071 -0.2250  0.0045
15393SOL    HW151026   8.997   1.009   7.763 -1.5876 -1.5754 -0.5881
15393SOL    HW251027   8.937   1.145   7.734 -0.2877 -0.7099  0.6346
15394SOL     OW51028   1.267   0.774   4.513  0.3358 -1.2779  0.8686
15394SOL    HW151029   1.303   0.817   4.590 -0.0271  0.0937  0.2942
15394SOL    HW251030   1.236   0.845   4.458  1.9821 -2.0883 -1.2637
15395SOL     OW51031   4.521   1.755   1.681  0.0478  0.5796 -0.2306
15395SOL    HW151032   4.566   1.786   1.759 -1.4771  1.8099  0.2236
15395SOL    HW251033   4.585   1.761   1.611  0.8867  1.2645  0.5798
15396SOL     OW51034   9.019   9.148   6.838  0.5830  0.1786 -0.4084
15396SOL    HW151035   9.074   9.210   6.886 -2.9249  2.2749  1.3502
15396SOL    HW251036   8.960   9.113   6.905 -0.4916 -1.6414 -2.2079
15397SOL     OW51037   8.862   2.794   4.609 -0.0819  0.6772 -0.4313
15397SOL    HW151038   8.842   2.758   4.695 -0.9150  0.1818 -0.8236
15397SOL    HW251039   8.827   2.883   4.611 -0.4205  0.5438 -0.3793
15398SOL     OW51040   7.163   0.614   4.237  0.2740 -0.0126  0.4488
15398SOL    HW151041   7.134   0.547   4.299 -0.3592 -0.2509 -0.0915
15398SOL    HW251042   7.101   0.686   4.249  0.7894  0.3721  0.8358
15399SOL     OW51043   1.182   4.385   8.172  0.3659 -0.5618 -0.3780
15399SOL    HW151044   1.139   4.302   8.194  1.6048 -1.4587 -1.1929
15399SOL    HW251045   1.122   4.427   8.110 -1.3306  0.2333  1.6792
15400SOL     OW51046   7.760   7.181   9.466  0.0961 -0.1420  0.3321
15400SOL    HW151047   7.695   7.237   9.508  0.7778  0.3132  0.8150
15400SOL    HW251048   7.806   7.238   9.405  0.7910 -0.1481  0.8238
15401SOL     OW51049   2.776   5.619   4.730  0.0231  0.2966 -0.8763
15401SOL    HW151050   2.859   5.667   4.721  0.1122  0.7899  1.8511
15401SOL    HW251051   2.782   5.550   4.664  2.2171  0.8468 -1.3502
15402SOL     OW51052   9.755   5.504   3.756 -0.2143 -0.0588  0.0459
15402SOL    HW151053   9.777   5.442   3.825  1.7925 -0.4043 -0.8416
15402SOL    HW251054   9.785   5.462   3.675 -2.9477  0.1023 -1.1695
15403SOL     OW51055   4.305   1.062   9.251 -0.0537 -0.6564 -0.3125
15403SOL    HW151056   4.216   1.078   9.284  0.3317  1.0504 -0.0258
15403SOL    HW251057   4.352   1.027   9.327  0.3112  1.4056  0.4620
15404SOL     OW51058   1.623   9.717   3.772 -0.3704 -0.2393 -0.1005
15404SOL    HW151059   1.586   9.654   3.710  0.4675 -4.2245  3.0141
15404SOL    HW251060   1.702   9.750   3.729 -1.4313 -0.3903 -2.2904
15405SOL     OW51061   9.163   4.841   5.235 -0.0990 -0.0278 -0.2591
15405SOL    HW151062   9.226   4.805   5.297 -1.1748 -0.1848  0.7848
15405SOL    HW251063   9.207   4.836   5.150  1.1709 -0.3819  0.3993
15406SOL     OW51064   7.701   4.392   6.410  0.1277 -0.2724  0.2609
15406SOL    HW151065   7.680   4.372   6.501  2.6995 -0.3426  0.9238
15406SOL    HW251066   7.725   4.485   6.411 -0.1985 -0.1722 -0.4447
15407SOL     OW51067   3.141   3.214   0.944  0.3729  0.2477  0.4520
15407SOL    HW151068   3.116   3.288   0.889 -1.2273 -0.1667  0.5743
15407SOL    HW251069   3.112   3.137   0.894  0.7365 -0.2314  0.9628
15408SOL     OW51070   0.144   3.344   8.287 -0.0923  0.3046 -0.3852
15408SOL    HW151071   0.078   3.328   8.219 -1.6520 -0.5512  1.2274
15408SOL    HW251072   0.093   3.371   8.363  1.3651 -1.0131  1.1288
15409SOL     OW51073   8.548   0.013   5.300 -0.0687 -0.0326  0.1446
15409SOL    HW151074   8.580   0.069   5.371  2.2031  3.4498 -3.2170
15409SOL    HW251075   8.616  -0.054   5.290 -0.0072 -0.0640  0.7647
15410SOL     OW51076   8.077   7.914   6.429 -0.0295  0.0775  0.1336
15410SOL    HW151077   8.019   7.911   6.353 -0.0973 -0.5317  0.2019
15410SOL    HW251078   8.078   8.006   6.455  1.3170  0.5874 -1.6096
15411SOL     OW51079   2.676   2.349   7.509 -0.0478 -0.4298 -0.3901
15411SOL    HW151080   2.631   2.332   7.426  0.4712  0.7316 -0.9293
15411SOL    HW251081   2.767   2.365   7.484 -0.1339  1.1838  0.2496
15412SOL     OW51082   8.351   8.997   2.524  0.9307 -0.4350 -0.8843
15412SOL    HW151083   8.438   8.997   2.565  0.5651  0.5356 -0.0511
15412SOL    HW251084   8.319   9.087   2.537 -0.4766 -0.9577 -0.5653
15413SOL     OW51085   3.374   5.372   6.591  0.3551 -0.1380 -0.2217
15413SOL    HW151086   3.459   5.341   6.561  1.0040  0.6033  0.7955
15413SOL    HW251087   3.359   5.328   6.674 -0.6384 -0.8632 -0.7575
15414SOL     OW51088   5.804   5.130   0.857  0.1092  0.0358  0.3379
15414SOL    HW151089   5.713   5.104   0.874 -0.4182 -0.8733 -3.0762
15414SOL    HW251090   5.799   5.224   0.843 -0.2635  0.0465  0.5155
15415SOL     OW51091   5.664   7.604   0.922 -0.0868  0.1583 -0.0031
15415SOL    HW151092   5.684   7.516   0.955  0.9349  0.6801  0.8141
15415SOL    HW251093   5.570   7.614   0.940 -0.2494 -0.8136 -0.2376
15416SOL     OW51094   7.937   3.423   2.007 -0.1379 -0.2318  0.5158
15416SOL    HW151095   7.977   3.367   2.073 -0.7029  1.0847  2.0345
15416SOL    HW251096   7.843   3.410   2.018 -0.2881 -2.2427 -2.0857
15417SOL     OW51097   9.094   0.061   9.378 -0.3572  0.0224  0.3117
15417SOL    HW151098   9.068   0.134   9.323 -1.7481  0.7448  1.8443
15417SOL    HW251099   9.190   0.066   9.382 -0.1835 -0.2339 -2.1870
15418SOL     OW51100   2.656   5.517   5.420  0.3296  0.4073  0.0120
15418SOL    HW151101   2.703   5.578   5.363 -0.2653  0.7164 -0.1651
15418SOL    HW251102   2.716   5.444   5.432 -0.4801 -1.0112 -3.2970
15419SOL     OW51103   8.631   7.994   1.043  0.2973 -0.3804  0.2482
15419SOL    HW151104   8.548   8.008   1.088  0.9028 -0.1168  1.3365
15419SOL    HW251105   8.635   7.900   1.028 -0.2423 -0.3792  0.1063
15420SOL     OW51106   8.057   5.120   0.276  0.1873  0.1773 -0.1498
15420SOL    HW151107   8.044   5.078   0.191 -0.9925  1.8527 -0.8470
15420SOL    HW251108   8.130   5.072   0.315 -1.9047 -3.4398 -0.2572
15421SOL     OW51109   9.619   9.442   3.984  0.1903  0.1998 -0.0426
15421SOL    HW151110   9.559   9.450   4.058  0.1503 -0.3051 -0.0176
15421SOL    HW251111   9.706   9.432   4.023  0.0633 -1.0408 -0.0274
15422SOL     OW51112   2.333   5.158   1.401 -0.6063 -0.4592  0.6048
15422SOL    HW151113   2.415   5.134   1.357 -1.0288  0.1830 -0.5710
15422SOL    HW251114   2.343   5.251   1.423  0.0737 -1.0184  3.0107
15423SOL     OW51115   8.640   9.563   3.641 -0.2779  0.2450 -0.2017
15423SOL    HW151116   8.676   9.479   3.669 -1.6517 -1.2453 -2.6150
15423SOL    HW251117   8.568   9.541   3.582 -1.2265  3.1332 -0.3133
15424SOL     OW51118   8.716   0.345   0.052  0.3232 -0.1739  0.1556
15424SOL    HW151119   8.676   0.427   0.020 -1.0815 -1.6262 -2.1213
15424SOL    HW251120   8.802   0.371   0.083  0.8894  1.8596 -2.7176
15425SOL     OW51121   6.971   5.006   4.194 -0.1706 -0.2345 -0.4525
15425SOL    HW151122   7.007   4.998   4.105  0.1946 -1.7805 -0.2032
15425SOL    HW251123   7.044   4.983   4.251 -0.7818 -0.6522  0.1762
15426SOL     OW51124   1.333   1.967   7.775  0.3304  0.0896 -0.3033
15426SOL    HW151125   1.281   2.035   7.818 -0.0217 -0.0931 -0.4386
15426SOL    HW251126   1.423   1.999   7.780  0.3403 -0.0808  0.8643
15427SOL     OW51127   8.215   0.932   7.079  0.4422  0.1999  0.0917
15427SOL    HW151128   8.173   0.857   7.036 -0.9248 -0.5602  2.5517
15427SOL    HW251129   8.171   1.008   7.042  0.1894 -0.3451 -0.7628
15428SOL     OW51130   2.130   0.747   0.998 -0.0542  0.4666  0.4739
15428SOL    HW151131   2.046   0.771   1.038 -0.9424 -0.8529 -0.5112
15428SOL    HW251132   2.150   0.661   1.034  1.1533  0.9854  1.0793
15429SOL     OW51133   7.620   7.903   4.284  0.4171  0.1524  0.3259
15429SOL    HW151134   7.635   7.987   4.329 -1.7106  1.3083 -0.9210
15429SOL    HW251135   7.653   7.918   4.195 -1.4493  0.3208 -0.3858
15430SOL     OW51136   9.167   8.482   5.608  0.1587 -0.2356 -0.3832
15430SOL    HW151137   9.152   8.441   5.693  1.9347 -2.1429 -0.9157
15430SOL    HW251138   9.086   8.468   5.559  0.0535 -1.4245  0.1181
15431SOL     OW51139   2.066   5.148   1.695  0.1130 -0.5232 -0.0178
15431SOL    HW151140   2.062   5.236   1.730 -0.9489  0.4089 -2.2562
15431SOL    HW251141   2.033   5.092   1.765 -1.8412  1.1863  0.5284
15432SOL     OW51142   8.917   1.502   7.743 -0.3578  0.5199  0.9086
15432SOL    HW151143   8.985   1.440   7.770 -0.2372  1.1447  2.1192
15432SOL    HW251144   8.835   1.454   7.758 -0.2124 -0.4178 -1.0322
15433SOL     OW51145   6.054   6.748   8.342 -0.8018 -0.3751  0.8431
15433SOL    HW151146   6.115   6.746   8.268 -0.8943 -0.7481  0.7794
15433SOL    HW251147   6.032   6.656   8.358 -2.3050 -0.1631  0.0915
15434SOL     OW51148   3.030   0.074   8.715 -0.5077  0.0244 -0.0680
15434SOL    HW151149   3.096   0.143   8.727 -1.2324  0.8132 -0.4816
15434SOL    HW251150   3.053   0.032   8.632  0.0522 -0.3705  0.2816
15435SOL     OW51151   9.298   8.136   1.050  0.1779  0.0005  0.8408
15435SOL    HW151152   9.257   8.072   1.109  1.4768 -0.1832  1.5923
15435SOL    HW251153   9.225   8.178   1.006 -0.7436 -2.9670 -0.7905
15436SOL     OW51154   3.161   2.319   9.033 -0.3351 -0.3232  0.0332
15436SOL    HW151155   3.254   2.302   9.052  0.2406  2.1523 -0.1609
15436SOL    HW251156   3.132   2.375   9.105 -1.5305 -0.5684 -0.2376
15437SOL     OW51157   6.799   5.850   9.719 -0.1157 -0.0733  0.1775
15437SOL    HW151158   6.829   5.852   9.628 -0.2743  0.4098  0.1344
15437SOL    HW251159   6.726   5.788   9.718  1.3308 -1.8816  0.4380
15438SOL     OW51160   6.049   6.667   4.023  0.1387  0.0433 -0.4308
15438SOL    HW151161   6.125   6.608   4.025 -0.1234 -0.3396 -1.2032
15438SOL    HW251162   6.086   6.753   4.003  0.5413  0.1805  0.8526
15439SOL     OW51163   0.364   8.358   7.299  0.0965 -0.3642  0.2824
15439SOL    HW151164   0.269   8.364   7.312  0.0917 -1.3675  0.7556
15439SOL    HW251165   0.394   8.449   7.305 -0.8326 -0.0375  0.1222
15440SOL     OW51166   6.037   4.678   4.853 -0.2082  0.6691 -0.0023
15440SOL    HW151167   5.982   4.622   4.800 -0.1550  1.0172 -0.4337
15440SOL    HW251168   6.039   4.637   4.939  4.6501 -3.4773 -1.5938
15441SOL     OW51169   9.696   6.477   2.116 -0.0962 -0.1103  0.3056
15441SOL    HW151170   9.612   6.496   2.158  0.1606  0.7622  0.4359
15441SOL    HW251171   9.726   6.396   2.158 -1.3731 -1.0459 -0.5005
15442SOL     OW51172   2.447   3.361   2.314 -0.2565  0.0918  0.4904
15442SOL    HW151173   2.368   3.357   2.368 -1.0938  1.0408 -0.6234
15442SOL    HW251174   2.443   3.446   2.271  0.0586 -0.8713 -1.5700
15443SOL     OW51175   4.520   2.554   7.475 -0.3640  0.6037 -0.0835
15443SOL    HW151176   4.516   2.546   7.571 -1.0969 -0.1798 -0.1622
15443SOL    HW251177   4.429   2.541   7.447 -0.1736  0.9643 -0.8775
15444SOL     OW51178   9.022   0.803   5.758  0.2906 -0.0703  0.3741
15444SOL    HW151179   9.015   0.841   5.670  0.7020  1.3531  0.9393
15444SOL    HW251180   9.058   0.716   5.743  1.0551  0.4220 -0.8198
15445SOL     OW51181   0.824   2.433   1.218  0.2436 -0.3530 -0.1963
15445SOL    HW151182   0.917   2.412   1.210  0.3465  0.5233 -1.6673
15445SOL    HW251183   0.786   2.405   1.135 -0.9532 -1.2671  0.6176
15446SOL     OW51184   4.741   7.922   1.422 -0.4225 -0.9417  0.0881
15446SOL    HW151185   4.650   7.929   1.392 -0.1993 -0.0679 -0.4534
15446SOL    HW251186   4.747   7.835   1.461 -1.7726 -0.6134  1.1271
15447SOL     OW51187   4.568   0.879   1.289 -0.2749 -0.0953  0.0403
15447SOL    HW151188   4.648   0.828   1.277  0.8589  1.3828  1.0094
15447SOL    HW251189   4.527   0.841   1.367  0.9045  0.8445  1.1497
15448SOL     OW51190   7.406   7.027   3.851 -0.0212  0.2218  0.4040
15448SOL    HW151191   7.359   6.961   3.901  1.4994 -1.6416 -0.4838
15448SOL    HW251192   7.338   7.084   3.816 -1.2237  0.6255  3.1946
15449SOL     OW51193   3.605   6.248   4.510  0.4412  0.5052 -0.1686
15449SOL    HW151194   3.607   6.250   4.606 -0.3281 -0.0708 -0.1337
15449SOL    HW251195   3.592   6.339   4.485  2.4225  0.9400  0.2052
15450SOL     OW51196   2.886   6.850   2.811  0.3812 -0.3357  0.0054
15450SOL    HW151197   2.881   6.756   2.828  1.7154 -0.4057  0.1201
15450SOL    HW251198   2.811   6.869   2.756  0.5002 -1.6123 -0.6212
15451SOL     OW51199   6.860   9.632   6.829  0.7248  0.2134 -0.4594
15451SOL    HW151200   6.823   9.603   6.912  0.1936  0.7110 -0.5156
15451SOL    HW251201   6.807   9.589   6.762  0.7665  0.2837 -0.5393
15452SOL     OW51202   4.582   3.150   9.736 -0.3358 -0.5291  0.0458
15452SOL    HW151203   4.652   3.206   9.766 -1.6576  1.1121  0.2033
15452SOL    HW251204   4.619   3.104   9.660  0.4057  1.5383 -0.9178
15453SOL     OW51205   0.437   1.245   2.433  0.3688  0.8744  0.9277
15453SOL    HW151206   0.372   1.310   2.408  0.6180  1.2132  1.1445
15453SOL    HW251207   0.411   1.217   2.520 -0.0972  0.2132  0.5859
15454SOL     OW51208   1.913   1.867   6.428 -0.5099  0.5994  0.1742
15454SOL    HW151209   1.852   1.932   6.393 -0.6086 -0.1891 -1.1841
15454SOL    HW251210   1.935   1.900   6.515 -0.0703  2.7754 -0.7049
15455SOL     OW51211   2.911   8.624   5.523 -0.2266  0.7980  0.4643
15455SOL    HW151212   2.982   8.643   5.463 -1.0343 -0.8211 -1.1214
15455SOL    HW251213   2.910   8.528   5.530 -1.1140  0.8757  1.8740
15456SOL     OW51214   2.132   3.443   7.003  0.0064 -0.1655  0.1109
15456SOL    HW151215   2.085   3.449   7.086  1.0563 -3.4171  1.0792
15456SOL    HW251216   2.219   3.410   7.027  0.2328 -1.4974 -2.2827
15457SOL     OW51217   7.294   3.405   4.811 -0.4219  0.5188 -0.2667
15457SOL    HW151218   7.321   3.325   4.767  1.2482 -0.7064  2.6930
15457SOL    HW251219   7.200   3.393   4.828 -0.0283 -1.2147  0.8448
15458SOL     OW51220   8.425   5.165   1.555  0.2750  0.6031  0.6788
15458SOL    HW151221   8.412   5.239   1.613  0.6478 -1.0148  2.9504
15458SOL    HW251222   8.519   5.149   1.556  0.0702 -0.6601  1.2327
15459SOL     OW51223   2.218   2.221   5.010  0.8716 -0.2063 -0.4891
15459SOL    HW151224   2.238   2.222   4.916  0.3767  3.8509 -0.7572
15459SOL    HW251225   2.123   2.233   5.013  0.8027 -0.9263  0.5692
15460SOL     OW51226   8.771   1.559   3.273 -0.5656  0.2851  0.3341
15460SOL    HW151227   8.721   1.627   3.317  0.5085  1.2532  0.0901
15460SOL    HW251228   8.761   1.482   3.329 -0.2564  1.1567  1.6098
15461SOL     OW51229   6.451   4.933   6.159  0.9896 -0.3511 -0.0218
15461SOL    HW151230   6.505   4.856   6.170 -0.0620 -1.3131 -1.2491
15461SOL    HW251231   6.369   4.912   6.204  1.2687  0.7418  1.0738
15462SOL     OW51232   5.962   5.801   3.419 -0.2727  0.4771  0.0947
15462SOL    HW151233   6.050   5.771   3.441  0.2262  0.0134 -2.3517
15462SOL    HW251234   5.904   5.732   3.453  0.2825  0.5808  1.3265
15463SOL     OW51235   4.280   4.469   1.324 -0.5845 -0.3704  0.0892
15463SOL    HW151236   4.276   4.533   1.253  0.0985 -0.6190 -0.1746
15463SOL    HW251237   4.211   4.406   1.303 -0.6106 -0.2593 -0.1651
15464SOL     OW51238   1.584   7.968   8.469  0.1647  0.4394  0.1451
15464SOL    HW151239   1.566   7.874   8.465  2.8062 -0.0804 -2.1797
15464SOL    HW251240   1.648   7.978   8.539  0.2911  0.4460  0.0281
15465SOL     OW51241   5.770   8.073   6.836  0.4644 -0.8637 -0.4577
15465SOL    HW151242   5.742   7.982   6.824 -0.0126 -0.5528 -1.9546
15465SOL    HW251243   5.744   8.095   6.925 -3.8841 -0.7224 -1.5514
15466SOL     OW51244   7.492   5.704   1.693  0.2555  0.3156 -0.3707
15466SOL    HW151245   7.432   5.741   1.628 -0.1538 -0.4363 -0.4447
15466SOL    HW251246   7.436   5.681   1.767  0.5460  0.1395 -0.2020
15467SOL     OW51247   8.202   1.152   5.042 -0.2327  0.6623 -0.4814
15467SOL    HW151248   8.194   1.224   5.106  1.3760  1.5108 -1.1937
15467SOL    HW251249   8.116   1.110   5.044 -0.0951  0.3261  2.6098
15468SOL     OW51250   1.272   8.886   4.478 -0.0608  0.3514  0.2896
15468SOL    HW151251   1.293   8.801   4.517 -0.1911  0.6013  0.9136
15468SOL    HW251252   1.338   8.899   4.410  0.6138  0.2455  0.9226
15469SOL     OW51253   9.525   6.138   2.986 -0.6516  0.0307  0.1864
15469SOL    HW151254   9.617   6.114   2.995 -0.7984 -0.2962  0.9308
15469SOL    HW251255   9.485   6.110   3.068 -1.0321  1.9867  0.7252
15470SOL     OW51256   0.575   5.502   6.878 -0.0110  0.4072 -0.3025
15470SOL    HW151257   0.508   5.458   6.929  0.0891  0.0617 -0.4565
15470SOL    HW251258   0.529   5.570   6.829 -0.0383  1.0111  0.5523
15471SOL     OW51259   6.243   6.546   5.353 -0.1463  0.4870 -0.5095
15471SOL    HW151260   6.322   6.493   5.364  0.5615  1.4754 -0.6376
15471SOL    HW251261   6.171   6.485   5.366  0.6322 -0.1520  1.1335
15472SOL     OW51262   0.011   5.628   2.160  0.2450  0.3337  0.0770
15472SOL    HW151263  -0.028   5.591   2.239  0.2880 -0.8031 -0.4235
15472SOL    HW251264   0.059   5.705   2.191 -0.1441  0.1869  1.0820
15473SOL     OW51265   5.412   7.568   6.703 -0.4264  0.1196  0.0341
15473SOL    HW151266   5.486   7.508   6.695 -1.1021 -0.9576  1.4816
15473SOL    HW251267   5.427   7.633   6.634  1.2476 -0.7100 -0.4473
15474SOL     OW51268   4.648   8.617   8.549 -0.0060 -0.1506 -0.8436
15474SOL    HW151269   4.571   8.674   8.549 -0.8618 -1.1952 -3.0396
15474SOL    HW251270   4.715   8.667   8.596 -2.0056  0.7375  1.2943
15475SOL     OW51271   8.635   3.890   3.596 -0.1153 -0.0130 -0.0171
15475SOL    HW151272   8.563   3.827   3.601  0.1714 -0.4170 -0.8101
15475SOL    HW251273   8.623   3.933   3.511  0.9352 -0.5348 -0.4474
15476SOL     OW51274   1.375   3.442   1.784 -0.3151  0.0508 -0.1771
15476SOL    HW151275   1.295   3.389   1.778 -0.6305  0.2778  1.6707
15476SOL    HW251276   1.446   3.378   1.785 -0.6588 -0.3261  1.3881
15477SOL     OW51277   2.701   2.342   9.103 -0.0587 -0.4192 -0.3847
15477SOL    HW151278   2.650   2.322   9.181 -1.6778  1.4308 -0.8989
15477SOL    HW251279   2.782   2.291   9.114 -1.3212 -2.2343  1.2057
15478SOL     OW51280   8.277   8.932   3.374 -0.4496 -0.0975 -0.3380
15478SOL    HW151281   8.274   9.003   3.311 -1.6602 -2.5060 -3.2579
15478SOL    HW251282   8.367   8.899   3.370 -0.7087 -0.7242 -1.4985
15479SOL     OW51283   3.966   3.023   3.597 -0.2617 -0.0768  0.1112
15479SOL    HW151284   4.027   3.096   3.605 -0.3524 -0.0834  0.9386
15479SOL    HW251285   3.880   3.065   3.594 -0.6037 -0.1781  3.7392
15480SOL     OW51286   3.050   7.545   3.298 -0.1138 -0.0912 -0.4788
15480SOL    HW151287   2.991   7.572   3.369  0.8360  0.7457  0.0271
15480SOL    HW251288   3.107   7.479   3.338  0.8059  0.8008 -0.2542
15481SOL     OW51289   1.185   1.797   0.841 -0.2396 -0.6331 -0.5174
15481SOL    HW151290   1.258   1.844   0.883 -0.6181  0.6112 -1.1975
15481SOL    HW251291   1.139   1.754   0.913  0.0895  0.1042  0.1457
15482SOL     OW51292   4.808   5.019   1.807 -0.0583 -0.0321 -0.1739
15482SOL    HW151293   4.822   5.112   1.822 -0.6491  0.3451 -1.8336
15482SOL    HW251294   4.733   4.996   1.863 -0.4462  0.6745 -0.4021
15483SOL     OW51295   6.459   8.297   3.506 -0.0991  0.1076 -0.0976
15483SOL    HW151296   6.499   8.358   3.444  1.4077 -1.4068 -0.7126
15483SOL    HW251297   6.419   8.353   3.572  0.0134  1.7611 -1.3515
15484SOL     OW51298   4.551   9.454   5.917 -0.0461  0.2072 -0.1848
15484SOL    HW151299   4.558   9.366   5.878 -0.1130  0.0737  0.1016
15484SOL    HW251300   4.592   9.445   6.003 -1.2061  0.1310  0.3756
15485SOL     OW51301   1.057   4.826   3.438 -0.0198 -0.0007 -0.0752
15485SOL    HW151302   1.064   4.732   3.452 -1.3390 -0.1173 -0.0746
15485SOL    HW251303   1.055   4.836   3.343  0.6184  0.0674 -0.0802
15486SOL     OW51304   1.192   9.545   4.938 -0.3337 -0.2709  0.2873
15486SOL    HW151305   1.149   9.606   4.997 -0.1093  0.1785 -0.0043
15486SOL    HW251306   1.140   9.548   4.858 -1.8635 -2.4291  1.1132
15487SOL     OW51307   4.370   2.558   8.996  0.1925 -0.0956  0.3537
15487SOL    HW151308   4.347   2.613   9.071  0.3962 -1.1771  1.2434
15487SOL    HW251309   4.324   2.597   8.922 -1.2856  0.0942  1.3372
15488SOL     OW51310   3.960   4.491   7.652 -0.2872  0.6045 -0.5141
15488SOL    HW151311   4.043   4.522   7.688 -0.1251 -0.1034 -0.2520
15488SOL    HW251312   3.963   4.515   7.560 -0.9719  2.9789  0.0247
15489SOL     OW51313   3.916   3.395   0.681 -0.2754  0.6592 -0.2313
15489SOL    HW151314   3.997   3.378   0.632 -0.2958  0.0748 -0.0697
15489SOL    HW251315   3.847   3.386   0.615 -0.3416 -0.6096 -0.0121
15490SOL     OW51316   6.168   2.613   0.973 -0.3822  0.3954  0.3157
15490SOL    HW151317   6.080   2.583   0.993 -1.2871  1.5819 -1.6724
15490SOL    HW251318   6.157   2.679   0.904  2.1231 -0.1330 -0.7117
15491SOL     OW51319   8.329   3.783   3.298  0.6690  0.6523 -0.0598
15491SOL    HW151320   8.385   3.750   3.227 -0.9414 -0.5077 -0.8569
15491SOL    HW251321   8.350   3.876   3.303  1.3224  0.6284 -1.6143
15492SOL     OW51322   3.832   2.717   2.745 -0.2247 -0.3080 -0.1557
15492SOL    HW151323   3.793   2.629   2.750 -1.1744  0.0920 -0.3510
15492SOL    HW251324   3.764   2.776   2.776 -0.3632  0.5675 -1.9789
15493SOL     OW51325   0.592   2.260   6.782 -0.5566  0.0363  0.4340
15493SOL    HW151326   0.556   2.181   6.742 -0.7880 -0.0690  0.8426
15493SOL    HW251327   0.627   2.231   6.866  0.2897  0.1808  0.1437
15494SOL     OW51328   6.623   6.872   6.610  0.3688 -0.6908 -0.1001
15494SOL    HW151329   6.668   6.939   6.662  1.0074 -1.2909  0.1257
15494SOL    HW251330   6.568   6.827   6.674  0.1289 -0.5496 -0.2061
15495SOL     OW51331   5.102   6.549   0.009  0.2104  0.0054 -1.3368
15495SOL    HW151332   5.026   6.494  -0.009 -0.0609 -0.4398  0.9251
15495SOL    HW251333   5.067   6.638   0.010  0.0394 -0.0504 -1.8233
15496SOL     OW51334   4.698   5.898   1.814  0.3774  0.2738 -0.4374
15496SOL    HW151335   4.704   5.905   1.719  0.7892 -0.6015 -0.4862
15496SOL    HW251336   4.677   5.806   1.830 -0.2754  0.5418  0.3021
15497SOL     OW51337   8.221   6.957   5.637 -0.4894 -0.1641 -0.0737
15497SOL    HW151338   8.281   6.900   5.686  0.1086  1.7989  1.5840
15497SOL    HW251339   8.220   6.920   5.549  2.6395 -0.6910  0.0124
15498SOL     OW51340   2.581   1.971   4.358 -0.1120  0.3384  0.1507
15498SOL    HW151341   2.654   1.916   4.387 -1.6332 -1.9891 -0.2409
15498SOL    HW251342   2.508   1.948   4.415 -0.8427  1.9792 -0.0437
15499SOL     OW51343   3.652   6.884   6.828  0.0509  0.7737  0.0780
15499SOL    HW151344   3.629   6.944   6.899 -1.4060  0.4181 -0.0574
15499SOL    HW251345   3.740   6.910   6.802  1.3351 -0.1611  3.1072
15500SOL     OW51346   6.706   9.031   8.821 -0.0888 -0.0871 -0.5813
15500SOL    HW151347   6.652   9.104   8.789 -0.6713  0.5799  1.7238
15500SOL    HW251348   6.645   8.957   8.825 -0.2836  0.0947 -0.0824
15501SOL     OW51349   4.329   4.203   8.672 -0.1663 -0.2842  0.1861
15501SOL    HW151350   4.237   4.179   8.660 -0.3639  0.8571 -0.7213
15501SOL    HW251351   4.369   4.126   8.713 -1.5813 -0.6908  0.8581
15502SOL     OW51352   8.683   6.743   8.446  0.2299 -0.3054  0.4802
15502SOL    HW151353   8.741   6.683   8.494  0.6646 -0.6135 -0.4123
15502SOL    HW251354   8.595   6.706   8.459  0.2710 -0.0795  1.4778
15503SOL     OW51355   6.194   7.766   3.100  0.0795  0.2891 -0.4412
15503SOL    HW151356   6.195   7.803   3.188  0.0217  0.5782 -0.5611
15503SOL    HW251357   6.285   7.770   3.071  0.3243 -0.9650  0.0804
15504SOL     OW51358   6.569   6.165   7.021 -0.3125  0.2508 -0.4497
15504SOL    HW151359   6.479   6.188   7.044 -0.2122 -0.7789  1.0892
15504SOL    HW251360   6.585   6.212   6.939 -1.0519  3.4009  1.0365
15505SOL     OW51361   0.915   0.544   7.015  0.7129 -0.0398  0.2684
15505SOL    HW151362   0.972   0.476   6.979 -0.7932 -1.1490 -0.1298
15505SOL    HW251363   0.975   0.608   7.053  2.2305 -0.7169 -0.8841
15506SOL     OW51364   6.292   4.170   6.963  0.6087  0.7811  0.1866
15506SOL    HW151365   6.300   4.075   6.958 -1.0151  0.5205  1.6484
15506SOL    HW251366   6.230   4.192   6.894 -0.2391  0.5731  0.8712
15507SOL     OW51367   4.955   8.576   5.066 -0.2792  0.5534 -0.2713
15507SOL    HW151368   4.947   8.622   4.982 -0.7823 -1.4797 -1.3977
15507SOL    HW251369   4.865   8.554   5.090 -0.1599  1.2897  0.9461
15508SOL     OW51370   9.630   7.549   0.714  0.7540 -0.5209  0.4732
15508SOL    HW151371   9.568   7.555   0.641  0.2684 -0.6325  0.8731
15508SOL    HW251372   9.716   7.546   0.672  0.4765 -0.6064 -0.0981
15509SOL     OW51373   8.363   4.956   7.586 -0.0356 -0.0300  0.1905
15509SOL    HW151374   8.449   4.980   7.622 -0.3452 -0.7968  1.5102
15509SOL    HW251375   8.340   5.030   7.530  2.4275 -0.7257 -1.9615
15510SOL     OW51376   3.828   3.118   7.022 -0.0956 -0.6218 -0.2130
15510SOL    HW151377   3.865   3.050   6.967 -0.1165 -1.8303  1.2040
15510SOL    HW251378   3.794   3.072   7.098  1.8104  1.1043  1.8593
15511SOL     OW51379   2.850   3.584   2.235  0.4341 -0.5164 -0.7653
15511SOL    HW151380   2.781   3.607   2.173  0.7598  2.3297 -0.2061
15511SOL    HW251381   2.931   3.583   2.183  0.3509 -0.9637 -0.8892
15512SOL     OW51382   8.154   1.853   6.629  0.0173 -0.2679  0.3204
15512SOL    HW151383   8.218   1.853   6.558 -0.6418 -1.0505 -0.2963
15512SOL    HW251384   8.085   1.913   6.600 -0.3690 -0.7693  0.1642
15513SOL     OW51385   8.314   1.908   6.137  0.1077 -0.1003 -0.2149
15513SOL    HW151386   8.378   1.856   6.185 -0.6242 -0.6701  0.1544
15513SOL    HW251387   8.294   1.982   6.195 -1.1867 -1.0754  0.6425
15514SOL     OW51388   8.030   0.129   1.001 -0.0894  0.6215 -0.2006
15514SOL    HW151389   7.981   0.202   0.963 -0.6584  0.1734 -0.3448
15514SOL    HW251390   8.064   0.081   0.925  1.3193  1.4032 -0.1016
15515SOL     OW51391   7.968   6.345   9.436  0.0103  0.2307 -0.5467
15515SOL    HW151392   7.982   6.421   9.492  2.5922  0.0857 -0.8716
15515SOL    HW251393   7.895   6.370   9.380 -2.1164  0.7015  2.2183
15516SOL     OW51394   1.508   8.883   5.000 -0.7155 -0.1706 -0.1715
15516SOL    HW151395   1.564   8.828   5.054  0.4808  1.8657  0.7653
15516SOL    HW251396   1.424   8.837   4.998  0.4700 -2.4923 -0.2822
15517SOL     OW51397   6.527   9.361   0.154 -0.4706  0.2229 -0.2302
15517SOL    HW151398   6.463   9.391   0.089 -2.7884 -1.5315  1.1423
15517SOL    HW251399   6.528   9.266   0.145  0.8776  0.1096  0.8155
15518SOL     OW51400   5.513   4.931   7.532 -0.1939 -0.1664  0.2818
15518SOL    HW151401   5.439   4.874   7.508 -0.9824  0.7878  0.4065
15518SOL    HW251402   5.492   5.015   7.492  0.9381  0.0678  0.1475
15519SOL     OW51403   3.958   7.492   0.865 -0.2610  0.6295  0.3249
15519SOL    HW151404   3.979   7.446   0.784  0.3389  0.9335  0.2971
15519SOL    HW251405   4.028   7.468   0.925 -0.1128  1.2422  0.4087
15520SOL     OW51406   4.653   8.282   4.363  0.0939 -0.4931  0.8284
15520SOL    HW151407   4.711   8.223   4.411  1.9658 -0.5300 -1.2906
15520SOL    HW251408   4.577   8.294   4.420  0.1378 -4.0210  1.8227
15521SOL     OW51409   5.268   4.507   2.422  0.4101 -0.2157 -0.1857
15521SOL    HW151410   5.290   4.417   2.398 -0.9614 -0.8095  0.6289
15521SOL    HW251411   5.351   4.545   2.451  1.3785 -0.5889 -2.3252
15522SOL     OW51412   1.700   0.285   1.599  0.7986  0.0070 -0.1965
15522SOL    HW151413   1.732   0.355   1.542 -0.9204  2.4315  1.6148
15522SOL    HW251414   1.780   0.242   1.630  1.9213  1.2142 -1.2822
15523SOL     OW51415   2.302   2.081   5.236  0.6222 -0.3299  0.4256
15523SOL    HW151416   2.225   2.116   5.281  0.1894 -1.1167  0.3061
15523SOL    HW251417   2.302   2.124   5.151  1.0714  0.6670  0.9063
15524SOL     OW51418   3.123   7.977   5.622 -0.2710 -0.2617 -0.3075
15524SOL    HW151419   3.097   7.965   5.531 -0.4180 -0.1625 -0.2806
15524SOL    HW251420   3.042   7.962   5.671 -0.1466 -0.5128 -0.1797
15525SOL     OW51421   6.509   9.118   9.382  1.0260 -0.4742  0.3237
15525SOL    HW151422   6.563   9.060   9.435  0.9169 -1.1817 -0.3141
15525SOL    HW251423   6.428   9.128   9.433  0.9540 -1.0804  0.3439
15526SOL     OW51424   7.553   0.095   5.251  0.3954  0.4760  0.5524
15526SOL    HW151425   7.626   0.052   5.208  0.9003  0.7641  1.1041
15526SOL    HW251426   7.483   0.095   5.186  0.6287 -0.4968  0.2835
15527SOL     OW51427   4.926   0.503   3.320 -0.2396 -0.1207 -0.2596
15527SOL    HW151428   4.846   0.530   3.275  0.2050 -0.2979 -1.1768
15527SOL    HW251429   4.968   0.441   3.260  0.3066 -0.4644  0.4572
15528SOL     OW51430   4.891   8.665   6.201  0.2546  0.6830  0.1977
15528SOL    HW151431   4.959   8.646   6.136  1.4387  2.7808  0.7399
15528SOL    HW251432   4.831   8.723   6.155  0.5940  1.4249  0.6812
15529SOL     OW51433   7.663   6.817   6.854 -0.0676 -0.1338 -0.0088
15529SOL    HW151434   7.696   6.851   6.771 -0.3971 -2.6368 -1.2827
15529SOL    HW251435   7.573   6.790   6.834 -0.4656  0.0578  1.4288
15530SOL     OW51436   1.674   1.168   7.318 -0.4574  0.4540 -0.2229
15530SOL    HW151437   1.621   1.158   7.397  0.3210 -0.7837  0.1609
15530SOL    HW251438   1.724   1.248   7.333  0.6866 -0.4804  1.1557
15531SOL     OW51439   1.010   9.630   0.261  0.0363  0.5429  0.6214
15531SOL    HW151440   1.072   9.585   0.203 -0.6115  0.7678 -0.2648
15531SOL    HW251441   1.032   9.598   0.349  2.1886  1.5191  0.4925
15532SOL     OW51442   3.368   0.153   1.057  0.0593 -0.4865  0.6344
15532SOL    HW151443   3.435   0.221   1.057 -0.3072 -0.1058 -0.5022
15532SOL    HW251444   3.352   0.135   1.149  0.7858  0.3486  0.9347
15533SOL     OW51445   6.550   9.425   7.136  0.5229  0.3539  0.1395
15533SOL    HW151446   6.594   9.341   7.124  0.4741  0.3470  0.0038
15533SOL    HW251447   6.493   9.411   7.212  0.4001  0.2159  0.0242
15534SOL     OW51448   9.286   1.768   9.740 -0.0384  0.4261  0.5585
15534SOL    HW151449   9.214   1.708   9.758  0.8727 -0.2661  2.1044
15534SOL    HW251450   9.261   1.849   9.783 -1.0593  1.0601 -1.1414
15535SOL     OW51451   3.417   7.957   7.129 -0.4797  0.8345 -0.0240
15535SOL    HW151452   3.386   7.886   7.072 -1.9652  0.1681  1.5045
15535SOL    HW251453   3.337   7.991   7.170  0.5298  0.8678  2.0838
15536SOL     OW51454   2.820   8.215   5.000 -0.1066  0.2753 -0.5318
15536SOL    HW151455   2.743   8.273   4.999  0.0517  0.4891 -1.5478
15536SOL    HW251456   2.857   8.223   4.912  0.6835 -0.3629 -0.2692
15537SOL     OW51457   6.893   4.471   8.612  0.5893  0.5121  0.7127
15537SOL    HW151458   6.803   4.444   8.631  0.4928 -0.5468 -1.0076
15537SOL    HW251459   6.883   4.547   8.555  0.6986 -0.6650 -0.9519
15538SOL     OW51460   2.246   7.975   1.599  0.1708  0.2825  0.4125
15538SOL    HW151461   2.215   7.898   1.647 -2.5476  1.2108  0.2814
15538SOL    HW251462   2.279   7.940   1.516  0.5060 -0.8602  1.0088
15539SOL     OW51463   2.023   0.007   9.040 -0.0446  0.0267 -0.5772
15539SOL    HW151464   2.079   0.072   9.082  1.6325 -1.5021 -0.3408
15539SOL    HW251465   1.938   0.017   9.083  0.2690  1.7841 -0.2994
15540SOL     OW51466   5.922   4.324   6.642  0.2324 -0.0112 -0.2437
15540SOL    HW151467   5.852   4.371   6.687  0.5981 -1.0314  1.5187
15540SOL    HW251468   5.899   4.232   6.651  0.1372 -0.2800 -2.5772
15541SOL     OW51469   4.125   5.804   3.224  0.6141  0.3215 -0.6483
15541SOL    HW151470   4.074   5.873   3.181 -0.1864 -0.5684 -1.1792
15541SOL    HW251471   4.170   5.759   3.152 -0.7713 -1.2107 -0.6149
15542SOL     OW51472   4.266   1.056   3.688 -0.1228  0.1027  0.3576
15542SOL    HW151473   4.220   1.112   3.626  1.1939  1.4815  0.5780
15542SOL    HW251474   4.345   1.029   3.642 -0.8676 -1.9063  0.1334
15543SOL     OW51475   2.937   6.615   0.499  0.3842  0.0054  0.8582
15543SOL    HW151476   2.986   6.559   0.439 -0.4929 -1.0479  1.1020
15543SOL    HW251477   2.925   6.697   0.451 -0.5843 -0.9191 -0.5451
15544SOL     OW51478   1.832   4.334   2.531  0.5405  0.1265  0.3884
15544SOL    HW151479   1.854   4.309   2.620  0.4338 -0.4502  0.2545
15544SOL    HW251480   1.904   4.389   2.502  0.6253  0.2241  0.7937
15545SOL     OW51481   0.581   8.291   8.921 -0.1006  0.6682  0.2470
15545SOL    HW151482   0.576   8.380   8.888 -1.1924 -0.2176 -2.2851
15545SOL    HW251483   0.653   8.252   8.872 -0.1012 -0.0230  0.7833
15546SOL     OW51484   3.455   3.925   1.999 -0.1637  0.2240 -0.3210
15546SOL    HW151485   3.417   3.865   2.063  0.2406 -0.5181 -0.7622
15546SOL    HW251486   3.549   3.919   2.013  0.0181 -0.8128 -1.6913
15547SOL     OW51487   7.531   3.058   1.171  0.2732  0.1147  0.3994
15547SOL    HW151488   7.566   3.017   1.250 -0.7497 -0.5670  0.5203
15547SOL    HW251489   7.436   3.052   1.181  0.1010  1.7932  0.0216
15548SOL     OW51490   3.682   9.409   3.873 -0.5268 -0.1489  0.3059
15548SOL    HW151491   3.749   9.428   3.939  0.5261  0.3382 -0.8680
15548SOL    HW251492   3.724   9.431   3.790 -0.4373 -4.2217 -0.9340
15549SOL     OW51493   2.639   0.138   7.385 -0.7763 -0.2780  0.2861
15549SOL    HW151494   2.589   0.074   7.334  0.7339 -1.3430  0.0585
15549SOL    HW251495   2.700   0.085   7.437  1.0855  0.9819 -0.5030
15550SOL     OW51496   7.868   1.802   5.308  0.5957 -0.2456  0.2011
15550SOL    HW151497   7.961   1.797   5.328  1.0685 -0.0568 -1.7194
15550SOL    HW251498   7.832   1.719   5.337  1.2430 -0.1247  1.4106
15551SOL     OW51499   2.130   1.476   7.437 -0.7808  0.1077  0.7347
15551SOL    HW151500   2.086   1.559   7.418  0.5827  0.7334  0.1509
15551SOL    HW251501   2.218   1.502   7.465 -0.3657 -1.1433  0.6367
15552SOL     OW51502   1.861   0.541   3.671  0.0823  0.1245  0.0323
15552SOL    HW151503   1.916   0.487   3.614  1.4803 -0.5601  1.9461
15552SOL    HW251504   1.857   0.626   3.627  1.5748 -0.2155 -0.8104
15553SOL     OW51505   1.247   8.398   6.109  0.0053 -0.3526 -0.1329
15553SOL    HW151506   1.264   8.379   6.201 -0.5183 -3.9175 -0.6402
15553SOL    HW251507   1.153   8.389   6.100 -0.1625  1.6629 -0.7501
15554SOL     OW51508   5.762   5.608   9.569  0.0012 -0.3338  0.5353
15554SOL    HW151509   5.833   5.635   9.511 -2.4308  3.0146 -1.1891
15554SOL    HW251510   5.794   5.628   9.657  0.8163  2.2730 -0.2844
15555SOL     OW51511   4.291   8.420   5.977 -0.2847 -0.6138 -0.1709
15555SOL    HW151512   4.258   8.376   6.055 -0.9603 -0.7748 -0.5460
15555SOL    HW251513   4.287   8.354   5.908 -0.7042 -0.1600 -0.5894
15556SOL     OW51514   2.992   4.924   6.769 -0.2726 -0.0905 -0.6317
15556SOL    HW151515   3.082   4.921   6.802 -0.4086 -0.5786 -0.3038
15556SOL    HW251516   3.000   4.963   6.682  0.0944  1.2113 -0.0409
15557SOL     OW51517   9.612   5.863   4.882 -0.2455 -0.0184  0.0158
15557SOL    HW151518   9.562   5.830   4.956  0.9007 -1.3250  0.2517
15557SOL    HW251519   9.646   5.947   4.911  0.5490 -0.7072  1.1810
15558SOL     OW51520   8.995   7.142   2.709 -0.5161 -0.2604 -0.1416
15558SOL    HW151521   9.013   7.177   2.797 -1.5541  2.3052 -0.8600
15558SOL    HW251522   8.905   7.167   2.691 -0.0624  0.0367 -2.2758
15559SOL     OW51523   2.427   0.877   5.265 -0.0719  0.7043 -0.5204
15559SOL    HW151524   2.518   0.858   5.288 -0.9401 -1.3227  1.6874
15559SOL    HW251525   2.401   0.946   5.326  0.3747  2.4447 -2.2202
15560SOL     OW51526   3.568   1.822   5.500  0.3545 -0.1351  0.0832
15560SOL    HW151527   3.548   1.744   5.552 -1.0759  0.3044  0.2399
15560SOL    HW251528   3.483   1.850   5.466  0.9645  0.8865 -0.6439
15561SOL     OW51529   6.038   7.857   0.018 -0.2225  0.2365  0.1649
15561SOL    HW151530   5.990   7.789   0.066  1.2004 -1.0933 -0.2195
15561SOL    HW251531   6.129   7.848   0.049 -0.0472  2.1549  0.3005
15562SOL     OW51532   7.947   6.905   9.222 -0.5488  0.6889 -0.1797
15562SOL    HW151533   7.951   6.836   9.288 -0.9568 -0.0047 -0.8514
15562SOL    HW251534   7.864   6.949   9.239 -0.6126  0.5650 -0.1617
15563SOL     OW51535   6.015   6.842   5.870 -0.5259 -0.1481 -0.2135
15563SOL    HW151536   6.008   6.762   5.819 -1.1673  0.9631 -1.9404
15563SOL    HW251537   6.089   6.826   5.929  0.0840 -1.5864 -1.3118
15564SOL     OW51538   7.445   0.947   8.456 -0.0878 -0.0059 -0.5087
15564SOL    HW151539   7.462   0.894   8.378 -0.2539  1.6465 -1.7095
15564SOL    HW251540   7.371   1.003   8.432  1.1937  2.0154  0.0586
15565SOL     OW51541   6.111   4.102   6.458  0.9865  0.0149 -0.0966
15565SOL    HW151542   6.022   4.067   6.457  0.9781 -0.0015  0.9406
15565SOL    HW251543   6.160   4.043   6.401  0.2640  0.2325 -0.9713
15566SOL     OW51544   1.222   3.753   1.812 -0.0062 -0.1110 -0.0977
15566SOL    HW151545   1.170   3.830   1.791 -0.8322 -0.8945 -1.0321
15566SOL    HW251546   1.287   3.747   1.743 -0.0221 -0.3211 -0.0960
15567SOL     OW51547   0.972   4.786   9.464 -0.8205  0.4305  0.5585
15567SOL    HW151548   0.990   4.727   9.390 -0.2711  0.4838  0.6451
15567SOL    HW251549   0.914   4.735   9.521 -1.9640  0.7098 -0.3231
15568SOL     OW51550   7.954   3.658   5.553 -0.0817 -0.1162  0.8353
15568SOL    HW151551   8.039   3.618   5.534 -0.3303 -0.1396 -0.3061
15568SOL    HW251552   7.952   3.666   5.648  0.8418 -0.8969  0.9351
15569SOL     OW51553   3.686   7.192   4.251  0.0777  0.2952  0.1772
15569SOL    HW151554   3.697   7.100   4.226  0.9723  0.2405  0.7588
15569SOL    HW251555   3.634   7.189   4.332  0.6880  0.2604  0.5725
15570SOL     OW51556   6.055   1.132   6.576  0.1647  0.1467 -0.0011
15570SOL    HW151557   6.052   1.121   6.671 -0.1964 -1.4901 -0.1682
15570SOL    HW251558   5.990   1.200   6.558  0.9115  1.1420  0.9918
15571SOL     OW51559   8.926   1.080   3.779  0.0748  0.0058 -0.0367
15571SOL    HW151560   8.971   1.002   3.745  0.6470  0.3241 -0.0234
15571SOL    HW251561   8.940   1.076   3.874 -0.7989 -0.4338  0.0770
15572SOL     OW51562   4.884   0.558   9.621  0.6147  0.3106  0.8932
15572SOL    HW151563   4.844   0.644   9.613  3.2983  1.4817 -1.8657
15572SOL    HW251564   4.947   0.567   9.692  1.1880  0.7993  0.3347
15573SOL     OW51565   6.781   1.780   6.914 -0.1668  0.1965 -1.1378
15573SOL    HW151566   6.835   1.801   6.838  1.6491 -1.9973 -0.5684
15573SOL    HW251567   6.732   1.702   6.887 -0.5204  0.1897 -0.4857
15574SOL     OW51568   8.552   2.413   0.096 -0.0435 -0.3172  0.3115
15574SOL    HW151569   8.522   2.390   0.184  0.4054  0.5203  0.6944
15574SOL    HW251570   8.643   2.441   0.108 -0.3650  1.0272 -0.2083
15575SOL     OW51571   6.489   7.280   0.135  0.7938  0.0041  0.0783
15575SOL    HW151572   6.532   7.203   0.098  0.5583  1.0058 -2.4256
15575SOL    HW251573   6.525   7.286   0.224  2.9171 -1.3792 -0.6047
15576SOL     OW51574   6.427   7.845   2.617 -0.0506 -0.7651 -0.2131
15576SOL    HW151575   6.504   7.898   2.639 -0.2494 -0.3753 -0.4652
15576SOL    HW251576   6.374   7.846   2.697 -0.6564  0.4520 -0.6181
15577SOL     OW51577   5.378   4.642   3.085 -0.2135  0.2109  0.2370
15577SOL    HW151578   5.397   4.732   3.113 -1.8462  1.0427 -1.1879
15577SOL    HW251579   5.285   4.643   3.064  0.3416 -1.0329 -2.6340
15578SOL     OW51580   1.759   3.388   7.027  0.0256  0.4061  0.2626
15578SOL    HW151581   1.678   3.337   7.025  0.9061 -1.0773  0.6791
15578SOL    HW251582   1.734   3.474   6.993 -2.1564  0.6383  2.2254
15579SOL     OW51583   4.082   3.699   4.635  0.1934 -0.3547 -0.7066
15579SOL    HW151584   4.027   3.661   4.703 -0.1098 -0.0332 -0.7695
15579SOL    HW251585   4.041   3.673   4.552  0.9896 -1.3857 -0.7942
15580SOL     OW51586   1.381   6.326   2.835  0.3065 -0.2304 -0.1667
15580SOL    HW151587   1.468   6.293   2.855  0.6451 -0.3952 -1.7911
15580SOL    HW251588   1.363   6.294   2.747 -1.4712 -0.3393  0.2016
15581SOL     OW51589   2.930   0.667   5.446 -0.2157  0.1118  0.5054
15581SOL    HW151590   3.007   0.722   5.459  1.1125 -1.2472 -1.1207
15581SOL    HW251591   2.962   0.578   5.458 -2.3172 -0.4110  3.0882
15582SOL     OW51592   3.684   7.569   7.764  0.3505 -0.0832 -0.5138
15582SOL    HW151593   3.696   7.663   7.750  2.1216 -0.1671  0.1046
15582SOL    HW251594   3.679   7.531   7.676  1.4156  0.4310 -0.8171
15583SOL     OW51595   0.688   5.329   8.053  0.4699 -0.1914  0.5408
15583SOL    HW151596   0.614   5.271   8.073  0.5772 -0.7206 -0.5417
15583SOL    HW251597   0.664   5.412   8.094 -1.4369  0.0834 -0.9587
15584SOL     OW51598   2.881   2.925   7.987  0.4414 -0.4511  0.7360
15584SOL    HW151599   2.928   2.860   7.934 -0.6014  0.1789 -1.0080
15584SOL    HW251600   2.841   2.873   8.057  0.4151 -1.5505 -0.0706
15585SOL     OW51601   7.809   9.241   9.357 -0.9082  0.7237 -0.0117
15585SOL    HW151602   7.875   9.239   9.426  0.0291  4.1330 -0.6056
15585SOL    HW251603   7.773   9.330   9.360 -3.4696 -0.1462 -1.5686
15586SOL     OW51604   4.589   3.011   4.957  0.2498  0.3359 -0.0828
15586SOL    HW151605   4.641   2.932   4.972 -0.0248  0.2086  0.1956
15586SOL    HW251606   4.559   3.002   4.867  0.1562  0.0868 -0.0271
15587SOL     OW51607   7.620   8.983   0.522 -0.0903 -0.0816 -0.2940
15587SOL    HW151608   7.609   8.894   0.556  2.2128 -0.6295 -0.7827
15587SOL    HW251609   7.714   9.000   0.530 -0.1196  1.3960 -2.3562
15588SOL     OW51610   7.480   6.091   3.438  0.6284 -0.2120 -0.1346
15588SOL    HW151611   7.385   6.085   3.429  0.4171  2.4383 -0.4591
15588SOL    HW251612   7.494   6.113   3.531  0.8843 -0.1414 -0.1871
15589SOL     OW51613   2.307   6.139   0.709 -0.2730 -0.0959  0.0465
15589SOL    HW151614   2.394   6.164   0.676  0.0161 -2.7973 -1.5242
15589SOL    HW251615   2.267   6.222   0.736  2.5568  1.3048  0.3372
15590SOL     OW51616   0.484   7.776   5.619 -0.1841  0.5319  0.3096
15590SOL    HW151617   0.482   7.745   5.710  1.6828  1.4939  0.7360
15590SOL    HW251618   0.561   7.833   5.615  0.1999 -0.0354 -2.0639
15591SOL     OW51619   1.548   4.187   6.392 -0.3224  0.0212  0.2773
15591SOL    HW151620   1.492   4.189   6.315  0.4988 -0.5291 -0.3532
15591SOL    HW251621   1.607   4.262   6.382  1.1305 -1.1955 -0.7022
15592SOL     OW51622   1.753   9.645   0.330  0.3657 -0.4008 -0.4632
15592SOL    HW151623   1.696   9.662   0.405  2.1171 -0.0913  0.8544
15592SOL    HW251624   1.755   9.728   0.282 -0.0700 -0.3294 -0.3598
15593SOL     OW51625   1.002   1.129   1.552 -0.1699  0.1039  0.0969
15593SOL    HW151626   0.990   1.065   1.622 -0.6535 -0.7209 -0.7062
15593SOL    HW251627   1.084   1.173   1.573  0.0583 -0.6316  0.7984
15594SOL     OW51628   8.227   8.261   5.829  0.0636 -0.1046  0.1853
15594SOL    HW151629   8.196   8.289   5.742  0.8286  2.9014  0.7447
15594SOL    HW251630   8.149   8.265   5.884  0.1676  1.3197  0.2805
15595SOL     OW51631   7.630   7.441   1.164  0.2255  0.0505  0.2550
15595SOL    HW151632   7.569   7.404   1.101  0.5376  0.6642 -0.4232
15595SOL    HW251633   7.692   7.370   1.182 -1.1166 -0.8323  1.5592
15596SOL     OW51634   8.136   8.840   3.775 -0.6826 -0.0817  0.2121
15596SOL    HW151635   8.111   8.893   3.850 -0.6250 -1.2701  1.0927
15596SOL    HW251636   8.057   8.835   3.721 -0.8233  0.4773  0.3590
15597SOL     OW51637   4.939   6.648   1.921  0.0781  0.0485 -0.2720
15597SOL    HW151638   4.977   6.565   1.892 -1.1013 -0.6908  0.2292
15597SOL    HW251639   4.924   6.697   1.840 -1.7781 -1.3768 -0.8447
15598SOL     OW51640   8.660   0.620   8.615 -0.0554 -0.1916 -0.2450
15598SOL    HW151641   8.709   0.545   8.649  0.7671  0.5145  0.1933
15598SOL    HW251642   8.722   0.693   8.621 -0.7472  0.4664 -0.9107
15599SOL     OW51643   7.059   7.399   6.610  0.2218 -0.3286  0.7736
15599SOL    HW151644   7.029   7.466   6.549  1.2376 -0.4302  0.1330
15599SOL    HW251645   6.978   7.359   6.644 -0.3666  0.2536  0.0882
15600SOL     OW51646   3.759   7.644   3.640  0.3593 -0.1821  0.2393
15600SOL    HW151647   3.714   7.637   3.556  0.9456 -0.8694 -0.0249
15600SOL    HW251648   3.818   7.719   3.630  0.9433 -0.6921 -0.2169
15601SOL     OW51649   4.316   7.529   6.633 -0.3017  0.4167  0.3931
15601SOL    HW151650   4.333   7.464   6.565 -0.8877  0.9676 -0.2895
15601SOL    HW251651   4.313   7.478   6.714  0.0490 -0.2945 -0.0289
15602SOL     OW51652   4.570   5.397   7.569  0.1300  0.3672 -0.2481
15602SOL    HW151653   4.479   5.427   7.571  0.2755  0.7934  0.0794
15602SOL    HW251654   4.564   5.302   7.558 -0.3357  0.4955 -1.1686
15603SOL     OW51655   3.946   8.059   8.366  0.1308 -0.1475  0.0968
15603SOL    HW151656   3.869   8.097   8.410 -0.5118 -0.8831 -0.3706
15603SOL    HW251657   3.932   8.078   8.273 -0.3580 -1.7639 -0.1853
15604SOL     OW51658   7.767   7.339   5.750 -0.5302 -0.1505  0.2749
15604SOL    HW151659   7.709   7.263   5.747 -0.4572 -0.2715  1.4014
15604SOL    HW251660   7.774   7.360   5.843 -0.7881  1.4352 -0.0425
15605SOL     OW51661   3.881   6.156   6.451 -0.0423 -0.7823  0.4398
15605SOL    HW151662   3.865   6.105   6.371  0.2871  0.7845 -0.6786
15605SOL    HW251663   3.925   6.094   6.510 -1.4843 -2.3718 -0.0468
15606SOL     OW51664   7.799   0.534   3.818  0.6065 -0.4671  0.0374
15606SOL    HW151665   7.703   0.539   3.820  0.6474  0.5759 -0.0601
15606SOL    HW251666   7.819   0.495   3.733  0.2489 -1.3620  0.3598
15607SOL     OW51667   4.078   6.522   3.944  0.1332  0.3478  0.1120
15607SOL    HW151668   4.156   6.477   3.979 -0.3896 -0.1161  0.7169
15607SOL    HW251669   4.070   6.489   3.855  0.9840  0.8726 -0.1717
15608SOL     OW51670   0.774   8.985   3.890 -0.4378 -0.0912 -0.8531
15608SOL    HW151671   0.800   9.069   3.852 -0.0489 -0.6278 -1.8272
15608SOL    HW251672   0.856   8.945   3.917 -0.7073  0.2405  0.5031
15609SOL     OW51673   8.454   8.793   9.072 -0.2847 -0.0073 -0.5580
15609SOL    HW151674   8.498   8.722   9.119 -1.3188  0.4315  1.1855
15609SOL    HW251675   8.372   8.754   9.042 -1.5369  0.7250  1.6614
15610SOL     OW51676   9.511   0.121   2.727 -0.6786 -0.0216 -0.3031
15610SOL    HW151677   9.512   0.050   2.663  2.7123 -0.7453  0.3462
15610SOL    HW251678   9.528   0.200   2.676 -1.8545 -0.0124 -0.7092
15611SOL     OW51679   9.515   5.399   8.846  0.3077 -0.0006  0.3499
15611SOL    HW151680   9.498   5.490   8.871  0.8519 -0.3018  1.9449
15611SOL    HW251681   9.610   5.389   8.858 -0.0852 -1.4811  2.8139
15612SOL     OW51682   5.363   3.069   8.759  0.3075 -0.3557  0.8843
15612SOL    HW151683   5.288   3.048   8.814  0.7065 -1.7925  0.8999
15612SOL    HW251684   5.355   3.164   8.744 -2.0544 -0.6092  0.0574
15613SOL     OW51685   6.850   1.932   0.625 -0.7423  0.0655  0.2414
15613SOL    HW151686   6.851   1.842   0.594 -1.5498 -0.1820  0.8927
15613SOL    HW251687   6.832   1.985   0.547 -0.0505 -0.3113 -0.1781
15614SOL     OW51688   4.089   0.802   4.125  0.1469 -0.0250 -0.5728
15614SOL    HW151689   4.074   0.762   4.039 -0.9463  0.0533 -0.4365
15614SOL    HW251690   4.069   0.732   4.188 -2.1692  0.7859 -0.3236
15615SOL     OW51691   1.463   4.194   6.728 -0.1387  0.1880 -0.0873
15615SOL    HW151692   1.483   4.273   6.678  0.4685 -0.0114 -0.1612
15615SOL    HW251693   1.398   4.223   6.793  1.5442  1.2315  1.2180
15616SOL     OW51694   1.574   2.405   3.111  0.3356  0.6546  0.2315
15616SOL    HW151695   1.603   2.365   3.029 -0.4747  0.7410 -0.1148
15616SOL    HW251696   1.540   2.491   3.084  0.4315  0.8456  0.7147
15617SOL     OW51697   7.443   1.632   8.194 -0.3612 -1.0690  0.1512
15617SOL    HW151698   7.482   1.586   8.269 -1.7447 -2.7732 -0.1016
15617SOL    HW251699   7.447   1.568   8.123 -2.3908 -0.8582 -0.2053
15618SOL     OW51700   4.785   7.679   4.989 -0.1489 -0.4033 -0.4990
15618SOL    HW151701   4.854   7.736   4.954 -0.3426 -0.7938 -1.5680
15618SOL    HW251702   4.709   7.697   4.933 -1.2566  0.7409  1.2650
15619SOL     OW51703   6.242   8.063   7.392  0.9734 -0.0622 -0.0611
15619SOL    HW151704   6.316   8.104   7.435  0.1197 -0.1957  1.6145
15619SOL    HW251705   6.165   8.102   7.433  0.1285 -2.0776  0.3967
15620SOL     OW51706   4.078   9.499   9.213  0.6868  0.0622 -0.0884
15620SOL    HW151707   4.129   9.422   9.187 -0.4165 -0.9149  0.5499
15620SOL    HW251708   3.991   9.483   9.176  0.9079  1.8998 -1.5288
15621SOL     OW51709   0.336   1.516   5.214 -0.0272  0.0743  0.0524
15621SOL    HW151710   0.256   1.472   5.241  0.9700 -2.4531 -0.7958
15621SOL    HW251711   0.314   1.558   5.131 -1.6770  3.5141  2.0269
15622SOL     OW51712   0.599   4.716   9.041 -0.3972  0.2303 -0.1194
15622SOL    HW151713   0.551   4.729   9.123  0.9893  3.1052  0.3784
15622SOL    HW251714   0.535   4.737   8.972 -0.5808  1.5782  0.4265
15623SOL     OW51715   0.677   6.626   8.148  0.3065 -0.2059 -0.0241
15623SOL    HW151716   0.708   6.675   8.071  0.5467 -0.7989 -0.3086
15623SOL    HW251717   0.704   6.536   8.131 -1.5400 -0.7546 -0.2699
15624SOL     OW51718   7.754   8.244   9.205  0.4402  0.3577  0.2493
15624SOL    HW151719   7.659   8.250   9.215  0.7966  3.5685  3.7912
15624SOL    HW251720   7.781   8.179   9.270  0.8289  1.7756  1.5531
15625SOL     OW51721   9.729   3.083   8.367 -0.1292 -0.2581  0.9941
15625SOL    HW151722   9.823   3.064   8.371  0.2012  0.7882 -0.8137
15625SOL    HW251723   9.723   3.167   8.321 -1.9429 -0.1630  1.3259
15626SOL     OW51724   9.189   0.911   0.192  0.3824 -0.4264  0.0387
15626SOL    HW151725   9.223   0.948   0.274  1.3700  0.9449 -0.9372
15626SOL    HW251726   9.116   0.968   0.169 -0.2930 -1.1872  0.2649
15627SOL     OW51727   7.359   7.573   5.462 -0.4335 -0.4420  0.1254
15627SOL    HW151728   7.449   7.562   5.430 -0.8046 -0.0631 -1.1362
15627SOL    HW251729   7.328   7.652   5.418 -1.2634 -0.3568  0.8369
15628SOL     OW51730   6.753   6.702   9.648  0.7599 -0.2889 -0.1411
15628SOL    HW151731   6.692   6.636   9.616  0.3841 -0.2029  0.3913
15628SOL    HW251732   6.751   6.693   9.743 -0.7128  1.7035  0.0816
15629SOL     OW51733   5.757   1.697   1.038  0.2198 -0.2561  0.2740
15629SOL    HW151734   5.830   1.656   0.993 -0.0337  0.1842 -0.5714
15629SOL    HW251735   5.740   1.777   0.988 -0.8953 -0.3983  0.3896
15630SOL     OW51736   9.084   5.670   5.287  0.0478 -0.0799 -0.1169
15630SOL    HW151737   9.039   5.754   5.293  0.1480 -0.0865  0.8368
15630SOL    HW251738   9.028   5.608   5.334  0.5609 -0.2906  0.2301
15631SOL     OW51739   5.141   4.871   6.266  0.4881 -0.3022  0.1420
15631SOL    HW151740   5.134   4.934   6.194  0.1510  0.6434  0.9687
15631SOL    HW251741   5.072   4.807   6.250  0.5984 -0.2610 -0.5177
15632SOL     OW51742   4.104   6.910   4.479  0.2587 -0.3685 -0.1242
15632SOL    HW151743   4.164   6.854   4.429  1.1319  0.8787 -0.5248
15632SOL    HW251744   4.102   6.992   4.430 -0.6147  0.1194  0.7069
15633SOL     OW51745   0.899   1.657   9.495  0.0603 -0.3376  0.2563
15633SOL    HW151746   0.860   1.651   9.582 -2.3288 -0.0986 -0.6989
15633SOL    HW251747   0.838   1.712   9.446  0.3797 -1.9145 -2.0513
15634SOL     OW51748   9.068   7.373   1.633  0.4645  0.4196  0.1400
15634SOL    HW151749   8.975   7.380   1.651  0.1368 -1.4400 -0.6026
15634SOL    HW251750   9.081   7.419   1.551  0.0321  0.0116 -0.1641
15635SOL     OW51751   2.858   5.051   1.090 -0.2597  0.1374 -0.3760
15635SOL    HW151752   2.880   5.095   1.171  0.2939 -1.3250  0.3102
15635SOL    HW251753   2.842   5.121   1.027  4.7828  1.4648 -0.5689
15636SOL     OW51754   4.832   5.043   6.326 -0.1935  0.3817 -0.2932
15636SOL    HW151755   4.859   5.016   6.414 -1.1710  1.0689  0.2362
15636SOL    HW251756   4.801   4.963   6.284 -0.6447  0.2178  0.3421
15637SOL     OW51757   2.527   1.937   3.287 -0.3890 -0.3404  0.4916
15637SOL    HW151758   2.553   1.871   3.222 -0.7021 -0.3987  0.4254
15637SOL    HW251759   2.468   1.890   3.346 -3.7055  0.7669 -1.7000
15638SOL     OW51760   4.273   3.972   9.040 -0.1681  0.3329 -0.8940
15638SOL    HW151761   4.291   3.978   8.946 -2.7804  0.6480 -1.4526
15638SOL    HW251762   4.180   3.953   9.045  0.0727 -0.4998  1.6596
15639SOL     OW51763   7.403   3.924   2.578  0.4330 -0.4740 -0.1895
15639SOL    HW151764   7.498   3.920   2.577  0.4064 -1.2969 -0.4368
15639SOL    HW251765   7.375   3.844   2.533 -0.3707 -0.5815  0.4600
15640SOL     OW51766   3.992   1.293   8.640 -0.4031  0.1910 -0.6762
15640SOL    HW151767   3.978   1.238   8.718 -2.1630  0.3692 -0.8490
15640SOL    HW251768   4.084   1.278   8.618 -0.1531 -0.7038  0.7948
15641SOL     OW51769   9.422   3.887   2.356 -0.1860 -0.0476 -0.2736
15641SOL    HW151770   9.512   3.859   2.340  0.5597  1.2504  1.2995
15641SOL    HW251771   9.403   3.857   2.445  0.2526  3.1502  1.0567
15642SOL     OW51772   7.547   5.090   1.524 -0.0548 -0.1932  0.2256
15642SOL    HW151773   7.513   5.096   1.613 -0.9432  1.9094 -0.1869
15642SOL    HW251774   7.475   5.120   1.469  0.9807 -0.0087 -1.0839
15643SOL     OW51775   3.064   6.798   1.500 -0.2546  0.2753 -0.2511
15643SOL    HW151776   3.079   6.828   1.590  2.6058 -0.0630 -0.5280
15643SOL    HW251777   3.053   6.879   1.450  0.7847  0.5886  0.0098
15644SOL     OW51778   7.736   7.489   2.983 -0.5352  0.2974  0.1097
15644SOL    HW151779   7.740   7.423   2.914 -0.2324 -0.5566  0.9208
15644SOL    HW251780   7.822   7.484   3.025  0.9413  3.7490 -2.0727
15645SOL     OW51781   6.312   8.063   8.091  0.3266  0.1473  0.4774
15645SOL    HW151782   6.282   8.078   8.002 -0.0403 -0.1700  0.5471
15645SOL    HW251783   6.240   8.017   8.134  0.5905  0.0953  0.8721
15646SOL     OW51784   6.457   4.002   9.330  0.5375  0.0197 -0.0513
15646SOL    HW151785   6.368   3.998   9.364  0.0375 -2.2867 -1.4187
15646SOL    HW251786   6.512   3.991   9.407 -0.4767 -1.6168  0.4965
15647SOL     OW51787   2.265   2.984   1.824  0.3588 -0.3620 -0.2155
15647SOL    HW151788   2.201   3.055   1.813  0.1468 -0.3840  0.7559
15647SOL    HW251789   2.339   3.010   1.769  0.0724  0.3596 -0.2749
15648SOL     OW51790   5.825   7.841   9.091  0.9259 -0.1567  0.4522
15648SOL    HW151791   5.906   7.835   9.141  1.7925  3.0159 -0.3397
15648SOL    HW251792   5.849   7.807   9.004  1.9725  2.2205 -0.2606
15649SOL     OW51793   4.292   4.176   4.944 -0.4382  0.2820  0.2285
15649SOL    HW151794   4.350   4.183   5.019 -1.1162  1.0092  0.7012
15649SOL    HW251795   4.329   4.236   4.879  0.5432 -0.8651 -0.3062
15650SOL     OW51796   0.934   8.794   5.720  0.0784  0.1597 -0.0315
15650SOL    HW151797   0.889   8.830   5.797  0.5528  1.0556 -0.1572
15650SOL    HW251798   0.937   8.867   5.658  2.0665  0.2785  0.1352
15651SOL     OW51799   9.058   6.398   0.457 -1.1797 -0.2752  0.3539
15651SOL    HW151800   9.114   6.324   0.434  0.1412  0.6270  0.5295
15651SOL    HW251801   9.112   6.451   0.516 -2.9163 -0.3406  2.1035
15652SOL     OW51802   9.304   2.991   3.143  0.3582 -0.0165 -0.7903
15652SOL    HW151803   9.236   2.923   3.144 -1.3229  1.5355  1.6075
15652SOL    HW251804   9.369   2.960   3.206  0.3276 -0.0778 -0.7885
15653SOL     OW51805   5.977   0.041   7.919 -0.9429  0.0200  0.5806
15653SOL    HW151806   5.923   0.099   7.864 -0.2449 -0.1017 -0.2633
15653SOL    HW251807   6.050   0.097   7.946 -2.4013  0.7659  3.3288
15654SOL     OW51808   4.957   3.731   7.417  0.5350 -0.5360  0.7054
15654SOL    HW151809   4.954   3.639   7.391  1.4481 -0.5996  0.7785
15654SOL    HW251810   5.048   3.745   7.444  0.5592  0.5438  0.1193
15655SOL     OW51811   6.635   7.511   9.568 -0.4188  0.0775  0.2027
15655SOL    HW151812   6.566   7.475   9.624 -0.1682  1.3061  1.3765
15655SOL    HW251813   6.609   7.602   9.555  0.4500  0.2760 -0.2028
15656SOL     OW51814   3.509   8.090   1.895  0.3443 -0.1688  0.1633
15656SOL    HW151815   3.558   8.049   1.966  0.9238  0.7350  0.3119
15656SOL    HW251816   3.567   8.160   1.864 -0.7216  0.7386  0.1477
15657SOL     OW51817   4.013   3.987   1.165 -0.2365 -0.4821  0.2170
15657SOL    HW151818   4.052   3.904   1.137 -3.4311 -2.2784  0.6704
15657SOL    HW251819   3.998   4.036   1.084  0.4695 -0.9016 -0.1759
15658SOL     OW51820   0.473   6.888   7.408 -0.6800  0.2114 -0.4778
15658SOL    HW151821   0.542   6.822   7.409 -1.0706 -0.2007 -0.4489
15658SOL    HW251822   0.503   6.952   7.343  0.4016  0.7740  0.5349
15659SOL     OW51823   3.513   4.742   7.472 -0.7629 -0.3118  0.4945
15659SOL    HW151824   3.436   4.797   7.457 -0.8752 -0.3001  1.0975
15659SOL    HW251825   3.559   4.742   7.388 -1.2148 -0.0015  0.2415
15660SOL     OW51826   2.534   9.281   2.245 -0.0179 -0.4071 -0.1285
15660SOL    HW151827   2.516   9.239   2.329 -1.4275  0.7135  0.1714
15660SOL    HW251828   2.595   9.351   2.266  0.1111 -0.5107 -0.1539
15661SOL     OW51829   4.115   1.138   0.794 -0.4584 -0.0226  0.3603
15661SOL    HW151830   4.186   1.122   0.732 -0.4132  0.9694  0.1377
15661SOL    HW251831   4.148   1.104   0.877  0.2512  0.3346  0.2394
15662SOL     OW51832   7.834   8.536   4.930  0.3395 -0.3181  0.2269
15662SOL    HW151833   7.861   8.539   5.022  2.1045  0.1957 -0.2710
15662SOL    HW251834   7.807   8.445   4.915 -1.1575 -0.1411  1.5326
15663SOL     OW51835   5.224   6.855   7.181  0.1031 -0.2051 -0.4262
15663SOL    HW151836   5.178   6.771   7.180 -0.3900  0.0534 -0.2854
15663SOL    HW251837   5.283   6.851   7.106  0.2489 -0.7659 -0.2822
15664SOL     OW51838   1.791   9.516   8.497 -0.2765  0.2450  0.3527
15664SOL    HW151839   1.773   9.433   8.540  1.0567  0.6405  1.7840
15664SOL    HW251840   1.868   9.550   8.542 -0.5872  2.1039 -0.4062
15665SOL     OW51841   1.217   4.181   1.638  0.3614 -0.0356  0.2242
15665SOL    HW151842   1.217   4.249   1.570 -0.5235  0.2891  0.5265
15665SOL    HW251843   1.182   4.225   1.716  1.9430 -0.2312  1.0862
15666SOL     OW51844   2.812   3.327   0.118  0.7784  0.4753  0.0172
15666SOL    HW151845   2.738   3.290   0.072  0.6960  1.3493 -0.5870
15666SOL    HW251846   2.885   3.268   0.098  0.0328 -1.0656  1.5912
15667SOL     OW51847   3.365   7.828   9.415 -0.1533  0.1818 -0.1833
15667SOL    HW151848   3.342   7.738   9.391 -3.1140  0.4747  1.0065
15667SOL    HW251849   3.459   7.834   9.402  0.1125 -3.0202 -0.5084
15668SOL     OW51850   7.251   6.338   0.662 -0.0403 -0.0562 -0.0938
15668SOL    HW151851   7.251   6.245   0.685  1.5347  0.2276  1.2120
15668SOL    HW251852   7.340   6.355   0.632  0.4683  1.5406  2.0942
15669SOL     OW51853   1.760   0.338   9.526  0.3842  0.1507 -0.2599
15669SOL    HW151854   1.679   0.339   9.577  0.3900  0.2154 -0.2529
15669SOL    HW251855   1.732   0.349   9.435  0.1925 -1.9298 -0.5011
15670SOL     OW51856   5.119   8.157   6.557 -0.0316  0.1977 -0.6477
15670SOL    HW151857   5.155   8.233   6.512  0.7913 -0.4350 -1.0872
15670SOL    HW251858   5.131   8.175   6.650 -2.5976  1.9504 -0.5499
15671SOL     OW51859   9.276   9.658   4.430  0.9103  0.3626  0.1183
15671SOL    HW151860   9.252   9.579   4.382 -1.1969 -0.4182  2.2102
15671SOL    HW251861   9.329   9.627   4.503 -0.3071  0.7282  1.2181
15672SOL     OW51862   6.964   0.832   8.825  0.1338  0.3908 -0.5105
15672SOL    HW151863   6.970   0.926   8.808  0.9889  0.2136 -1.2943
15672SOL    HW251864   6.872   0.817   8.845  0.1070  1.4933  0.2854
15673SOL     OW51865   5.788   1.840   3.615 -0.2100 -0.4850  0.1266
15673SOL    HW151866   5.711   1.861   3.564  1.0500  1.6630 -1.0276
15673SOL    HW251867   5.805   1.918   3.667  2.1693 -0.1470 -1.0098
15674SOL     OW51868   4.053   5.060   4.619  0.4025 -0.4447  0.3722
15674SOL    HW151869   4.107   5.025   4.690  2.6112 -2.8046 -2.2401
15674SOL    HW251870   4.114   5.109   4.564 -0.8928 -0.0699 -0.7901
15675SOL     OW51871   7.417   9.533   7.254  0.0815 -0.4692  0.1661
15675SOL    HW151872   7.410   9.437   7.253 -2.1548 -0.3564 -1.1017
15675SOL    HW251873   7.351   9.561   7.318 -0.5791  0.2647 -0.8051
15676SOL     OW51874   0.760   5.385   0.185  0.1661 -0.2182  0.1532
15676SOL    HW151875   0.735   5.467   0.142 -2.4007 -1.5314 -1.1069
15676SOL    HW251876   0.776   5.324   0.112  3.5403 -0.5612  1.0096
15677SOL     OW51877   1.893   4.145   0.053 -0.0721 -0.4175 -0.7291
15677SOL    HW151878   1.933   4.114   0.134  0.9899  0.5058 -0.8645
15677SOL    HW251879   1.850   4.227   0.077 -2.8057 -1.8338 -0.3834
15678SOL     OW51880   9.731   2.341   1.423 -0.4206  0.1112  0.7876
15678SOL    HW151881   9.650   2.290   1.419  0.6913 -1.7115  0.1077
15678SOL    HW251882   9.782   2.299   1.492  0.7167 -0.0334 -0.1075
15679SOL     OW51883   4.550   0.101   4.412 -0.0715  0.3834  0.0390
15679SOL    HW151884   4.582   0.187   4.385 -1.2392  0.8719  0.1490
15679SOL    HW251885   4.465   0.092   4.369  0.8339 -1.5394 -1.4909
15680SOL     OW51886   8.801   9.712   5.253 -0.1115 -0.2341 -0.1303
15680SOL    HW151887   8.758   9.787   5.212  1.7133  0.7455 -0.4008
15680SOL    HW251888   8.889   9.744   5.273  0.6255 -2.2229  0.0342
15681SOL     OW51889   2.841   9.199   6.058  0.2684 -0.2592 -0.0393
15681SOL    HW151890   2.894   9.133   6.014  1.4295 -0.6380  1.8085
15681SOL    HW251891   2.847   9.177   6.151  2.4136  3.4993  0.9301
15682SOL     OW51892   9.396   9.060   4.322 -0.1776 -0.4585 -0.3173
15682SOL    HW151893   9.437   9.039   4.238 -0.7909  1.6807 -1.1987
15682SOL    HW251894   9.306   9.028   4.313  0.4105 -2.5574  0.5548
15683SOL     OW51895   7.360   8.793   1.363 -0.2730 -0.1144  0.0862
15683SOL    HW151896   7.334   8.868   1.417  1.5365 -0.1416  1.0920
15683SOL    HW251897   7.391   8.728   1.427  1.4675 -0.3467 -0.9354
15684SOL     OW51898   9.358   4.197   3.085 -0.7603 -0.3956 -0.0470
15684SOL    HW151899   9.387   4.107   3.070  0.3134 -0.1896  0.7221
15684SOL    HW251900   9.272   4.188   3.125 -0.7120 -1.0764 -0.0845
15685SOL     OW51901   9.716   9.494   6.544 -0.1973 -0.5058 -0.1832
15685SOL    HW151902   9.663   9.560   6.499 -0.0172 -1.2355 -1.5021
15685SOL    HW251903   9.657   9.454   6.607 -1.8526 -2.5028 -2.7747
15686SOL     OW51904   8.178   6.774   2.509  0.3170 -0.2225  0.1057
15686SOL    HW151905   8.144   6.689   2.533 -2.6906  0.7304 -0.4013
15686SOL    HW251906   8.220   6.761   2.424 -0.1458 -1.1890  0.0202
15687SOL     OW51907   1.924   7.892   3.042 -0.5230 -0.0677  0.3519
15687SOL    HW151908   1.917   7.818   2.981 -1.3627  0.5281 -0.3023
15687SOL    HW251909   1.934   7.852   3.128 -0.5017 -0.9388 -0.0456
15688SOL     OW51910   5.024   5.981   2.740 -0.0199  0.2842 -0.2038
15688SOL    HW151911   5.011   5.924   2.664  0.1758  0.5297 -0.4234
15688SOL    HW251912   4.989   6.066   2.712  0.6270  0.5430 -0.2478
15689SOL     OW51913   1.877   8.230   3.222  0.8532  0.2153  0.1447
15689SOL    HW151914   1.895   8.192   3.136 -0.3874 -1.1475  0.4499
15689SOL    HW251915   1.854   8.155   3.277  0.1293  1.2292  1.2762
15690SOL     OW51916   4.511   4.446   2.116 -0.5508 -0.1291  0.2787
15690SOL    HW151917   4.564   4.498   2.056 -3.0105  1.1885 -0.9250
15690SOL    HW251918   4.568   4.373   2.142  1.9875  1.4690 -0.4096
15691SOL     OW51919   7.450   4.179   2.756  0.6733 -0.0755 -0.5310
15691SOL    HW151920   7.485   4.144   2.838  0.6512  0.1767 -0.4125
15691SOL    HW251921   7.472   4.113   2.690 -0.5604 -0.9722 -0.0854
15692SOL     OW51922   9.495   1.696   3.106  0.1548 -0.7039  0.2701
15692SOL    HW151923   9.516   1.603   3.117 -1.5436 -1.2732 -0.7871
15692SOL    HW251924   9.566   1.730   3.052  0.4029 -1.5706  0.0259
15693SOL     OW51925   9.473   7.665   5.083 -0.2212 -0.2678 -0.2467
15693SOL    HW151926   9.426   7.723   5.142 -0.2830  0.4245 -0.9599
15693SOL    HW251927   9.565   7.675   5.106 -0.2433  0.0081 -0.2788
15694SOL     OW51928   6.014   9.659   4.317 -0.2692 -0.1460  0.3083
15694SOL    HW151929   6.021   9.678   4.223  1.2677  0.7620  0.5743
15694SOL    HW251930   6.015   9.564   4.322 -1.7597 -0.2553 -0.6677
15695SOL     OW51931   6.429   5.923   3.000  0.1341  0.0176 -0.1062
15695SOL    HW151932   6.466   5.845   3.041  1.4284  0.1050 -1.0374
15695SOL    HW251933   6.383   5.890   2.923  0.5089  0.1546 -0.3886
15696SOL     OW51934   5.855   8.775   2.133  0.0080 -0.1951 -0.1324
15696SOL    HW151935   5.777   8.719   2.137 -1.1222  1.3773  0.8973
15696SOL    HW251936   5.889   8.777   2.222  1.0646 -0.6039 -0.5075
15697SOL     OW51937   9.622   3.109   6.133  0.5540 -0.1852  0.2322
15697SOL    HW151938   9.572   3.027   6.129  0.5048 -0.1264 -0.3749
15697SOL    HW251939   9.559   3.176   6.106  1.2436 -0.2386 -1.6526
15698SOL     OW51940   3.456   5.651   8.933  0.2452  0.0523 -0.1054
15698SOL    HW151941   3.526   5.659   8.998 -0.8683  1.6924  0.9782
15698SOL    HW251942   3.380   5.692   8.975 -1.0923 -0.7392 -1.6447
15699SOL     OW51943   2.263   2.711   0.787  0.2523  0.6588  0.1822
15699SOL    HW151944   2.200   2.705   0.715 -0.0113  1.6161  0.3189
15699SOL    HW251945   2.238   2.640   0.847  0.6812 -0.3587 -0.8106
15700SOL     OW51946   2.059   6.772   2.486 -0.1457 -0.4790 -0.3204
15700SOL    HW151947   2.044   6.858   2.448 -0.3211 -0.3661 -0.0039
15700SOL    HW251948   1.997   6.714   2.442 -1.3828 -0.0583  0.8259
15701SOL     OW51949   1.021   9.307   0.592  0.3887  0.2410  0.4561
15701SOL    HW151950   0.953   9.303   0.659  2.9676 -1.8163  3.2359
15701SOL    HW251951   1.000   9.236   0.532  1.2212 -1.9972  2.6596
15702SOL     OW51952   0.439   6.232   2.915 -0.2510  0.5873 -0.0570
15702SOL    HW151953   0.362   6.289   2.919 -1.0600 -0.4537 -0.3723
15702SOL    HW251954   0.429   6.185   2.833  0.0289 -0.5117  0.5220
15703SOL     OW51955   0.734   4.856   3.453 -1.1103 -0.2452 -0.1117
15703SOL    HW151956   0.718   4.940   3.495 -2.0545 -0.3790 -0.1952
15703SOL    HW251957   0.830   4.849   3.450 -1.0252  0.6671  0.1927
15704SOL     OW51958   7.090   2.815   0.013  0.5785 -0.5098  0.0824
15704SOL    HW151959   7.059   2.906   0.009  3.3561  0.5352 -0.1699
15704SOL    HW251960   7.141   2.804  -0.067  0.5880 -2.1990  0.2892
15705SOL     OW51961   5.977   2.232   5.037  0.1090  0.7572 -0.0521
15705SOL    HW151962   5.969   2.313   4.988  0.5233  0.0262 -1.3751
15705SOL    HW251963   5.967   2.163   4.972 -0.1225 -0.2649  1.0245
15706SOL     OW51964   1.091   0.006   5.113  0.0133  0.1511 -0.2902
15706SOL    HW151965   1.056   0.090   5.144 -0.4283 -0.0505 -0.2382
15706SOL    HW251966   1.155  -0.019   5.179  0.2181  0.4910 -0.3544
15707SOL     OW51967   3.263   6.231   3.010  0.5910  0.5213  0.8333
15707SOL    HW151968   3.174   6.196   3.021  0.1879  1.4455  0.6681
15707SOL    HW251969   3.293   6.197   2.926  0.1155  0.7652  0.5624
15708SOL     OW51970   8.318   1.146   7.922  0.6434 -0.0508 -1.3601
15708SOL    HW151971   8.329   1.061   7.965  0.8254  0.1011 -1.1099
15708SOL    HW251972   8.382   1.203   7.963 -0.5166  0.6367 -0.4385
15709SOL     OW51973   7.502   1.313   4.830  0.2723  0.1234 -0.5626
15709SOL    HW151974   7.459   1.309   4.915 -0.0173 -2.4611 -0.7769
15709SOL    HW251975   7.577   1.371   4.844 -0.1947  0.3522  1.2410
15710SOL     OW51976   3.421   8.939   1.957  0.4524 -0.3332 -0.4460
15710SOL    HW151977   3.409   9.034   1.966  0.1400 -0.2599 -1.5124
15710SOL    HW251978   3.492   8.918   2.018 -1.0599  0.1882  1.5917
15711SOL     OW51979   1.002   4.967   0.966 -0.0681 -0.1369 -0.0480
15711SOL    HW151980   0.948   4.888   0.973 -0.7486  0.4185  1.3527
15711SOL    HW251981   0.940   5.038   0.952  0.5118  0.2090 -0.9603
15712SOL     OW51982   4.293   6.160   2.288 -0.2012  0.1044 -0.0779
15712SOL    HW151983   4.347   6.188   2.362  0.0466  0.3466 -0.3510
15712SOL    HW251984   4.294   6.233   2.227  1.4994 -0.9428 -1.3809
15713SOL     OW51985   5.960   2.175   8.408 -0.1319 -0.1643 -0.4551
15713SOL    HW151986   6.046   2.216   8.410  0.4224 -1.2252 -1.4235
15713SOL    HW251987   5.910   2.226   8.344  0.0705 -0.0898 -0.5531
15714SOL     OW51988   7.850   0.233   7.332 -0.3508  0.4028  0.1174
15714SOL    HW151989   7.863   0.248   7.239 -3.5885 -1.7824 -0.8465
15714SOL    HW251990   7.904   0.156   7.352 -1.8184 -0.8870 -0.7200
15715SOL     OW51991   4.652   4.593   5.147 -0.0882 -0.3827 -0.1780
15715SOL    HW151992   4.605   4.551   5.218  0.5365  0.9758  1.0765
15715SOL    HW251993   4.739   4.552   5.148 -0.3840 -1.0480 -0.8098
15716SOL     OW51994   7.752   1.216   8.305 -0.0211  0.3066 -0.0085
15716SOL    HW151995   7.809   1.274   8.356 -1.3688  0.3702  1.5109
15716SOL    HW251996   7.722   1.150   8.368 -0.6099 -0.4844 -1.0804
15717SOL     OW51997   7.122   5.584   3.436 -0.1826  0.5875  0.2287
15717SOL    HW151998   7.042   5.546   3.473  0.6320 -1.0191  0.4040
15717SOL    HW251999   7.159   5.514   3.382  1.3009  1.1814  0.4380
15718SOL     OW52000   7.330   7.238   4.235 -0.1630  0.0073  0.0300
15718SOL    HW152001   7.294   7.159   4.196 -0.2020  0.9785 -2.0568
15718SOL    HW252002   7.254   7.283   4.273 -0.3473 -0.3093  0.0360
15719SOL     OW52003   5.450   8.523   2.272  0.1415 -0.1125  0.0422
15719SOL    HW152004   5.357   8.512   2.291  0.3923  0.6293  1.9097
15719SOL    HW252005   5.457   8.613   2.240  0.2850 -0.0172  0.3451
15720SOL     OW52006   1.882   5.354   1.597 -1.0033 -0.5597 -0.5777
15720SOL    HW152007   1.887   5.333   1.690 -1.4816 -0.2831 -0.4826
15720SOL    HW252008   1.798   5.318   1.569 -2.2817  1.8992 -0.2071
15721SOL     OW52009   3.458   8.837   1.321  0.4080  0.2916 -0.5697
15721SOL    HW152010   3.379   8.879   1.355  1.3977  2.3754 -0.7536
15721SOL    HW252011   3.478   8.883   1.240 -0.0131 -2.4081 -2.3562
15722SOL     OW52012   3.349   9.657   7.209 -0.2773  0.0701  0.0204
15722SOL    HW152013   3.425   9.598   7.201  0.0426  0.2203  1.6607
15722SOL    HW252014   3.383   9.732   7.257 -1.8742 -0.6645  2.4421
15723SOL     OW52015   1.661   5.184   3.154  0.1425 -0.0264 -0.0505
15723SOL    HW152016   1.650   5.267   3.107 -0.2679  0.8694  1.5355
15723SOL    HW252017   1.655   5.117   3.087  2.6848  1.2978 -1.7277
15724SOL     OW52018   4.788   1.745   2.458  0.0163  0.2674  0.0032
15724SOL    HW152019   4.872   1.785   2.480  0.5483 -0.5007 -0.5522
15724SOL    HW252020   4.785   1.665   2.510 -1.5316  1.5014  1.9394
15725SOL     OW52021   9.644   6.826   0.279 -0.5247  0.9796 -0.0627
15725SOL    HW152022   9.601   6.846   0.362 -0.2721  0.2734  0.2495
15725SOL    HW252023   9.688   6.907   0.254  1.1238  0.6559  1.5493
15726SOL     OW52024   0.903   1.023   8.667 -0.2255  0.3036 -0.0878
15726SOL    HW152025   0.995   1.013   8.692 -0.0289 -0.3006 -1.0039
15726SOL    HW252026   0.857   1.032   8.751  0.4976 -0.8574  0.4686
15727SOL     OW52027   0.764   8.370   1.149  0.2639 -0.3080 -0.2065
15727SOL    HW152028   0.772   8.297   1.210 -0.2583 -0.5922 -0.4703
15727SOL    HW252029   0.841   8.363   1.092 -0.7029 -1.7717 -1.4052
15728SOL     OW52030   7.667   7.234   6.385  0.2989 -0.2608  0.3194
15728SOL    HW152031   7.746   7.284   6.366  1.0067 -1.3028  0.4595
15728SOL    HW252032   7.696   7.143   6.390 -0.8084 -0.6051  0.9268
15729SOL     OW52033   7.385   0.743   9.669  0.3488  0.4982  0.1697
15729SOL    HW152034   7.429   0.815   9.713  1.9250  0.8921 -1.8830
15729SOL    HW252035   7.456   0.693   9.628 -0.9268 -0.4974 -0.9246
15730SOL     OW52036   0.331   4.632   6.352 -0.1899 -0.0893  0.1836
15730SOL    HW152037   0.287   4.605   6.271  0.6203  2.7067 -1.3102
15730SOL    HW252038   0.416   4.665   6.323 -0.1863  1.7478  2.0757
15731SOL     OW52039   9.148   7.516   2.120 -1.0356 -0.6111 -0.2628
15731SOL    HW152040   9.057   7.533   2.143 -1.2132  0.1319 -1.3953
15731SOL    HW252041   9.189   7.489   2.202 -1.5925  1.9239  0.9666
15732SOL     OW52042   5.063   8.450   4.641  0.4660 -0.5974 -0.2823
15732SOL    HW152043   5.005   8.524   4.625  1.1652  0.0409  0.0376
15732SOL    HW252044   5.098   8.466   4.729 -0.4234 -2.0385  0.3831
15733SOL     OW52045   3.558   1.894   4.510 -0.4169  0.6310  0.1281
15733SOL    HW152046   3.498   1.965   4.533  0.0477  1.0584  0.0343
15733SOL    HW252047   3.641   1.938   4.490  0.2903 -0.0245  1.4343
15734SOL     OW52048   2.019   9.082   6.196  0.2549 -0.3897  0.3007
15734SOL    HW152049   2.078   9.084   6.271  3.3446  1.1972 -1.9593
15734SOL    HW252050   2.062   9.025   6.132 -0.1205  1.4888 -1.7792
15735SOL     OW52051   3.308   8.610   7.872 -0.5927  0.0597  0.3531
15735SOL    HW152052   3.251   8.534   7.878 -2.1982  1.1502 -0.3753
15735SOL    HW252053   3.252   8.684   7.896 -0.1400  1.4291 -2.4014
15736SOL     OW52054   9.333   3.802   7.149 -0.1266 -0.0447  0.2635
15736SOL    HW152055   9.265   3.772   7.209 -0.2434 -1.8172 -0.6886
15736SOL    HW252056   9.330   3.898   7.156  0.0024 -0.1700  3.1840
15737SOL     OW52057   4.255   1.985   5.351 -0.2487 -0.9084 -0.0007
15737SOL    HW152058   4.307   2.049   5.301 -0.4033  0.5837  1.6641
15737SOL    HW252059   4.178   1.970   5.297 -0.8830  1.4089  0.1365
15738SOL     OW52060   3.116   4.555   5.972  0.3121 -0.2010 -0.1217
15738SOL    HW152061   3.117   4.459   5.969 -0.4957 -0.2056 -0.3553
15738SOL    HW252062   3.025   4.578   5.987  0.7559  0.5006  1.7189
15739SOL     OW52063   5.525   8.708   4.416 -0.0065  0.2647  0.2404
15739SOL    HW152064   5.596   8.714   4.480  0.1348 -2.1965  0.4206
15739SOL    HW252065   5.445   8.713   4.468  0.0396  1.0453  0.2563
15740SOL     OW52066   4.460   2.340   8.068  0.3440 -0.1220  0.2254
15740SOL    HW152067   4.364   2.347   8.067  0.3463  0.0724  0.8552
15740SOL    HW252068   4.485   2.365   8.157  1.0049  0.1069 -0.0175
15741SOL     OW52069   7.153   9.502   5.570 -0.1358  0.3029 -0.1596
15741SOL    HW152070   7.134   9.552   5.491 -0.9168  0.3681  0.0642
15741SOL    HW252071   7.243   9.473   5.558 -0.6979 -0.9590 -1.7902
15742SOL     OW52072   6.240   7.739   8.909 -0.9406 -0.0985 -0.8747
15742SOL    HW152073   6.196   7.692   8.838  0.1708  1.7827 -2.9396
15742SOL    HW252074   6.310   7.788   8.865  0.3377  0.5082  1.6662
15743SOL     OW52075   8.426   8.606   0.771  0.4284 -0.2971 -0.0349
15743SOL    HW152076   8.332   8.601   0.785  0.4799 -0.7172  0.1569
15743SOL    HW252077   8.455   8.679   0.827  0.1770  0.0325 -0.3295
15744SOL     OW52078   6.513   2.711   4.647 -0.6874  0.1796  0.1730
15744SOL    HW152079   6.519   2.807   4.649  0.5950  0.3448 -3.6915
15744SOL    HW252080   6.423   2.692   4.675 -0.1505  2.1520  3.8983
15745SOL     OW52081   4.305   1.088   7.256 -0.1278  0.1308 -0.3023
15745SOL    HW152082   4.333   1.082   7.165  2.1939 -2.6636  0.4634
15745SOL    HW252083   4.213   1.063   7.254 -0.5644  1.6396 -1.9890
15746SOL     OW52084   4.491   3.146   3.239 -0.4971  0.3032  0.3207
15746SOL    HW152085   4.501   3.195   3.321 -1.7682 -0.2646  0.8355
15746SOL    HW252086   4.463   3.212   3.175  0.7835  0.8032  0.2471
15747SOL     OW52087   6.609   8.130   2.440 -0.5712  0.1100  0.2969
15747SOL    HW152088   6.658   8.075   2.379 -0.7081 -0.1076  0.3817
15747SOL    HW252089   6.628   8.093   2.526 -1.4143 -0.4040  0.2770
15748SOL     OW52090   6.702   4.246   8.043 -0.3749  0.1388  0.7895
15748SOL    HW152091   6.624   4.192   8.051 -0.3538  0.2156  1.5824
15748SOL    HW252092   6.670   4.333   8.021 -0.4699  0.0313  0.4968
15749SOL     OW52093   7.276   2.860   6.048  0.5825  0.0528  0.1652
15749SOL    HW152094   7.290   2.899   5.962  0.4200 -0.6745 -0.2052
15749SOL    HW252095   7.248   2.933   6.104 -0.9469  0.2660 -0.8042
15750SOL     OW52096   2.994   6.005   5.788 -0.2658 -0.3199  0.2165
15750SOL    HW152097   3.028   6.079   5.838 -1.3038 -0.0258  0.4987
15750SOL    HW252098   2.904   6.029   5.767  0.4295  0.0994 -2.7941
15751SOL     OW52099   2.041   8.222   1.087 -0.3103 -0.0053  0.0983
15751SOL    HW152100   2.068   8.240   0.997  0.8027 -0.0950  0.4006
15751SOL    HW252101   1.946   8.210   1.081 -0.1844 -0.6146 -1.1692
15752SOL     OW52102   1.934   2.111   8.267 -0.6343 -0.2892 -0.5702
15752SOL    HW152103   1.964   2.186   8.216  1.7015  0.2503  1.4289
15752SOL    HW252104   1.951   2.035   8.210  2.4414  0.2285 -0.4792
15753SOL     OW52105   4.823   5.172   3.263  0.1519  0.1591  0.0553
15753SOL    HW152106   4.780   5.131   3.338 -1.1038 -2.7556 -2.0857
15753SOL    HW252107   4.917   5.159   3.279 -0.0320  0.4862  1.5386
15754SOL     OW52108   5.384   8.641   7.763  0.2338 -0.4960 -0.9375
15754SOL    HW152109   5.397   8.649   7.669 -1.3237 -1.0521 -1.2195
15754SOL    HW252110   5.416   8.553   7.784  0.5183 -0.3969 -0.9400
15755SOL     OW52111   7.655   3.385   6.610 -0.1737 -0.2556  0.0234
15755SOL    HW152112   7.686   3.464   6.655 -1.4058  0.4007 -0.2230
15755SOL    HW252113   7.597   3.342   6.673  0.2727 -0.8307  0.0529
15756SOL     OW52114   7.252   0.662   4.870  0.1732 -0.0423  0.5670
15756SOL    HW152115   7.283   0.593   4.929  2.3538  1.2975  1.1187
15756SOL    HW252116   7.241   0.618   4.785 -2.3082 -1.8387  1.7000
15757SOL     OW52117   7.467   8.594   4.421  0.4316  0.3010  0.2095
15757SOL    HW152118   7.457   8.591   4.516  2.4484  2.4150  0.5910
15757SOL    HW252119   7.549   8.547   4.405 -0.9293 -1.8759 -0.7893
15758SOL     OW52120   2.422   7.909   4.256  0.2199 -0.4390 -0.2824
15758SOL    HW152121   2.344   7.940   4.209 -0.2240  0.3992  0.9507
15758SOL    HW252122   2.492   7.912   4.190 -0.6097 -0.3953 -1.1865
15759SOL     OW52123   5.478   2.852   7.901  0.2330 -0.3790 -0.6330
15759SOL    HW152124   5.406   2.805   7.859 -1.1548 -0.8987  2.1633
15759SOL    HW252125   5.555   2.798   7.883 -0.2554 -0.5485 -2.4552
15760SOL     OW52126   4.205   2.681   7.568  0.3939  0.1905 -0.1125
15760SOL    HW152127   4.161   2.597   7.552  3.4483 -1.6323  0.2066
15760SOL    HW252128   4.196   2.728   7.485 -3.3676  0.6791  0.4116
15761SOL     OW52129   2.801   1.698   8.731 -0.3434 -0.2256  0.7101
15761SOL    HW152130   2.804   1.608   8.700 -0.6244  0.7733 -2.5777
15761SOL    HW252131   2.712   1.727   8.712 -0.0856  0.9336  1.1673
15762SOL     OW52132   5.707   0.842   6.332  0.2228  0.1283  0.4389
15762SOL    HW152133   5.788   0.872   6.373  0.8561 -0.6659 -0.1903
15762SOL    HW252134   5.690   0.906   6.262  0.3645  0.2420  0.5087
15763SOL     OW52135   4.863   0.139   5.410  0.0179  0.1261 -0.5085
15763SOL    HW152136   4.771   0.134   5.387 -0.5193 -2.4719  1.6346
15763SOL    HW252137   4.868   0.209   5.475 -0.6101 -0.2579 -0.0379
15764SOL     OW52138   2.547   6.281   3.402 -0.0874 -0.0192  0.2581
15764SOL    HW152139   2.465   6.330   3.401  0.8375  1.6624 -2.6535
15764SOL    HW252140   2.520   6.189   3.402 -1.9728  0.4890 -0.3421
15765SOL     OW52141   7.679   0.021   0.033  0.7033 -0.0949 -0.1721
15765SOL    HW152142   7.665   0.089  -0.032  0.3874  0.0556  0.0465
15765SOL    HW252143   7.591  -0.012   0.053  0.8151 -0.2800  0.0256
15766SOL     OW52144   7.781   3.302   6.319  0.2278  0.1674  0.1045
15766SOL    HW152145   7.792   3.341   6.406  1.1373  0.4455 -0.1247
15766SOL    HW252146   7.869   3.304   6.281 -0.0665 -0.4315 -0.6223
15767SOL     OW52147   6.164   2.454   9.694  0.4044 -0.0921  0.3142
15767SOL    HW152148   6.071   2.469   9.711  0.5311 -0.7516  1.6920
15767SOL    HW252149   6.196   2.539   9.664 -0.5400  0.2765  0.2994
15768SOL     OW52150   8.491   7.893   8.545  0.3520  0.5811  0.2751
15768SOL    HW152151   8.565   7.886   8.484  0.6273  0.8284  0.5743
15768SOL    HW252152   8.414   7.890   8.489  0.6211  1.8796 -0.2136
15769SOL     OW52153   4.509   8.252   1.877 -0.4486  0.5211 -0.3140
15769SOL    HW152154   4.518   8.161   1.907  0.5262  0.6739 -0.0945
15769SOL    HW252155   4.560   8.255   1.796  0.9086  1.2420  0.5233
15770SOL     OW52156   7.737   3.941   1.894  0.1116  0.8874 -0.3300
15770SOL    HW152157   7.686   3.952   1.974 -0.4626  0.4027 -0.6207
15770SOL    HW252158   7.745   4.030   1.859  0.3757  1.1003  0.2638
15771SOL     OW52159   7.315   4.166   8.462  0.1657  0.1821 -0.0707
15771SOL    HW152160   7.253   4.214   8.407  0.8059 -0.5233 -1.4492
15771SOL    HW252161   7.394   4.157   8.408 -0.0700 -2.7808 -0.0876
15772SOL     OW52162   0.213   9.649   3.781  0.0309 -0.5798  0.0630
15772SOL    HW152163   0.297   9.610   3.757 -0.2931 -0.3737 -1.5605
15772SOL    HW252164   0.148   9.584   3.756 -0.4002  0.1788 -0.8573
15773SOL     OW52165   7.687   1.126   6.000 -0.1165  0.3216  0.0016
15773SOL    HW152166   7.679   1.185   6.075 -0.9202 -0.4513  0.5464
15773SOL    HW252167   7.751   1.061   6.028 -1.2391 -0.6108  0.4788
15774SOL     OW52168   5.470   7.796   8.364 -0.5341  0.2834 -0.0091
15774SOL    HW152169   5.493   7.719   8.417 -0.9068 -0.5596 -1.0346
15774SOL    HW252170   5.416   7.850   8.422  0.6869  0.3397  1.1039
15775SOL     OW52171   5.707   6.804   0.595 -0.5086 -0.2704 -0.0367
15775SOL    HW152172   5.756   6.753   0.660 -0.6329 -0.9334 -0.4555
15775SOL    HW252173   5.626   6.755   0.582 -1.0085  0.4726  0.1559
15776SOL     OW52174   2.149   8.233   7.798  0.3465  0.4202 -0.3714
15776SOL    HW152175   2.199   8.171   7.852 -2.4030 -1.0182  0.7594
15776SOL    HW252176   2.062   8.234   7.838  0.1828  5.1825 -0.2756
15777SOL     OW52177   3.419   4.225   2.549 -0.2423 -0.4273 -0.0340
15777SOL    HW152178   3.343   4.174   2.521 -0.5917 -0.0307  0.1868
15777SOL    HW252179   3.479   4.222   2.474 -0.2827 -1.1015 -0.0513
15778SOL     OW52180   5.007   5.827   1.930 -0.1493 -0.3498 -0.1129
15778SOL    HW152181   5.057   5.749   1.952 -2.0669 -1.6420 -0.1177
15778SOL    HW252182   5.071   5.887   1.892  1.4314 -1.7702  0.1961
15779SOL     OW52183   0.743   8.934   2.437  0.8193 -0.1007  0.6205
15779SOL    HW152184   0.651   8.959   2.450  0.5381 -0.6433 -0.2183
15779SOL    HW252185   0.748   8.844   2.470  0.8167 -0.3966 -0.1443
15780SOL     OW52186   6.390   9.165   9.002 -0.2209 -0.0249 -0.3977
15780SOL    HW152187   6.376   9.092   9.061  2.7059 -1.2210 -0.9958
15780SOL    HW252188   6.387   9.243   9.057  2.1919 -1.0807  1.4067
15781SOL     OW52189   3.763   8.113   6.587  0.0554  0.4157  0.0195
15781SOL    HW152190   3.679   8.104   6.633  0.4488  0.0047  0.6800
15781SOL    HW252191   3.742   8.160   6.506 -0.6428  1.3109  0.6972
15782SOL     OW52192   2.034   3.215   3.940  0.4725 -0.3650 -0.3844
15782SOL    HW152193   2.019   3.136   3.887  1.3276 -0.3924 -0.6103
15782SOL    HW252194   2.092   3.268   3.885 -1.7242  1.3850 -1.1578
15783SOL     OW52195   4.822   5.198   3.573  0.7039  0.1458 -0.3571
15783SOL    HW152196   4.816   5.290   3.549  2.5851  0.4788  0.2970
15783SOL    HW252197   4.765   5.153   3.510  1.5376  1.5054 -2.1568
15784SOL     OW52198   5.924   9.020   4.430  0.0519  0.9581 -0.6667
15784SOL    HW152199   5.867   8.952   4.465  1.8572  0.6195  1.9155
15784SOL    HW252200   5.949   8.989   4.343 -1.4030 -0.2453 -0.6919
15785SOL     OW52201   8.681   0.182   7.158  0.0012  0.5826 -0.1269
15785SOL    HW152202   8.775   0.187   7.173  0.1893 -0.7373 -0.7216
15785SOL    HW252203   8.672   0.181   7.063 -0.5274 -0.4008 -0.0763
15786SOL     OW52204   1.863   3.432   5.126 -0.2076  0.6404 -0.3653
15786SOL    HW152205   1.899   3.515   5.156 -0.2577 -0.1840  2.2377
15786SOL    HW252206   1.770   3.436   5.149 -0.1137 -0.2926  0.2385
15787SOL     OW52207   2.182   1.572   2.342 -0.2389 -0.5901 -0.2311
15787SOL    HW152208   2.171   1.653   2.393  0.5601 -1.5771  1.6076
15787SOL    HW252209   2.262   1.586   2.292  1.7593 -1.3710  2.5395
15788SOL     OW52210   4.001   6.497   7.015  0.3644 -0.0237  0.3294
15788SOL    HW152211   4.062   6.544   7.072  0.0941  0.7397  0.0079
15788SOL    HW252212   4.005   6.406   7.044  1.7966 -0.0293  0.1905
15789SOL     OW52213   1.661   8.331   7.673 -0.4542 -0.1067 -0.2848
15789SOL    HW152214   1.737   8.378   7.639 -0.4150 -0.5142 -0.7785
15789SOL    HW252215   1.680   8.239   7.655 -0.0544 -0.4345  1.6088
15790SOL     OW52216   4.533   1.170   7.424 -0.0745 -0.3284  0.1389
15790SOL    HW152217   4.589   1.220   7.365  1.5793 -2.1260  0.0836
15790SOL    HW252218   4.468   1.130   7.367 -0.0307 -0.0339 -0.1176
15791SOL     OW52219   6.889   9.731   6.431 -0.1886 -0.0437  0.2046
15791SOL    HW152220   6.866   9.823   6.448  0.7908 -0.0628  1.8781
15791SOL    HW252221   6.822   9.681   6.477  1.6489 -0.0961  3.1010
15792SOL     OW52222   1.921   7.325   9.664  0.4746 -0.0391  0.2575
15792SOL    HW152223   1.873   7.407   9.676  1.4708  0.7502 -0.8995
15792SOL    HW252224   1.910   7.278   9.747 -1.1110  0.7201  0.5086
15793SOL     OW52225   3.567   4.486   6.432  0.5110  0.1257  0.0567
15793SOL    HW152226   3.624   4.428   6.381  0.7183 -0.8749  1.3976
15793SOL    HW252227   3.622   4.517   6.504 -0.2958  0.1097  0.6862
15794SOL     OW52228   8.489   1.749   2.455 -0.2132  0.4713  0.5950
15794SOL    HW152229   8.415   1.773   2.510 -0.2882  0.6653  0.4114
15794SOL    HW252230   8.458   1.675   2.403 -0.8326  1.5704 -0.6571
15795SOL     OW52231   5.460   9.612   0.851 -0.6950 -0.1082 -0.4151
15795SOL    HW152232   5.407   9.692   0.846 -0.2850  0.1982 -0.0305
15795SOL    HW252233   5.466   9.581   0.761  0.5612  1.2486 -0.8408
15796SOL     OW52234   0.402   7.711   9.515  0.2304  0.2882 -0.1472
15796SOL    HW152235   0.321   7.707   9.565  1.8765 -1.0232  2.6544
15796SOL    HW252236   0.442   7.795   9.538 -0.2787  0.9320 -1.5164
15797SOL     OW52237   8.171   6.136   1.072 -0.3568 -0.3027  0.0362
15797SOL    HW152238   8.145   6.228   1.069  2.0910  0.4732  0.6165
15797SOL    HW252239   8.191   6.119   1.164  0.1149 -1.1303 -0.2032
15798SOL     OW52240   2.276   6.799   0.409 -0.2204  0.0544  0.4488
15798SOL    HW152241   2.278   6.835   0.497  2.3353 -0.5620  0.7016
15798SOL    HW252242   2.232   6.714   0.419  0.4173 -0.1953  1.2148
15799SOL     OW52243   8.023   7.828   1.624 -0.4836 -0.2644  0.1995
15799SOL    HW152244   8.052   7.827   1.533  0.8696  0.8152  0.6018
15799SOL    HW252245   8.103   7.831   1.676 -1.2167  2.1440  1.3626
15800SOL     OW52246   7.523   4.075   0.976  0.1239 -0.9096 -0.3060
15800SOL    HW152247   7.451   4.119   1.021  2.1750  0.7429  1.5846
15800SOL    HW252248   7.507   4.091   0.883 -1.0415  0.8977  0.1543
15801SOL     OW52249   3.005   1.545   3.064  0.2370 -0.3790 -0.3891
15801SOL    HW152250   3.095   1.561   3.034  0.3798 -2.5099 -1.2857
15801SOL    HW252251   2.952   1.555   2.985 -0.5135  1.8894  0.3307
15802SOL     OW52252   0.501   9.098   8.069  0.4660  0.4160 -0.2607
15802SOL    HW152253   0.588   9.118   8.102  0.9322 -1.3505 -0.3036
15802SOL    HW252254   0.459   9.183   8.057  1.7681  1.2497  0.8595
15803SOL     OW52255   3.031   5.745   3.603  0.1529 -0.8759  0.5069
15803SOL    HW152256   3.053   5.724   3.512 -0.3688 -1.6576  0.5507
15803SOL    HW252257   3.053   5.838   3.612 -0.8617 -0.4746 -0.7476
15804SOL     OW52258   2.247   3.153   9.412  0.2887  0.5038  0.1074
15804SOL    HW152259   2.270   3.128   9.502 -1.8736 -1.3292  0.2404
15804SOL    HW252260   2.182   3.222   9.423 -2.1209 -1.6172  0.1698
15805SOL     OW52261   6.390   6.918   8.183 -0.2547 -0.1751 -0.0610
15805SOL    HW152262   6.412   7.006   8.213 -0.9783  0.4983 -1.4100
15805SOL    HW252263   6.471   6.884   8.145  0.9643 -1.4123  3.2424
15806SOL     OW52264   8.855   0.149   3.411  0.1087 -0.3851 -0.8914
15806SOL    HW152265   8.779   0.207   3.403  0.9402  0.5265 -3.2002
15806SOL    HW252266   8.910   0.173   3.336  1.8219 -2.2546 -0.2955
15807SOL     OW52267   0.099   3.913   1.159  0.0131 -0.3463  0.0797
15807SOL    HW152268   0.183   3.887   1.121  0.0327 -1.2579  0.7139
15807SOL    HW252269   0.120   3.933   1.250 -0.3958 -0.2461  0.1507
15808SOL     OW52270   6.429   1.592   7.626  0.6101  0.1180 -0.1297
15808SOL    HW152271   6.439   1.609   7.532 -0.2070  1.8723  0.0759
15808SOL    HW252272   6.369   1.660   7.657  1.3752 -0.0319  1.7984
15809SOL     OW52273   3.520   0.367   9.032 -0.2059 -0.1189 -0.3114
15809SOL    HW152274   3.449   0.409   9.080 -0.5953  0.1533 -1.1049
15809SOL    HW252275   3.486   0.280   9.010 -0.1108 -0.1623 -0.2859
15810SOL     OW52276   9.145   9.629   7.944 -0.7178  0.0598 -0.6880
15810SOL    HW152277   9.061   9.586   7.962 -0.0517 -1.2857 -0.6799
15810SOL    HW252278   9.151   9.631   7.849 -0.2802 -0.8735 -0.6971
15811SOL     OW52279   8.272   7.865   8.397 -0.1705  0.1771 -0.3731
15811SOL    HW152280   8.207   7.933   8.413 -0.8028 -0.3432 -0.6601
15811SOL    HW252281   8.306   7.885   8.309 -0.4764  0.0331 -0.5267
15812SOL     OW52282   2.023   4.749   9.047 -0.7816  0.0578 -0.1663
15812SOL    HW152283   2.074   4.719   9.122  0.2355  0.2512 -0.7555
15812SOL    HW252284   2.027   4.845   9.052 -2.2414  0.1080  0.5276
15813SOL     OW52285   6.826   8.382   5.040  0.4520  0.1280  0.4526
15813SOL    HW152286   6.907   8.332   5.030  1.0565  1.1739  0.0231
15813SOL    HW252287   6.828   8.447   4.970 -1.2660 -0.4689 -0.2324
15814SOL     OW52288   7.159   6.101   1.585 -0.1351 -0.4936  0.2598
15814SOL    HW152289   7.130   6.122   1.496 -0.2589 -3.2644 -0.4208
15814SOL    HW252290   7.242   6.147   1.594  0.5878 -1.2564 -1.8333
15815SOL     OW52291   5.980   9.075   1.487  0.2923 -0.6662 -0.4134
15815SOL    HW152292   5.991   8.991   1.530 -0.4064  0.5553  2.3714
15815SOL    HW252293   6.058   9.085   1.432  1.9321 -1.8196  1.5796
15816SOL     OW52294   8.000   5.656   3.758 -0.2316  0.1003 -0.3069
15816SOL    HW152295   8.075   5.645   3.816 -1.9932 -2.1815  1.7296
15816SOL    HW252296   7.953   5.732   3.793  0.0298  0.2721 -0.3254
15817SOL     OW52297   4.794   0.222   5.927 -0.1491 -0.2893  0.0523
15817SOL    HW152298   4.762   0.212   5.837 -0.2115  0.7518 -0.0626
15817SOL    HW252299   4.719   0.258   5.975 -0.2556 -1.2630  0.6341
15818SOL     OW52300   7.018   3.600   4.597  0.2295  0.3070 -0.6115
15818SOL    HW152301   6.979   3.687   4.602  1.1983  0.7435 -0.3242
15818SOL    HW252302   7.003   3.562   4.683  1.5268  0.9840 -0.0453
15819SOL     OW52303   6.531   8.735   4.768 -0.1000 -0.2802  0.0161
15819SOL    HW152304   6.520   8.687   4.686  0.5043 -0.8011  0.2352
15819SOL    HW252305   6.566   8.820   4.741 -0.7461 -0.1137 -0.3339
15820SOL     OW52306   6.384   5.387   9.466  0.0326  0.4110  0.2127
15820SOL    HW152307   6.319   5.454   9.487 -0.3305 -0.4239  1.9861
15820SOL    HW252308   6.431   5.421   9.391  0.8771  3.3889  1.9352
15821SOL     OW52309   7.560   0.993   7.510 -0.0123 -0.1989  0.1357
15821SOL    HW152310   7.553   0.907   7.552  2.3203 -0.9923 -0.9312
15821SOL    HW252311   7.633   1.036   7.556  0.6451  0.0856 -1.1264
15822SOL     OW52312   9.484   5.022   2.556  0.0392 -0.4722 -0.2488
15822SOL    HW152313   9.431   5.045   2.632 -0.2058 -1.3766 -0.1311
15822SOL    HW252314   9.436   4.951   2.513  1.1576 -1.3420 -0.1197
15823SOL     OW52315   4.020   2.788   8.299 -0.1017 -0.1399  0.1763
15823SOL    HW152316   4.112   2.787   8.272  0.2810  1.5992  1.2396
15823SOL    HW252317   3.998   2.881   8.304 -0.9397 -0.3950  3.0246
15824SOL     OW52318   1.986   8.356   7.349  0.0716  0.2026 -0.2310
15824SOL    HW152319   1.994   8.348   7.254 -0.7967  0.4226 -0.3297
15824SOL    HW252320   1.957   8.270   7.378 -0.1840  0.2898 -0.2266
15825SOL     OW52321   9.686   9.246   5.514 -0.1708  0.9485 -0.2259
15825SOL    HW152322   9.691   9.220   5.422 -0.8675  3.2350 -0.9939
15825SOL    HW252323   9.775   9.236   5.546 -0.2272 -1.4320 -0.6332
15826SOL     OW52324   7.310   0.174   7.622 -0.2939  0.2683  0.1125
15826SOL    HW152325   7.293   0.084   7.650  0.4368  0.1703  0.2637
15826SOL    HW252326   7.389   0.199   7.670  1.3211 -0.0778 -2.2401
15827SOL     OW52327   0.441   3.219   1.743 -0.1309 -0.0317 -0.2290
15827SOL    HW152328   0.502   3.266   1.686 -1.3055 -0.8497 -2.2800
15827SOL    HW252329   0.490   3.143   1.774  0.5362  0.4385 -0.1082
15828SOL     OW52330   1.867   1.552   3.130 -0.3764 -0.2850 -0.1917
15828SOL    HW152331   1.874   1.639   3.092  1.2858 -1.0400 -1.7458
15828SOL    HW252332   1.790   1.514   3.089  0.4021 -0.4592 -1.5561
15829SOL     OW52333   0.754   2.492   9.413 -0.7023  0.7366 -0.8869
15829SOL    HW152334   0.776   2.551   9.341  1.0800  0.5622 -0.5273
15829SOL    HW252335   0.801   2.528   9.488 -2.3759  0.8013  0.1754
15830SOL     OW52336   3.038   3.325   8.886  0.3109  0.3048 -0.3027
15830SOL    HW152337   3.077   3.342   8.801  0.5606  0.2382 -0.2032
15830SOL    HW252338   3.102   3.268   8.931  0.7530  1.3046  0.3800
15831SOL     OW52339   2.116   5.433   5.583  0.3573 -0.0035 -0.0257
15831SOL    HW152340   2.079   5.346   5.597  0.2134  0.2852  1.5340
15831SOL    HW252341   2.051   5.493   5.620  1.4172  0.6306  0.8786
15832SOL     OW52342   7.519   8.743   5.585 -0.3690  0.2299  0.6379
15832SOL    HW152343   7.555   8.747   5.496  0.3363  1.1835  0.9484
15832SOL    HW252344   7.591   8.770   5.641  0.0548 -2.8904  1.8030
15833SOL     OW52345   2.738   5.081   3.658  0.1634 -0.2878  0.3661
15833SOL    HW152346   2.799   5.042   3.721  1.4722  0.1634 -0.5858
15833SOL    HW252347   2.671   5.123   3.712  1.2070  0.0199  1.4651
15834SOL     OW52348   8.713   5.700   1.767  0.2694 -0.2448 -0.0028
15834SOL    HW152349   8.689   5.619   1.722  1.0793 -0.6395  0.2543
15834SOL    HW252350   8.749   5.756   1.698 -0.7739  0.1171 -0.2781
15835SOL     OW52351   7.140   1.816   5.442  0.6600 -0.3280  0.2782
15835SOL    HW152352   7.118   1.898   5.486 -3.5633 -1.8519  1.4026
15835SOL    HW252353   7.129   1.835   5.349  0.9938  0.6647  0.4319
15836SOL     OW52354   8.266   4.152   7.688 -0.0330  0.0927 -0.0338
15836SOL    HW152355   8.347   4.159   7.637 -0.6254 -0.2705 -1.0571
15836SOL    HW252356   8.275   4.219   7.756  1.2285 -0.1089  0.0263
15837SOL     OW52357   6.361   7.424   1.175  0.0800 -0.4584 -0.1805
15837SOL    HW152358   6.393   7.369   1.104  1.2123 -1.6974  1.2090
15837SOL    HW252359   6.373   7.370   1.254 -2.8554  0.1109  0.7856
15838SOL     OW52360   6.334   4.522   6.615  1.1153  0.6634 -0.4277
15838SOL    HW152361   6.260   4.554   6.667 -2.0014 -2.3584 -2.5607
15838SOL    HW252362   6.322   4.562   6.528 -0.6181 -2.8461 -1.9874
15839SOL     OW52363   6.009   7.714   6.257  0.1844 -0.7166 -0.1815
15839SOL    HW152364   5.914   7.720   6.260  0.1825 -0.8106 -0.0478
15839SOL    HW252365   6.040   7.801   6.283  0.1248 -0.3544 -1.2615
15840SOL     OW52366   3.227   1.093   2.635 -0.2053  0.0646 -0.2574
15840SOL    HW152367   3.155   1.064   2.690 -1.7317  0.4165 -1.9620
15840SOL    HW252368   3.185   1.120   2.553  1.6974  1.8393 -0.7317
15841SOL     OW52369   2.945   4.330   8.954  0.8857  0.3850 -0.3083
15841SOL    HW152370   2.958   4.297   8.866  0.1866 -0.2393 -0.1840
15841SOL    HW252371   3.033   4.346   8.987  1.2172 -0.7730 -0.5930
15842SOL     OW52372   5.945   1.971   7.714  0.0945  0.1046 -0.0313
15842SOL    HW152373   5.860   1.963   7.672  0.3799  0.2926 -0.6443
15842SOL    HW252374   5.990   2.041   7.667  1.1310 -0.9314 -0.6459
15843SOL     OW52375   3.248   1.137   7.525  0.1989  0.0101 -0.3787
15843SOL    HW152376   3.187   1.183   7.584 -3.4159 -2.2416 -2.0093
15843SOL    HW252377   3.263   1.199   7.454 -1.1237  0.2494 -0.4747
15844SOL     OW52378   8.768   1.613   9.314 -0.1255  0.1831 -0.1680
15844SOL    HW152379   8.772   1.700   9.276 -2.6928 -0.2457 -1.6829
15844SOL    HW252380   8.859   1.583   9.317  0.6298  2.1730 -1.3742
15845SOL     OW52381   6.527   5.209   4.696  0.4331 -0.3122 -0.4528
15845SOL    HW152382   6.459   5.179   4.636  1.4340 -0.6046 -1.4798
15845SOL    HW252383   6.607   5.166   4.665  0.7546 -1.6005  1.9482
15846SOL     OW52384   5.748   7.444   4.462  0.7085  0.1635 -0.6363
15846SOL    HW152385   5.698   7.369   4.431  0.6052  0.2292 -0.6265
15846SOL    HW252386   5.710   7.466   4.546  0.4529  0.5007 -0.8378
15847SOL     OW52387   6.209   4.786   6.243  0.2271  0.3006 -0.2667
15847SOL    HW152388   6.135   4.774   6.184  0.1915  0.0585 -0.1748
15847SOL    HW252389   6.232   4.697   6.272 -0.1807  0.4643  0.6015
15848SOL     OW52390   2.264   0.838   2.653  0.2370 -0.5659  0.2634
15848SOL    HW152391   2.224   0.891   2.721 -3.3771  0.5298 -2.4607
15848SOL    HW252392   2.205   0.763   2.642  1.0204 -1.0122 -1.2493
15849SOL     OW52393   6.911   8.322   9.672  0.8187  0.2544  0.1896
15849SOL    HW152394   6.908   8.234   9.710 -1.0824 -0.4660 -1.4384
15849SOL    HW252395   6.939   8.379   9.744 -0.2748 -1.3498  1.9663
15850SOL     OW52396   9.619   4.393   6.393  0.4944  0.0810 -0.4301
15850SOL    HW152397   9.687   4.437   6.444  0.6707 -0.8049  0.1052
15850SOL    HW252398   9.576   4.464   6.345  1.5597  0.6951 -0.5052
15851SOL     OW52399   3.099   4.609   7.631 -0.3910 -0.6069  0.5465
15851SOL    HW152400   3.145   4.553   7.694 -1.0209 -0.2302  1.3656
15851SOL    HW252401   3.115   4.568   7.546  0.9395 -0.8168  0.8833
15852SOL     OW52402   1.854   7.401   6.324  0.0215  0.1933  0.5639
15852SOL    HW152403   1.852   7.319   6.373 -1.1666  1.2883  2.4323
15852SOL    HW252404   1.910   7.459   6.375 -0.2609  0.9991 -0.0080
15853SOL     OW52405   1.979   7.649   1.790  0.4313  0.1541  0.2067
15853SOL    HW152406   1.960   7.589   1.862  0.2090 -0.8595 -0.6645
15853SOL    HW252407   1.898   7.699   1.778  0.6747  0.7748  1.0498
15854SOL     OW52408   5.912   3.510   0.213  0.3552 -0.1450 -0.3035
15854SOL    HW152409   6.006   3.497   0.216  0.3175 -0.3212  0.5335
15854SOL    HW252410   5.878   3.455   0.284 -0.4034 -0.3119 -0.7876
15855SOL     OW52411   5.926   4.877   0.252 -0.2226  0.0538 -0.2560
15855SOL    HW152412   5.835   4.851   0.245 -0.0484 -0.7618  0.4297
15855SOL    HW252413   5.938   4.941   0.181 -1.4848  0.6674  0.0515
15856SOL     OW52414   4.852   3.101   7.143 -0.4088  0.1873 -0.0892
15856SOL    HW152415   4.762   3.101   7.110 -0.3409  1.4544 -0.3081
15856SOL    HW252416   4.895   3.172   7.096  0.9646 -0.9582 -0.6471
15857SOL     OW52417   6.113   4.131   5.885  0.5473 -0.0225 -0.6888
15857SOL    HW152418   6.079   4.087   5.807 -0.5776  0.7928 -0.6886
15857SOL    HW252419   6.070   4.217   5.884  0.9059  0.1839  0.5586
15858SOL     OW52420   6.195   5.010   2.182  0.3834  0.5940  0.3527
15858SOL    HW152421   6.108   4.992   2.218 -0.0780  1.5746 -0.2408
15858SOL    HW252422   6.226   5.085   2.233 -0.3702  2.1439 -1.3691
15859SOL     OW52423   3.231   6.022   8.447 -0.1988 -0.3114 -0.3442
15859SOL    HW152424   3.308   5.967   8.438 -0.9714 -1.8198  1.4712
15859SOL    HW252425   3.258   6.092   8.507 -0.3464 -1.1291  0.7043
15860SOL     OW52426   1.270   3.160   2.177 -0.3990  0.9712  0.1587
15860SOL    HW152427   1.200   3.098   2.197 -0.2487  0.3667 -1.1229
15860SOL    HW252428   1.228   3.246   2.180 -0.6058  0.8427  1.9469
15861SOL     OW52429   4.308   4.252   2.005  0.4558  0.9338 -0.7242
15861SOL    HW152430   4.388   4.215   1.968  0.5278  0.4608 -0.1034
15861SOL    HW252431   4.237   4.206   1.960  0.5252  1.2471 -1.1650
15862SOL     OW52432   1.306   8.073   8.453  0.1679  0.4103 -0.4660
15862SOL    HW152433   1.401   8.063   8.454  0.2413  1.0707 -0.1198
15862SOL    HW252434   1.273   7.999   8.503  0.4961  0.1370 -0.6523
15863SOL     OW52435   6.915   1.801   7.443 -0.3396  0.1699 -0.1323
15863SOL    HW152436   6.941   1.822   7.353  2.1563  0.8994  0.6756
15863SOL    HW252437   6.975   1.851   7.498 -2.1721  0.2086  1.9890
15864SOL     OW52438   2.400   5.724   4.428  0.2770  0.4968 -0.3275
15864SOL    HW152439   2.362   5.678   4.353  0.4782  1.1492 -0.8329
15864SOL    HW252440   2.492   5.735   4.404  0.5416 -0.0490  0.3914
15865SOL     OW52441   6.379   3.695   6.397  0.1744  0.2721  0.2174
15865SOL    HW152442   6.332   3.622   6.359  0.1673  0.1349  0.4857
15865SOL    HW252443   6.448   3.655   6.450  0.3577  0.4644  0.1279
15866SOL     OW52444   7.905   5.793   8.044 -0.0293 -0.1390  0.5397
15866SOL    HW152445   7.838   5.860   8.026  0.7257  0.6193  0.4633
15866SOL    HW252446   7.889   5.725   7.979 -1.6586 -0.6960  1.4551
15867SOL     OW52447   7.954   8.668   3.271  0.0243 -0.0313  0.5316
15867SOL    HW152448   7.962   8.756   3.235  0.3219  0.6371  2.1438
15867SOL    HW252449   7.986   8.611   3.201 -3.1949  0.7790 -1.8335
15868SOL     OW52450   5.995   9.582   0.857 -0.0866  0.0063 -0.5563
15868SOL    HW152451   5.918   9.528   0.874 -0.6309  0.6701 -0.8621
15868SOL    HW252452   6.058   9.521   0.816 -0.3903 -0.5654 -0.1915
15869SOL     OW52453   7.837   9.023   2.092  0.0890 -0.5067 -0.8070
15869SOL    HW152454   7.899   8.962   2.132 -0.9509 -1.6005 -0.7851
15869SOL    HW252455   7.788   9.059   2.166  1.8874  1.8270 -0.6304
15870SOL     OW52456   5.088   5.776   4.199  0.1362 -0.0190 -0.1500
15870SOL    HW152457   5.003   5.758   4.239 -0.3409 -1.6964 -1.7633
15870SOL    HW252458   5.101   5.704   4.137  2.5483  0.4250 -0.2613
15871SOL     OW52459   3.717   9.129   9.126  0.1286 -0.0533 -0.9358
15871SOL    HW152460   3.634   9.100   9.088  0.1325 -1.8921  0.2939
15871SOL    HW252461   3.705   9.120   9.221  1.9152 -0.9845 -0.7474
15872SOL     OW52462   7.930   7.255   1.877 -0.3514 -0.1935 -0.1194
15872SOL    HW152463   7.953   7.180   1.932  0.2376 -0.6379 -0.9485
15872SOL    HW252464   7.836   7.244   1.861 -0.7255  0.4261  1.4939
15873SOL     OW52465   9.140   0.532   3.712  0.1448 -0.4075  0.1632
15873SOL    HW152466   9.133   0.544   3.807 -1.0070  0.3508  0.0039
15873SOL    HW252467   9.050   0.540   3.680  0.6905  0.8851 -1.1532
15874SOL     OW52468   4.165   3.024   8.432 -0.0389  0.1072 -0.0583
15874SOL    HW152469   4.249   3.068   8.442  0.6439 -1.2808  0.6339
15874SOL    HW252470   4.130   3.056   8.348  1.9676 -0.5462 -1.1989
15875SOL     OW52471   1.854   9.670   1.071 -0.3084 -0.6106 -0.2878
15875SOL    HW152472   1.766   9.706   1.064  0.1035  0.1823 -1.9713
15875SOL    HW252473   1.885   9.698   1.157 -1.9290 -1.5464  0.6590
15876SOL     OW52474   8.483   8.510   0.522  0.5736 -0.6189 -0.0254
15876SOL    HW152475   8.498   8.585   0.464  1.9704 -0.6811  0.2431
15876SOL    HW252476   8.459   8.549   0.606  1.4431 -0.4662  0.1542
15877SOL     OW52477   6.410   2.755   3.705 -0.1017 -0.1343  0.0662
15877SOL    HW152478   6.430   2.818   3.636  0.2771 -0.2114  0.1057
15877SOL    HW252479   6.493   2.741   3.749 -0.3320 -0.1197  0.5118
15878SOL     OW52480   0.736   3.920   7.686  0.0129  0.3594 -0.1914
15878SOL    HW152481   0.732   3.902   7.780  2.2976  0.0217 -0.1115
15878SOL    HW252482   0.681   3.998   7.674  1.4589  1.7712  1.8152
15879SOL     OW52483   9.687   8.897   7.774  0.5200  0.2967 -0.3419
15879SOL    HW152484   9.627   8.914   7.846 -0.1276 -4.3638  0.5674
15879SOL    HW252485   9.632   8.899   7.696 -0.2419 -0.8966  0.1306
15880SOL     OW52486   6.378   8.440   7.675 -0.4221  0.1002 -0.0768
15880SOL    HW152487   6.357   8.429   7.768 -0.4077 -0.9128 -0.1813
15880SOL    HW252488   6.321   8.511   7.646 -0.3663  0.4921  0.7226
15881SOL     OW52489   9.274   1.751   7.990  0.4060  0.0114 -0.3138
15881SOL    HW152490   9.178   1.752   7.983  0.2043  1.0034  1.7069
15881SOL    HW252491   9.299   1.662   7.966 -1.1563 -0.6264  0.2752
15882SOL     OW52492   8.088   1.361   7.512  0.2511 -0.3372  0.4163
15882SOL    HW152493   8.113   1.314   7.592  3.8697  0.7895  0.1415
15882SOL    HW252494   8.122   1.307   7.441 -0.7628 -0.1386 -0.2257
15883SOL     OW52495   7.307   6.526   4.023 -0.3302 -0.0925  0.4451
15883SOL    HW152496   7.256   6.502   4.101  0.5385 -0.5736  0.8747
15883SOL    HW252497   7.249   6.503   3.950 -0.8597 -0.3407  0.9293
15884SOL     OW52498   0.625   0.943   0.852  0.2020  0.3043 -0.0699
15884SOL    HW152499   0.659   0.997   0.923 -0.5982  0.0132  0.5453
15884SOL    HW252500   0.545   0.987   0.824  0.0520 -0.0459 -0.2043
15885SOL     OW52501   3.238   7.494   1.978 -0.1881 -0.2152 -0.6207
15885SOL    HW152502   3.209   7.470   1.890 -0.2832  2.3435 -1.3551
15885SOL    HW252503   3.158   7.510   2.027 -0.1089 -0.2798 -0.4672
15886SOL     OW52504   4.158   7.111   9.556 -0.0815  0.0654  0.6767
15886SOL    HW152505   4.075   7.097   9.511  0.4197 -1.5599  0.1825
15886SOL    HW252506   4.135   7.163   9.633 -1.3134  0.8917 -0.2203
15887SOL     OW52507   6.388   9.068   3.217 -0.2762  0.1826 -0.2438
15887SOL    HW152508   6.394   8.973   3.202 -0.7606  0.2105 -0.6376
15887SOL    HW252509   6.450   9.106   3.155 -0.7838  0.1797 -0.7543
15888SOL     OW52510   3.826   4.195   8.659 -0.2648  0.0507 -0.2244
15888SOL    HW152511   3.751   4.183   8.716  0.7370  1.3716  1.4760
15888SOL    HW252512   3.788   4.209   8.572 -1.7798 -4.0947 -0.4542
15889SOL     OW52513   0.288   0.343   6.962 -0.1110 -0.4411 -0.1598
15889SOL    HW152514   0.357   0.398   6.998  1.1361 -2.1546  0.2211
15889SOL    HW252515   0.212   0.362   7.016  0.9321 -0.8007  1.5135
15890SOL     OW52516   4.302   6.237   9.345  0.6315  0.3713 -0.5484
15890SOL    HW152517   4.206   6.246   9.341  0.8075  2.3004 -2.9955
15890SOL    HW252518   4.318   6.144   9.333 -0.9228 -0.1462  0.9254
15891SOL     OW52519   6.484   9.313   0.815  0.5437 -0.1511  0.5389
15891SOL    HW152520   6.519   9.225   0.798  1.9551  0.7056 -1.5266
15891SOL    HW252521   6.400   9.315   0.769  0.0900 -0.6581  1.3201
15892SOL     OW52522   8.589   8.761   4.666  0.2105  0.0152 -0.5600
15892SOL    HW152523   8.510   8.736   4.616 -0.2483 -0.2473  0.2723
15892SOL    HW252524   8.631   8.828   4.613 -1.4138  1.2992 -0.2861
15893SOL     OW52525   0.145   3.045   5.843 -0.0265  0.2152 -0.7084
15893SOL    HW152526   0.219   3.097   5.813 -0.7892  1.4065 -0.6224
15893SOL    HW252527   0.151   3.048   5.939  1.8052 -2.6971 -0.6167
15894SOL     OW52528   4.258   6.691   7.850 -0.5019 -0.3752 -0.4063
15894SOL    HW152529   4.338   6.639   7.862  1.2802  2.2482 -0.1748
15894SOL    HW252530   4.204   6.669   7.926 -1.3806 -4.2417 -1.8749
15895SOL     OW52531   3.205   9.360   5.059  0.2259 -0.2181  0.5198
15895SOL    HW152532   3.196   9.454   5.045 -0.9352 -0.3976 -0.1004
15895SOL    HW252533   3.151   9.342   5.136 -1.1008 -0.6285 -0.4670
15896SOL     OW52534   0.780   6.029   3.168  0.0215  0.6509 -0.4190
15896SOL    HW152535   0.817   6.101   3.219 -1.0325  0.7678  0.1982
15896SOL    HW252536   0.831   5.953   3.195 -0.2742  0.7765  0.5333
15897SOL     OW52537   2.303   9.320   8.525 -0.2286  0.4006  0.2493
15897SOL    HW152538   2.398   9.313   8.535 -0.4954 -0.9823  2.3122
15897SOL    HW252539   2.281   9.253   8.460  0.2162  0.9042 -0.4328
15898SOL     OW52540   6.278   5.690   6.741  0.0629 -0.7379  0.8779
15898SOL    HW152541   6.252   5.611   6.693  1.7220 -0.3378 -0.7896
15898SOL    HW252542   6.325   5.656   6.818  2.7484 -1.4736 -0.9591
15899SOL     OW52543   4.252   2.334   5.027 -0.2984  0.4479  0.2921
15899SOL    HW152544   4.255   2.382   5.111 -2.9856  1.3992 -0.0345
15899SOL    HW252545   4.224   2.400   4.963  0.9309 -0.4485 -1.2238
15900SOL     OW52546   5.264   8.806   4.897 -0.4279 -0.4116 -0.5102
15900SOL    HW152547   5.292   8.897   4.910 -1.3758 -0.0440 -0.9626
15900SOL    HW252548   5.217   8.807   4.814 -0.0379 -1.4171 -0.7456
15901SOL     OW52549   2.077   0.340   0.122  0.4461  0.5617 -0.3435
15901SOL    HW152550   2.011   0.292   0.173 -3.1455  1.8972 -3.2132
15901SOL    HW252551   2.075   0.428   0.158  1.2608  0.4263  0.0378
15902SOL     OW52552   1.113   0.810   8.362 -0.1710  0.9181  0.2930
15902SOL    HW152553   1.036   0.841   8.409 -0.6467  0.6395 -0.2925
15902SOL    HW252554   1.161   0.758   8.427 -2.1648 -1.7049 -0.1873
15903SOL     OW52555   8.153   0.207   0.666 -0.3441  0.3966  0.1074
15903SOL    HW152556   8.117   0.252   0.743 -3.0286  0.1183 -0.8689
15903SOL    HW252557   8.201   0.275   0.618 -1.5996  1.4577  0.3048
15904SOL     OW52558   1.414   3.454   2.896 -0.3438 -0.4807  0.7071
15904SOL    HW152559   1.455   3.392   2.836 -2.0293  0.0108 -1.0415
15904SOL    HW252560   1.378   3.399   2.966  0.1238 -1.2440  0.3587
15905SOL     OW52561   1.202   8.045   9.342 -0.1348  0.5455  0.0456
15905SOL    HW152562   1.204   7.964   9.290  0.2314  0.4766  0.1672
15905SOL    HW252563   1.120   8.087   9.317 -0.2812  0.1825 -0.0902
15906SOL     OW52564   4.268   8.673   4.334 -0.1226  0.4002 -0.2579
15906SOL    HW152565   4.210   8.608   4.295  0.3708  0.3838 -0.9921
15906SOL    HW252566   4.243   8.756   4.293 -1.8270  1.0147  1.8227
15907SOL     OW52567   5.677   5.916   3.550  0.2399 -0.6464  0.0117
15907SOL    HW152568   5.702   5.824   3.559 -1.4296 -1.2233 -0.6782
15907SOL    HW252569   5.583   5.912   3.530 -0.1295  1.2689  1.1687
15908SOL     OW52570   9.579   5.151   0.450 -0.8958 -0.5514 -0.2196
15908SOL    HW152571   9.650   5.146   0.386 -1.1371  0.0505 -0.5427
15908SOL    HW252572   9.578   5.065   0.492  0.3640 -0.4021  0.1613
15909SOL     OW52573   5.106   1.084   2.923 -0.2460 -0.0378 -0.2202
15909SOL    HW152574   5.014   1.102   2.943 -0.9435 -0.9324 -2.3025
15909SOL    HW252575   5.137   1.031   2.996 -0.8669  1.6251  1.3246
15910SOL     OW52576   3.099   9.223   1.333  0.0082 -0.1913  0.3937
15910SOL    HW152577   3.182   9.240   1.377  0.5552  1.2686 -1.0954
15910SOL    HW252578   3.032   9.250   1.396  0.7373  0.8728  0.7309
15911SOL     OW52579   5.228   5.663   0.133 -0.0524 -0.0495 -0.1180
15911SOL    HW152580   5.232   5.744   0.184  0.6658 -0.2260  0.1297
15911SOL    HW252581   5.194   5.598   0.194 -0.4144  0.0120 -0.2508
15912SOL     OW52582   0.775   9.240   8.802 -0.6629 -0.2268 -0.3390
15912SOL    HW152583   0.857   9.285   8.823 -1.1636  0.8078 -0.4981
15912SOL    HW252584   0.778   9.158   8.850 -0.0437  0.3237  0.5758
15913SOL     OW52585   7.843   2.188   2.538 -0.0064 -0.3634 -0.4460
15913SOL    HW152586   7.878   2.136   2.465  3.4619 -0.0188  0.7512
15913SOL    HW252587   7.908   2.258   2.550 -1.0872  0.3227  2.1911
15914SOL     OW52588   6.971   7.875   3.913  0.7080 -0.4847  0.3972
15914SOL    HW152589   6.917   7.856   3.989  1.7050 -1.1291  0.9581
15914SOL    HW252590   6.931   7.825   3.842  0.3914 -0.7086  0.7322
15915SOL     OW52591   7.719   2.997   0.589  0.2716  0.3134 -0.1471
15915SOL    HW152592   7.733   3.054   0.665  0.0348 -0.6287  0.6253
15915SOL    HW252593   7.745   2.910   0.619  0.2483 -0.0606 -1.1782
15916SOL     OW52594   3.313   3.141   6.950 -0.4199  0.0771  0.0250
15916SOL    HW152595   3.349   3.210   6.893  1.7222 -0.5345  0.5382
15916SOL    HW252596   3.236   3.109   6.903  1.5562 -0.7835 -2.8910
15917SOL     OW52597   4.319   2.917   7.410 -0.0047  0.2396 -0.2831
15917SOL    HW152598   4.340   3.005   7.378  1.1774 -0.1996 -0.7791
15917SOL    HW252599   4.391   2.896   7.470 -0.4367 -0.2799  0.0677
15918SOL     OW52600   9.526   1.751   9.239  0.1541 -0.0208  0.1088
15918SOL    HW152601   9.539   1.717   9.327 -2.1781 -3.0012 -0.5320
15918SOL    HW252602   9.476   1.682   9.194  1.3870  1.2833 -3.6073
15919SOL     OW52603   8.340   1.918   8.254  0.4178  0.0032 -0.4119
15919SOL    HW152604   8.298   2.001   8.277 -0.1619  0.1575 -1.9138
15919SOL    HW252605   8.434   1.935   8.262  0.2883  0.6635 -0.2879
15920SOL     OW52606   5.908   0.987   4.629 -0.2533 -0.5645 -0.4998
15920SOL    HW152607   5.869   0.945   4.706  3.0492 -0.7902  1.2459
15920SOL    HW252608   5.947   1.068   4.663  0.9100 -0.4478 -2.0148
15921SOL     OW52609   4.553   7.667   6.130 -0.0061 -0.5671 -0.2287
15921SOL    HW152610   4.531   7.760   6.121 -0.2274 -0.5136  0.7298
15921SOL    HW252611   4.632   7.666   6.185 -0.6646 -0.9832  0.7311
15922SOL     OW52612   6.171   1.787   7.475  0.1136  0.3204 -0.1257
15922SOL    HW152613   6.232   1.837   7.529  0.6089  0.6518 -0.9768
15922SOL    HW252614   6.086   1.799   7.517  0.3824  1.1091  0.2017
15923SOL     OW52615   1.494   8.865   7.304  0.1330  0.1594  0.4396
15923SOL    HW152616   1.584   8.883   7.331  0.2710  1.8152 -0.9364
15923SOL    HW252617   1.440   8.910   7.370  0.3752  0.8958  0.1488
15924SOL     OW52618   1.322   1.293   4.542 -0.3488 -0.2812  0.4878
15924SOL    HW152619   1.380   1.346   4.597 -1.0408 -0.2005  1.1702
15924SOL    HW252620   1.248   1.351   4.523 -0.2813 -0.4298 -0.2397
15925SOL     OW52621   4.016   0.445   1.706 -0.0068 -0.3422  0.1461
15925SOL    HW152622   4.022   0.420   1.798 -1.4786  0.1457  0.3905
15925SOL    HW252623   3.936   0.497   1.699 -0.2222 -0.8094 -1.5111
15926SOL     OW52624   8.455   2.486   3.767  0.0902  0.2523 -0.2839
15926SOL    HW152625   8.471   2.579   3.786 -1.6487  0.4904  0.1358
15926SOL    HW252626   8.406   2.454   3.842  1.0146 -1.1271 -0.2446
15927SOL     OW52627   1.141   0.216   4.767  0.2522 -0.0092 -0.4602
15927SOL    HW152628   1.050   0.247   4.766  0.3552  0.3221 -0.1534
15927SOL    HW252629   1.164   0.213   4.860  1.3339  2.3118 -0.5624
15928SOL     OW52630   3.430   9.397   6.953  0.1785 -0.7886  0.0067
15928SOL    HW152631   3.434   9.323   6.891 -2.9343 -1.3963  0.3606
15928SOL    HW252632   3.437   9.475   6.897 -2.1174 -1.3330 -1.1847
15929SOL     OW52633   3.882   3.530   8.122  0.1147  0.4225  0.4701
15929SOL    HW152634   3.819   3.601   8.131  0.7142  1.4907 -2.4915
15929SOL    HW252635   3.833   3.460   8.080  0.4663  0.6554 -0.3579
15930SOL     OW52636   1.595   5.972   0.663 -0.1850  0.4315  0.0094
15930SOL    HW152637   1.509   5.930   0.662 -0.3152  0.6927 -1.1540
15930SOL    HW252638   1.580   6.057   0.704  0.1767 -0.7659  2.8508
15931SOL     OW52639   0.649   2.283   2.891  0.5452 -0.1219 -0.1559
15931SOL    HW152640   0.676   2.364   2.846 -2.5712  0.9843 -0.3020
15931SOL    HW252641   0.638   2.309   2.982 -2.0346  0.1404 -0.4831
15932SOL     OW52642   1.722   4.235   4.923  0.3285 -0.1512 -0.0320
15932SOL    HW152643   1.780   4.165   4.893  0.9894  0.0122  0.8311
15932SOL    HW252644   1.644   4.190   4.956 -0.3008 -0.3481 -1.6903
15933SOL     OW52645   0.608   6.514   4.205 -0.3954  0.2964  0.7030
15933SOL    HW152646   0.692   6.473   4.225 -0.4190 -0.4075 -0.5157
15933SOL    HW252647   0.566   6.453   4.144 -2.4070 -0.0735  2.3470
15934SOL     OW52648   7.628   8.482   7.676  0.2601  0.2557 -0.1308
15934SOL    HW152649   7.607   8.392   7.651 -4.3856  1.0926 -0.2706
15934SOL    HW252650   7.652   8.477   7.768 -3.1786 -0.9875  0.8446
15935SOL     OW52651   4.029   0.668   6.264  0.0261  0.4913 -0.0085
15935SOL    HW152652   4.109   0.710   6.234  0.2550  1.3847  1.7349
15935SOL    HW252653   4.045   0.649   6.356  0.0171 -3.6764 -0.6870
15936SOL     OW52654   1.229   0.521   3.073  0.2767  0.1994 -0.0374
15936SOL    HW152655   1.183   0.604   3.062 -1.2425 -0.0989  3.0638
15936SOL    HW252656   1.161   0.458   3.096  1.6165 -1.5820 -0.6635
15937SOL     OW52657   5.527   5.059   4.538 -0.2759  0.4051 -0.0549
15937SOL    HW152658   5.455   5.104   4.493  2.3936  3.0386 -2.0790
15937SOL    HW252659   5.561   4.997   4.473 -0.8671 -1.1188  1.0286
15938SOL     OW52660   3.643   2.393   3.003  0.2737  0.5705 -0.0052
15938SOL    HW152661   3.620   2.470   3.055 -0.7023  0.1277  0.2470
15938SOL    HW252662   3.705   2.345   3.058  2.3297  2.0272 -0.8964
15939SOL     OW52663   7.007   0.763   4.836  0.3752 -0.1427  0.1500
15939SOL    HW152664   6.995   0.857   4.845  1.0746  0.0971 -1.1104
15939SOL    HW252665   7.090   0.745   4.880  0.8934  0.0680 -0.7059
15940SOL     OW52666   7.261   7.658   3.940  0.2117 -0.2489 -0.0646
15940SOL    HW152667   7.199   7.675   3.869  0.9240  1.3842 -0.3494
15940SOL    HW252668   7.241   7.569   3.969 -1.2903 -0.2846 -1.0994
15941SOL     OW52669   8.999   1.132   2.052 -0.1303  0.5605 -0.2041
15941SOL    HW152670   8.907   1.120   2.030 -0.1307 -1.8549  0.7943
15941SOL    HW252671   9.041   1.050   2.026  1.3069  0.7298  1.3879
15942SOL     OW52672   0.744   7.526   7.343  0.2001 -0.6735  0.3921
15942SOL    HW152673   0.710   7.437   7.333  1.5519 -1.1102 -0.6042
15942SOL    HW252674   0.666   7.579   7.362 -0.6508 -2.0323  0.8478
15943SOL     OW52675   2.751   0.792   5.649 -0.3536  0.1977 -0.6474
15943SOL    HW152676   2.795   0.835   5.576  0.4467 -1.0678 -0.9536
15943SOL    HW252677   2.713   0.863   5.700  1.8273  1.3539 -0.5163
15944SOL     OW52678   0.296   4.325   2.854  0.0870  0.3390 -0.2730
15944SOL    HW152679   0.227   4.372   2.900  0.3526  0.0836  0.4068
15944SOL    HW252680   0.369   4.321   2.917  0.4389 -0.0669 -0.6921
15945SOL     OW52681   6.752   8.514   8.637  0.3633  0.1998 -0.2592
15945SOL    HW152682   6.705   8.440   8.674  1.6392 -0.5423 -0.0399
15945SOL    HW252683   6.825   8.528   8.697  0.9726  0.6671 -1.0857
15946SOL     OW52684   6.940   0.097   8.057 -0.2445  0.0977 -0.2084
15946SOL    HW152685   6.924   0.039   8.132  0.3999  1.5456  1.0771
15946SOL    HW252686   7.033   0.116   8.060 -0.7731  3.0721  0.8619
15947SOL     OW52687   3.984   6.583   2.609 -0.2330 -0.3479 -0.9520
15947SOL    HW152688   3.966   6.616   2.520  2.9294 -0.3525 -1.7124
15947SOL    HW252689   4.072   6.615   2.629 -0.2063 -1.7351  1.5420
15948SOL     OW52690   5.438   1.525   3.868 -0.0788 -0.6975  0.2740
15948SOL    HW152691   5.473   1.439   3.892  3.1383  0.2898 -0.3414
15948SOL    HW252692   5.509   1.566   3.819 -1.7454  2.0934  0.0208
15949SOL     OW52693   3.022   9.115   0.558  0.2398  0.2991  0.8318
15949SOL    HW152694   3.104   9.078   0.525  0.2655  0.6424  0.5110
15949SOL    HW252695   2.955   9.085   0.496  0.3479  1.2854  0.2094
15950SOL     OW52696   9.375   6.349   9.597  0.5308  0.0182 -0.0688
15950SOL    HW152697   9.304   6.318   9.541  0.2476 -0.3971  0.5066
15950SOL    HW252698   9.451   6.298   9.570  0.2127 -0.7427  0.4449
15951SOL     OW52699   1.872   5.681   6.462  0.4253 -0.1906 -0.0174
15951SOL    HW152700   1.963   5.666   6.435 -0.0300 -1.7468 -0.7991
15951SOL    HW252701   1.845   5.599   6.502 -0.5153  0.4130  0.6306
15952SOL     OW52702   1.579   3.232   4.060 -0.8533  0.0853  0.9151
15952SOL    HW152703   1.632   3.301   4.018  0.1830 -0.9542  0.4607
15952SOL    HW252704   1.602   3.152   4.012 -1.8943 -0.6140  1.5553
15953SOL     OW52705   6.372   2.451   3.946 -0.5941  0.0407 -0.4318
15953SOL    HW152706   6.327   2.472   3.864  0.1228  0.5973 -0.6951
15953SOL    HW252707   6.364   2.530   3.999  0.0947  0.1686 -0.5026
15954SOL     OW52708   9.374   6.067   4.807  0.4173  0.7783 -0.2344
15954SOL    HW152709   9.411   6.107   4.728 -0.8850  2.0144 -0.2554
15954SOL    HW252710   9.305   6.010   4.775  2.1500 -1.4701 -0.1879
15955SOL     OW52711   9.021   0.310   9.602 -0.2855  0.0620  0.1872
15955SOL    HW152712   9.025   0.225   9.646  2.4219  0.7352  1.5347
15955SOL    HW252713   8.989   0.370   9.670  0.6568  0.5504  0.2263
15956SOL     OW52714   0.724   8.679   2.545 -0.1590  0.1903  0.3295
15956SOL    HW152715   0.783   8.648   2.615 -0.1774 -0.5153  0.0377
15956SOL    HW252716   0.674   8.602   2.520 -0.8214  0.6622  0.1827
15957SOL     OW52717   4.080   5.963   2.911  0.7047  0.1969 -0.4783
15957SOL    HW152718   4.155   5.979   2.853  1.4843  0.6456  0.6070
15957SOL    HW252719   4.084   6.034   2.975  0.5056 -0.8602  0.7490
15958SOL     OW52720   6.518   1.519   4.119 -0.1959  0.2743 -0.2587
15958SOL    HW152721   6.500   1.603   4.076 -1.5941  0.4616  0.6275
15958SOL    HW252722   6.543   1.460   4.047 -0.5760  1.0761 -1.0709
15959SOL     OW52723   8.642   2.705   2.423 -1.1462 -0.4236 -0.2631
15959SOL    HW152724   8.640   2.656   2.340  1.5469 -0.1338 -0.5677
15959SOL    HW252725   8.613   2.793   2.399 -0.4579 -0.3614 -0.9053
15960SOL     OW52726   0.820   2.706   8.273  0.1200  0.5022 -0.2018
15960SOL    HW152727   0.751   2.741   8.330  0.2247 -0.3661  0.4768
15960SOL    HW252728   0.823   2.613   8.294  2.5709  0.7571  0.9310
15961SOL     OW52729   8.719   8.328   3.339 -0.1765 -0.5613  0.1939
15961SOL    HW152730   8.789   8.317   3.276  1.1678 -0.8026  1.6657
15961SOL    HW252731   8.722   8.249   3.393 -0.2244  0.3241  1.5516
15962SOL     OW52732   8.399   7.797   6.142 -0.2609 -0.3581  0.2480
15962SOL    HW152733   8.479   7.748   6.163 -0.7062 -0.4215  1.9359
15962SOL    HW252734   8.390   7.787   6.047  1.5659 -0.5906  0.0501
15963SOL     OW52735   0.847   7.863   3.453 -0.8586 -0.0447 -0.0494
15963SOL    HW152736   0.884   7.774   3.454 -1.3007 -0.2288  0.1607
15963SOL    HW252737   0.773   7.858   3.392  0.5809  0.7975 -1.9824
15964SOL     OW52738   2.035   8.577   6.517  0.5390 -0.6290  0.6024
15964SOL    HW152739   2.125   8.583   6.484  0.5253  0.1962  0.6859
15964SOL    HW252740   1.991   8.518   6.457  1.0032 -0.6094  0.2374
15965SOL     OW52741   6.161   3.861   0.630  0.2946 -1.0203  0.5809
15965SOL    HW152742   6.123   3.773   0.636 -0.1621 -1.0118 -1.5257
15965SOL    HW252743   6.091   3.915   0.592  1.2922 -0.2457 -0.2148
15966SOL     OW52744   1.132   5.509   0.710  0.3658  0.4382 -0.2814
15966SOL    HW152745   1.166   5.597   0.725 -0.1248  0.7422 -0.9016
15966SOL    HW252746   1.210   5.456   0.690  1.0127  0.1000  2.7387
15967SOL     OW52747   6.984   4.752   7.241 -0.0833  0.1326  0.1007
15967SOL    HW152748   6.919   4.821   7.253  1.1578  1.4320 -0.4791
15967SOL    HW252749   7.068   4.795   7.254  0.9202 -0.4874 -3.3239
15968SOL     OW52750   2.556   4.743   8.856  0.5310  0.1770 -0.0426
15968SOL    HW152751   2.461   4.738   8.849  0.4919 -1.4883  1.0152
15968SOL    HW252752   2.572   4.811   8.922 -0.0044 -0.4863  0.7895
15969SOL     OW52753   2.996   0.221   5.573  0.5332 -0.3787  0.0975
15969SOL    HW152754   2.965   0.220   5.664 -0.8528 -0.4531 -0.3474
15969SOL    HW252755   3.067   0.284   5.573  0.3951 -0.1903  1.1906
15970SOL     OW52756   9.738   2.867   9.669  0.3116  0.0503  0.4735
15970SOL    HW152757   9.824   2.825   9.675  0.6201  0.5187 -0.4520
15970SOL    HW252758   9.693   2.819   9.599  0.0070  0.1360  0.6088
15971SOL     OW52759   4.923   8.491   6.613 -0.6371 -0.2139  0.0127
15971SOL    HW152760   4.860   8.520   6.679  0.7051  1.0659  0.7979
15971SOL    HW252761   4.970   8.418   6.656  0.3719  0.7477  0.6093
15972SOL     OW52762   1.781   5.498   8.775 -0.4292  0.2053  0.1224
15972SOL    HW152763   1.744   5.413   8.751  1.7951 -0.9076  0.3671
15972SOL    HW252764   1.791   5.545   8.692  0.4314 -0.7120 -0.3217
15973SOL     OW52765   9.307   8.811   6.592  0.3230  0.8384 -0.1130
15973SOL    HW152766   9.221   8.838   6.624  0.7844  1.4635  0.6306
15973SOL    HW252767   9.355   8.784   6.670  1.0733  1.2643 -0.4175
15974SOL     OW52768   6.378   9.063   4.761  0.8233  0.1124 -0.4199
15974SOL    HW152769   6.322   8.995   4.724  1.2424  0.6280 -2.0942
15974SOL    HW252770   6.464   9.046   4.723  0.7550  2.0615 -1.5470
15975SOL     OW52771   0.962   1.074   2.387 -0.2554 -0.1239  0.2744
15975SOL    HW152772   1.043   1.040   2.351 -0.8262 -2.0730  0.7098
15975SOL    HW252773   0.920   1.119   2.314  0.9244  0.3941 -0.1013
15976SOL     OW52774   5.519   1.712   1.133  0.4728  0.2037  0.3326
15976SOL    HW152775   5.522   1.716   1.229 -1.1133 -1.5111  0.5057
15976SOL    HW252776   5.609   1.690   1.108  0.6334 -0.7017  1.5594
15977SOL     OW52777   8.107   3.282   9.291  0.1360  0.0571  0.2945
15977SOL    HW152778   8.143   3.289   9.202  1.2248 -0.8529  0.6384
15977SOL    HW252779   8.148   3.354   9.339  0.0497  0.1478  0.2344
15978SOL     OW52780   7.987   3.037   0.356  0.3746 -0.4113  0.8512
15978SOL    HW152781   7.993   3.024   0.451  1.6442  1.5818  1.1011
15978SOL    HW252782   8.078   3.044   0.327  0.0815 -2.6667 -0.8276
15979SOL     OW52783   7.471   2.653   9.672 -0.5947 -0.1470  0.1242
15979SOL    HW152784   7.454   2.581   9.611  3.6342  0.6767 -2.4180
15979SOL    HW252785   7.492   2.610   9.755  0.0466 -1.8054 -0.8472
15980SOL     OW52786   6.451   6.793   3.544  0.4012 -0.5622 -0.5793
15980SOL    HW152787   6.527   6.813   3.599  2.2970 -0.6411 -3.0060
15980SOL    HW252788   6.401   6.874   3.541  1.9311  0.3916 -1.1822
15981SOL     OW52789   0.152   2.671   2.721 -0.4451 -0.2541  0.4050
15981SOL    HW152790   0.096   2.666   2.799 -1.4198 -0.5985 -0.2929
15981SOL    HW252791   0.105   2.621   2.655 -0.1772  0.9483 -0.7320
15982SOL     OW52792   5.802   2.396   9.722  0.4052 -0.4436 -0.0366
15982SOL    HW152793   5.827   2.362   9.808  0.3503 -0.3383  0.0211
15982SOL    HW252794   5.741   2.332   9.687  0.4785 -0.5197 -0.0245
15983SOL     OW52795   7.109   5.831   1.058 -0.3705 -0.3393 -0.0093
15983SOL    HW152796   7.057   5.786   1.124 -1.0388  0.8078  0.2776
15983SOL    HW252797   7.067   5.809   0.975 -1.2812  0.4812  0.2099
15984SOL     OW52798   2.544   9.478   0.551  0.0434 -0.1731  0.4503
15984SOL    HW152799   2.609   9.547   0.543 -1.0317  0.6920 -1.5941
15984SOL    HW252800   2.581   9.404   0.504  0.1846 -0.2089  0.6158
15985SOL     OW52801   3.638   7.455   3.183 -0.1709  0.7470  0.4820
15985SOL    HW152802   3.633   7.549   3.166 -1.1749  0.3678 -1.6022
15985SOL    HW252803   3.554   7.421   3.153  1.2177 -1.1613 -1.5242
15986SOL     OW52804   5.280   6.328   6.056  0.1004 -0.1796  0.1611
15986SOL    HW152805   5.338   6.295   5.988  1.8612 -0.4588  1.7119
15986SOL    HW252806   5.336   6.381   6.112 -1.1087 -0.5505  1.8114
15987SOL     OW52807   9.545   6.963   7.023 -0.3826 -0.7329  0.2352
15987SOL    HW152808   9.471   6.945   7.081 -2.1041  0.2105 -1.5565
15987SOL    HW252809   9.534   6.901   6.951  1.1885 -1.2578  0.4172
15988SOL     OW52810   4.645   6.887   2.363 -0.2121 -0.4595 -0.2745
15988SOL    HW152811   4.700   6.815   2.331 -0.4875 -1.1335  0.7216
15988SOL    HW252812   4.707   6.949   2.401 -0.0384 -0.5867 -0.3466
15989SOL     OW52813   2.659   7.517   2.628 -0.3828 -0.1056  0.4175
15989SOL    HW152814   2.577   7.513   2.677 -0.2760  1.2075  0.7454
15989SOL    HW252815   2.726   7.491   2.691 -0.4530 -0.2374  0.4358
15990SOL     OW52816   2.564   5.821   1.419  0.8242  0.4019  0.0196
15990SOL    HW152817   2.532   5.734   1.396  0.1752  1.1515 -2.1132
15990SOL    HW252818   2.657   5.819   1.397  0.9205  0.1156  0.4357
15991SOL     OW52819   8.794   0.257   6.586  0.3716 -0.3871  0.3251
15991SOL    HW152820   8.771   0.190   6.521  2.6772 -2.0122  1.0367
15991SOL    HW252821   8.879   0.230   6.619  0.6450  2.0479  1.8887
15992SOL     OW52822   4.431   5.146   4.926  0.0525  0.7092 -0.1859
15992SOL    HW152823   4.488   5.129   4.850  0.9325 -1.2707  0.8252
15992SOL    HW252824   4.375   5.069   4.931  1.3689 -0.2124  2.2708
15993SOL     OW52825   9.632   8.109   5.726 -0.5837  0.5758 -0.1213
15993SOL    HW152826   9.589   8.193   5.710 -1.1934 -0.0784 -2.1883
15993SOL    HW252827   9.720   8.120   5.688 -0.3721  0.5305  0.3480
15994SOL     OW52828   5.775   8.981   1.308 -0.0456 -0.3212  0.1337
15994SOL    HW152829   5.826   9.027   1.374 -0.3674  0.5222 -0.1883
15994SOL    HW252830   5.796   9.026   1.226 -1.5900  0.3136  0.0525
15995SOL     OW52831   7.930   4.832   4.733  0.4329 -0.8537 -0.4556
15995SOL    HW152832   7.935   4.865   4.823  3.6101  0.4410 -0.9859
15995SOL    HW252833   7.849   4.870   4.699 -0.0610 -0.1331  1.3718
15996SOL     OW52834   9.527   2.070   3.931 -0.0266 -0.3593 -0.1329
15996SOL    HW152835   9.565   1.983   3.928 -0.4727 -0.6999  2.1079
15996SOL    HW252836   9.433   2.056   3.926 -0.0512  0.2567 -2.6272
15997SOL     OW52837   1.194   5.117   8.067 -0.2952  0.0639 -0.4023
15997SOL    HW152838   1.157   5.037   8.029  0.0560 -0.0733 -0.4636
15997SOL    HW252839   1.146   5.129   8.149 -0.2836 -0.2681 -0.3444
15998SOL     OW52840   0.628   7.660   6.405  0.3031  0.7735 -0.4588
15998SOL    HW152841   0.661   7.729   6.463 -1.0131  0.0830  1.1969
15998SOL    HW252842   0.674   7.581   6.433  0.8389  0.7178 -1.4646
15999SOL     OW52843   8.921   8.162   2.819  0.1248  0.1406 -0.5670
15999SOL    HW152844   8.964   8.248   2.823 -1.1712  0.8025 -0.1765
15999SOL    HW252845   8.968   8.109   2.884 -0.1664  1.1037  0.4681
16000SOL     OW52846   5.844   8.068   7.098  0.1553  0.0501 -0.0627
16000SOL    HW152847   5.791   7.993   7.121  1.4777 -0.4384  1.6039
16000SOL    HW252848   5.934   8.034   7.095  1.0517  1.8664  2.6677
16001SOL     OW52849   6.483   2.921   5.908 -0.2309  0.4436 -0.6525
16001SOL    HW152850   6.513   2.830   5.919  1.3847  1.0074 -0.1486
16001SOL    HW252851   6.491   2.938   5.815  0.7433  0.4653 -0.5770
16002SOL     OW52852   3.372   2.199   5.578 -0.2447  0.0271 -0.0696
16002SOL    HW152853   3.302   2.134   5.584 -0.4245  0.3069  0.9906
16002SOL    HW252854   3.393   2.202   5.485  0.1366 -1.9375 -0.0967
16003SOL     OW52855   0.189   0.340   2.712  0.0307 -0.2038 -1.2006
16003SOL    HW152856   0.233   0.410   2.663  0.1246  1.2228  0.8235
16003SOL    HW252857   0.096   0.355   2.697  0.0329  0.6931 -0.3399
16004SOL     OW52858   4.472   1.524   2.634  0.5809 -0.0528  0.3350
16004SOL    HW152859   4.429   1.577   2.701  1.3306 -0.8436  1.4876
16004SOL    HW252860   4.516   1.455   2.683  2.5017  0.2627 -0.8251
16005SOL     OW52861   9.206   7.840   5.477  0.1892  0.4684  0.2422
16005SOL    HW152862   9.221   7.932   5.498 -1.4535  0.7028  0.4708
16005SOL    HW252863   9.274   7.793   5.527 -0.4726  1.3859  2.1086
16006SOL     OW52864   7.219   2.746   0.267  0.7420 -0.0419 -0.2670
16006SOL    HW152865   7.205   2.788   0.182  0.5374 -2.0405 -1.2755
16006SOL    HW252866   7.131   2.728   0.300  0.8202  0.7718  0.4023
16007SOL     OW52867   3.903   8.901   2.803  0.1430 -0.4923  0.1447
16007SOL    HW152868   3.852   8.940   2.732 -0.8374  1.5269  1.8306
16007SOL    HW252869   3.977   8.859   2.760 -0.1927  1.0018 -2.0189
16008SOL     OW52870   5.468   5.093   6.773  0.1316  0.1223  0.4335
16008SOL    HW152871   5.533   5.117   6.838  0.7361 -2.3550  0.8530
16008SOL    HW252872   5.514   5.104   6.689  0.8543 -0.7999  0.6834
16009SOL     OW52873   0.497   4.192   3.330  0.3937 -0.0778  0.0016
16009SOL    HW152874   0.492   4.244   3.410  1.2207 -0.5033  0.3343
16009SOL    HW252875   0.590   4.193   3.306  0.1680  0.0222 -0.9448
16010SOL     OW52876   1.731   2.276   3.746 -0.0785  0.3110  0.0461
16010SOL    HW152877   1.750   2.257   3.838  0.1175  1.7526  0.3191
16010SOL    HW252878   1.805   2.236   3.698 -1.1007 -2.0639  0.2976
16011SOL     OW52879   2.227   5.142   3.967  0.0882  0.7793 -0.3134
16011SOL    HW152880   2.168   5.076   3.931 -1.1251  2.0911 -0.7924
16011SOL    HW252881   2.263   5.101   4.046  0.0547 -0.7797 -1.0711
16012SOL     OW52882   7.171   8.971   8.654 -0.8499 -0.0162  0.2553
16012SOL    HW152883   7.100   9.036   8.651 -1.6670 -0.8715  0.3752
16012SOL    HW252884   7.134   8.894   8.612  0.2568 -0.2742 -0.2659
16013SOL     OW52885   9.518   9.187   3.196 -0.7976 -0.2585  0.3576
16013SOL    HW152886   9.606   9.223   3.210 -0.6383 -0.3541 -0.3455
16013SOL    HW252887   9.496   9.213   3.106 -2.5235  1.9462  1.3162
16014SOL     OW52888   4.190   6.631   4.352  0.5129 -0.5227 -0.3366
16014SOL    HW152889   4.245   6.579   4.411  0.6257 -1.5323 -1.2919
16014SOL    HW252890   4.110   6.579   4.343 -0.8942  1.1669  1.4582
16015SOL     OW52891   2.599   9.174   2.918 -0.0063  0.3283  0.0836
16015SOL    HW152892   2.594   9.085   2.954 -0.3452  0.6924  0.9399
16015SOL    HW252893   2.531   9.177   2.851  0.9398 -0.5035 -0.9644
16016SOL     OW52894   4.506   5.920   2.947 -0.0209 -0.1874 -0.1490
16016SOL    HW152895   4.445   5.890   2.879  0.3507  0.6476 -0.8651
16016SOL    HW252896   4.455   5.919   3.028 -0.6949 -0.4513 -0.5739
16017SOL     OW52897   0.437   1.120   7.789 -0.0966  0.3118 -0.2243
16017SOL    HW152898   0.526   1.086   7.798  0.0851  0.7617 -0.2766
16017SOL    HW252899   0.442   1.180   7.714 -0.9962 -1.4454 -1.7751
16018SOL     OW52900   4.866   4.673   2.129 -0.0197  0.0001 -0.5659
16018SOL    HW152901   4.802   4.602   2.131  1.0354 -1.0317 -1.7981
16018SOL    HW252902   4.948   4.632   2.159  0.7825  0.4858 -2.0283
16019SOL     OW52903   4.963   7.925   8.064 -0.1070  0.3952 -0.1275
16019SOL    HW152904   5.018   8.004   8.063  0.8448 -0.2097  1.3407
16019SOL    HW252905   4.890   7.948   8.121  0.3081  0.1401  0.5155
16020SOL     OW52906   4.715   2.782   2.797 -0.1716 -0.7263  0.0847
16020SOL    HW152907   4.650   2.718   2.769  0.2989 -0.1522 -2.5639
16020SOL    HW252908   4.780   2.783   2.727  0.9787  1.0766  1.0953
16021SOL     OW52909   2.741   5.596   7.591  0.0697  0.0617 -0.6058
16021SOL    HW152910   2.697   5.678   7.611  1.1461  0.8715 -1.4735
16021SOL    HW252911   2.773   5.606   7.501 -0.3531 -1.5633 -0.9652
16022SOL     OW52912   4.316   1.493   6.481 -0.2395  0.0453 -0.2642
16022SOL    HW152913   4.404   1.461   6.462 -0.2245  0.4783 -0.9512
16022SOL    HW252914   4.301   1.563   6.417 -0.7511  0.5561  0.3952
16023SOL     OW52915   8.006   5.956   0.409  0.1614  0.0965 -0.4769
16023SOL    HW152916   7.977   5.894   0.342  1.1241  0.0809 -0.8941
16023SOL    HW252917   7.930   5.967   0.466 -0.6486  0.0362 -1.5186
16024SOL     OW52918   1.463   1.151   7.492  0.2621  0.2414 -0.2417
16024SOL    HW152919   1.422   1.154   7.579  2.4357  0.0807  0.8466
16024SOL    HW252920   1.410   1.088   7.443 -0.2068 -0.7333  1.4248
16025SOL     OW52921   2.087   0.197   2.883 -0.1793  0.1627 -0.8462
16025SOL    HW152922   2.135   0.244   2.814  0.2595 -0.9844 -1.3539
16025SOL    HW252923   2.141   0.209   2.961 -0.7859  1.6477 -0.6266
16026SOL     OW52924   0.106   3.577   2.775 -0.1343 -0.7691  0.4791
16026SOL    HW152925   0.152   3.497   2.748  0.6473 -0.3119  0.4319
16026SOL    HW252926   0.175   3.635   2.807 -0.9079 -0.8930  2.5075
16027SOL     OW52927   0.311   5.231   4.259  0.4363  0.4133  0.2995
16027SOL    HW152928   0.347   5.264   4.341 -0.2088  2.2367 -0.0835
16027SOL    HW252929   0.242   5.295   4.237  0.0983 -0.4501 -1.2664
16028SOL     OW52930   5.245   5.086   2.318  0.3359  0.2484  0.3617
16028SOL    HW152931   5.164   5.115   2.274  0.9398 -0.1078 -1.0368
16028SOL    HW252932   5.296   5.045   2.249  1.9997  1.0219  1.0881
16029SOL     OW52933   2.040   6.683   0.193 -0.2160 -0.0495  0.1011
16029SOL    HW152934   2.027   6.715   0.283 -0.3431 -1.2804  0.5426
16029SOL    HW252935   1.958   6.702   0.149  0.0240  1.0162  0.0971
16030SOL     OW52936   8.655   1.500   6.007 -0.7593  0.1404 -0.4066
16030SOL    HW152937   8.684   1.584   5.972 -2.0090  0.3133 -1.0713
16030SOL    HW252938   8.614   1.455   5.933  0.2449 -1.2487 -0.1708
16031SOL     OW52939   1.380   0.974   5.536 -0.3848  0.0158  0.1870
16031SOL    HW152940   1.437   0.952   5.463  0.2058  2.3724 -0.1471
16031SOL    HW252941   1.433   0.959   5.614 -0.3365 -0.5836  0.0472
16032SOL     OW52942   6.587   3.274   8.842 -0.6748  0.6047 -0.1130
16032SOL    HW152943   6.624   3.208   8.784 -0.9821  0.3396 -0.0088
16032SOL    HW252944   6.585   3.233   8.928  1.1195  1.4928  0.4034
16033SOL     OW52945   3.909   1.922   0.110 -0.0526 -0.0503 -0.3752
16033SOL    HW152946   3.946   2.011   0.120  0.2519 -0.0480 -1.4121
16033SOL    HW252947   3.853   1.928   0.033  1.3783 -1.1795 -1.5674
16034SOL     OW52948   6.184   0.345   0.219  0.0949 -0.2684 -0.2887
16034SOL    HW152949   6.242   0.382   0.153  0.1295 -1.0239 -0.7032
16034SOL    HW252950   6.223   0.370   0.303 -0.5169  1.5793 -0.5226
16035SOL     OW52951   7.958   2.518   5.551 -0.7125 -0.0213  0.1041
16035SOL    HW152952   8.015   2.587   5.584  0.5487 -1.5322  1.2146
16035SOL    HW252953   7.993   2.498   5.465 -0.8795  0.4569 -0.0840
16036SOL     OW52954   5.075   4.533   2.220 -0.4575  0.3581 -0.0960
16036SOL    HW152955   5.000   4.478   2.243  0.5845 -1.7894 -1.5267
16036SOL    HW252956   5.141   4.513   2.286  0.0268 -0.3587 -0.7848
16037SOL     OW52957   6.507   9.160   5.389  0.2648  0.2845  0.4754
16037SOL    HW152958   6.515   9.134   5.481 -0.7703  0.0383  0.5060
16037SOL    HW252959   6.455   9.241   5.391 -2.6375 -1.4345 -0.0644
16038SOL     OW52960   8.740   8.053   8.532 -0.6417 -0.2095  0.1444
16038SOL    HW152961   8.696   8.101   8.602 -1.6462 -0.0436 -0.5774
16038SOL    HW252962   8.752   8.119   8.463  0.3888 -0.3545  0.1670
16039SOL     OW52963   0.773   2.876   1.314 -0.5218  0.4028 -0.2246
16039SOL    HW152964   0.828   2.831   1.378 -0.6529  1.3926  0.6173
16039SOL    HW252965   0.778   2.822   1.235  0.3659 -0.3676  0.3395
16040SOL     OW52966   7.244   6.197   2.877  0.0322  0.8281  0.3340
16040SOL    HW152967   7.227   6.268   2.938  0.3679  0.8740  0.3752
16040SOL    HW252968   7.209   6.119   2.921 -0.9843  1.0698 -0.0222
16041SOL     OW52969   7.253   4.982   8.579  0.1886  0.0332  0.1479
16041SOL    HW152970   7.207   4.925   8.640  0.4385 -1.1955 -0.7739
16041SOL    HW252971   7.335   4.935   8.560  0.4212  0.7252 -0.5982
16042SOL     OW52972   0.007   6.195   2.809 -0.0351 -0.8751 -0.0987
16042SOL    HW152973  -0.018   6.268   2.752  2.5180  0.1562 -0.0334
16042SOL    HW252974  -0.006   6.229   2.898  0.0006 -0.9410 -0.0685
16043SOL     OW52975   7.164   5.560   6.677 -0.3794 -0.1638  0.4694
16043SOL    HW152976   7.104   5.535   6.607  0.7533  0.7763 -0.8943
16043SOL    HW252977   7.145   5.652   6.694 -0.4479 -0.3089  1.2004
16044SOL     OW52978   0.962   0.968   6.692 -0.1643 -0.3111  0.2443
16044SOL    HW152979   0.967   0.887   6.742 -1.0889  0.9661  2.5457
16044SOL    HW252980   0.878   1.007   6.716  1.5989  2.9041  1.8907
16045SOL     OW52981   9.443   7.887   7.306 -0.3447 -0.0844 -0.2604
16045SOL    HW152982   9.477   7.902   7.218 -0.7765  0.0821 -0.3996
16045SOL    HW252983   9.475   7.800   7.330  0.5557  0.2560 -0.2063
16046SOL     OW52984   3.643   1.773   4.886  0.0994 -0.1239  0.1257
16046SOL    HW152985   3.676   1.684   4.872  0.5501  0.0518  0.0419
16046SOL    HW252986   3.554   1.771   4.851  0.1917 -0.4799 -0.0990
16047SOL     OW52987   4.091   6.529   4.733 -0.3879  0.6725 -0.1546
16047SOL    HW152988   4.158   6.462   4.748 -0.7495 -0.0813 -1.7210
16047SOL    HW252989   4.012   6.494   4.774 -0.2921  0.6767  0.0335
16048SOL     OW52990   9.470   7.068   4.276 -0.1023  0.3398 -0.5196
16048SOL    HW152991   9.559   7.065   4.240  0.0261  0.6341 -0.2286
16048SOL    HW252992   9.448   7.161   4.277  0.1020  0.3783  0.6912
16049SOL     OW52993   2.768   5.409   3.214  0.0802  0.0303 -0.1614
16049SOL    HW152994   2.848   5.430   3.166 -0.6017  2.5957 -0.3114
16049SOL    HW252995   2.697   5.438   3.157 -0.8914 -0.4442  0.7739
16050SOL     OW52996   0.637   7.189   0.403  0.2436 -0.0270 -0.1700
16050SOL    HW152997   0.692   7.264   0.382  0.5593 -0.1083  0.3492
16050SOL    HW252998   0.591   7.169   0.322  0.0661  0.8062 -0.2771
16051SOL     OW52999   9.442   8.744   9.720  0.1907  0.4799  0.7989
16051SOL    HW153000   9.525   8.708   9.750 -0.5975 -2.4948 -0.3258
16051SOL    HW253001   9.380   8.722   9.790 -0.3510 -0.6690 -0.0130
16052SOL     OW53002   2.349   3.961   2.215 -0.2183  0.3801 -0.1251
16052SOL    HW153003   2.432   3.931   2.252  0.5388 -0.1550 -2.0856
16052SOL    HW253004   2.282   3.928   2.274  0.9781  2.4128  2.5812
16053SOL     OW53005   3.201   2.379   3.636  0.1904  1.0398  0.5918
16053SOL    HW153006   3.190   2.474   3.637  0.8684  1.1235  1.4725
16053SOL    HW253007   3.139   2.348   3.570 -1.5728  1.9170  1.7668
16054SOL     OW53008   7.227   4.497   4.580 -0.1563  0.0329  0.3896
16054SOL    HW153009   7.233   4.591   4.597 -0.4025  0.3136 -0.9565
16054SOL    HW253010   7.304   4.478   4.527  0.2212 -0.6653  1.1656
16055SOL     OW53011   1.206   2.775   4.561 -0.1634  0.3094  0.0831
16055SOL    HW153012   1.157   2.812   4.634 -2.1336 -2.3787  0.3134
16055SOL    HW253013   1.147   2.783   4.486 -0.6455 -2.0295  0.1271
16056SOL     OW53014   6.683   2.337   8.954  0.1652  0.4138  0.1665
16056SOL    HW153015   6.634   2.338   8.872  0.2630 -1.0096  0.0665
16056SOL    HW253016   6.723   2.424   8.960  1.3990  0.0721 -2.0738
16057SOL     OW53017   5.390   6.904   5.778  0.0285  0.0154 -0.3541
16057SOL    HW153018   5.398   6.831   5.717  2.1734 -1.4607  1.5385
16057SOL    HW253019   5.465   6.960   5.758 -2.0709  2.4029 -2.4116
16058SOL     OW53020   7.234   3.583   8.980  0.1714 -0.5179  0.2789
16058SOL    HW153021   7.178   3.643   9.030 -1.1576 -0.6699 -0.9598
16058SOL    HW253022   7.323   3.613   8.997 -0.4229  1.4852  0.1240
16059SOL     OW53023   8.948   3.346   5.634  0.4515 -0.2713 -0.1640
16059SOL    HW153024   8.907   3.366   5.719  1.6260 -3.3334  1.2989
16059SOL    HW253025   8.881   3.296   5.587  0.8367 -1.2858  0.3237
16060SOL     OW53026   0.693   0.792   2.015 -0.1850  0.6543 -0.4509
16060SOL    HW153027   0.745   0.873   2.014 -0.8997  1.1164 -0.7441
16060SOL    HW253028   0.620   0.811   2.074  1.3691 -0.9090  2.1942
16061SOL     OW53029   8.201   0.549   7.116  0.4976 -0.1156 -0.2494
16061SOL    HW153030   8.192   0.625   7.058  0.2283  0.0551  0.0148
16061SOL    HW253031   8.182   0.583   7.204  1.0020 -0.3514 -0.0460
16062SOL     OW53032   3.792   7.319   6.290  0.5662 -0.4885 -0.2770
16062SOL    HW153033   3.881   7.353   6.298  1.0137 -1.8990  1.1160
16062SOL    HW253034   3.741   7.370   6.353 -0.1008  1.6858 -2.4514
16063SOL     OW53035   1.927   0.456   6.889  0.3800  0.0570 -0.3304
16063SOL    HW153036   1.888   0.369   6.878  3.0427 -1.3023  0.2619
16063SOL    HW253037   1.857   0.508   6.931 -1.0051 -2.0142  0.0953
16064SOL     OW53038   3.183   3.331   7.110 -0.7855  0.0475 -0.0970
16064SOL    HW153039   3.227   3.413   7.083  1.9589 -0.6449  1.8429
16064SOL    HW253040   3.234   3.262   7.067  0.9635 -0.8486  3.0771
16065SOL     OW53041   5.472   0.492   6.954 -0.0852  0.4161 -0.2174
16065SOL    HW153042   5.444   0.489   6.863 -1.8664  3.1910  0.1577
16065SOL    HW253043   5.393   0.474   7.005  0.1073  2.1316  0.7771
16066SOL     OW53044   7.539   7.639   1.422  0.1390 -0.2651  0.0241
16066SOL    HW153045   7.535   7.587   1.503  0.0072 -0.4089 -0.0733
16066SOL    HW253046   7.450   7.637   1.389 -0.0081  0.5706  0.3554
16067SOL     OW53047   1.280   1.670   9.640 -0.9018 -0.0650  0.2989
16067SOL    HW153048   1.262   1.687   9.548 -3.1147  2.9866  1.1378
16067SOL    HW253049   1.202   1.626   9.672  0.1257 -1.7107  0.6471
16068SOL     OW53050   0.381   6.652   3.945 -0.0304 -0.2271 -0.0280
16068SOL    HW153051   0.449   6.690   4.000 -1.6661  1.0534  1.2068
16068SOL    HW253052   0.372   6.562   3.976 -1.7807  0.8122  2.7844
16069SOL     OW53053   5.996   2.307   5.305  0.0108  0.1324 -0.1262
16069SOL    HW153054   6.000   2.269   5.217 -1.0958 -0.2815 -0.0214
16069SOL    HW253055   5.915   2.271   5.343 -0.2736  1.4054  0.5372
16070SOL     OW53056   1.669   8.363   3.936 -0.3175  0.3737 -0.4226
16070SOL    HW153057   1.657   8.293   4.000 -0.2118  0.9900  0.2788
16070SOL    HW253058   1.580   8.390   3.913 -0.3799 -0.5632 -1.3469
16071SOL     OW53059   6.085   7.147   7.583  0.0985  0.4262 -0.2099
16071SOL    HW153060   6.177   7.158   7.557  0.3931 -1.3903 -0.0520
16071SOL    HW253061   6.089   7.129   7.676 -0.1821 -2.0172 -0.6180
16072SOL     OW53062   0.126   2.454   8.475  0.2490  0.1602 -0.1520
16072SOL    HW153063   0.052   2.428   8.529  0.3849  1.5967  0.7748
16072SOL    HW253064   0.116   2.404   8.394 -2.2495  1.0157 -0.4473
16073SOL     OW53065   8.567   0.861   9.112  0.0159  0.2983  0.0812
16073SOL    HW153066   8.578   0.838   9.020 -0.0467 -1.2798  0.4404
16073SOL    HW253067   8.473   0.869   9.124  0.0656  1.4310 -0.1830
16074SOL     OW53068   3.631   9.742   2.848  0.6078  0.4045  0.0976
16074SOL    HW153069   3.655   9.806   2.781 -0.0531  0.8180  0.2407
16074SOL    HW253070   3.667   9.778   2.929  1.9498 -0.4093 -0.1153
16075SOL     OW53071   6.977   6.028   6.573 -0.2774  0.1292  0.6018
16075SOL    HW153072   6.887   6.049   6.548 -0.7486 -2.0338  0.3160
16075SOL    HW253073   6.980   6.046   6.667 -1.0600  0.0612  0.6475
16076SOL     OW53074   7.494   4.225   9.753  0.3566 -0.3599 -1.3940
16076SOL    HW153075   7.559   4.250   9.687 -0.3782 -1.9445 -2.7772
16076SOL    HW253076   7.411   4.226   9.705 -0.1956 -1.5227 -0.4879
16077SOL     OW53077   2.167   5.932   4.496 -0.7428  0.6153  0.4576
16077SOL    HW153078   2.186   5.961   4.585 -2.1875 -0.1153  1.0286
16077SOL    HW253079   2.251   5.901   4.462 -0.1470  1.0780  1.4877
16078SOL     OW53080   5.631   0.844   6.630 -0.1196 -0.4157  0.0738
16078SOL    HW153081   5.640   0.755   6.662 -1.8777  0.0701  2.1728
16078SOL    HW253082   5.650   0.838   6.536 -2.9470 -3.5626 -0.4818
16079SOL     OW53083   8.649   3.534   8.638  0.0878 -0.5161  0.8066
16079SOL    HW153084   8.658   3.628   8.621  0.9672 -0.1897  2.8245
16079SOL    HW253085   8.730   3.509   8.682 -0.3721 -2.1045  0.8231
16080SOL     OW53086   2.225   8.567   4.861 -0.6185 -0.2395  0.1156
16080SOL    HW153087   2.155   8.597   4.919  0.6721 -0.8370  2.0775
16080SOL    HW253088   2.235   8.637   4.796 -1.8502  0.6354  0.8453
16081SOL     OW53089   3.664   0.839   3.133  0.4030 -0.3701  0.0806
16081SOL    HW153090   3.636   0.930   3.141 -0.0359 -0.4970  0.0166
16081SOL    HW253091   3.722   0.838   3.056  1.4407  0.0929  0.8419
16082SOL     OW53092   8.704   1.802   3.113 -0.5232  0.3131 -0.5010
16082SOL    HW153093   8.620   1.847   3.125 -1.1935 -0.7295 -1.1345
16082SOL    HW253094   8.720   1.760   3.198  0.5732  2.4405  0.4068
16083SOL     OW53095   9.657   6.368   5.942 -0.1009  0.1578 -0.6979
16083SOL    HW153096   9.576   6.419   5.935  0.4230  1.0778 -0.2723
16083SOL    HW253097   9.714   6.423   5.996  0.5354 -0.8248 -0.3513
16084SOL     OW53098   0.603   8.458   7.071 -0.3237  0.3606 -0.5202
16084SOL    HW153099   0.667   8.451   7.000 -1.2071  0.6890 -1.3713
16084SOL    HW253100   0.607   8.374   7.115  0.7305  0.3957 -0.5236
16085SOL     OW53101   8.403   2.526   1.675  0.3264  0.1540 -0.0086
16085SOL    HW153102   8.343   2.553   1.745  1.2083  0.4543  0.6486
16085SOL    HW253103   8.347   2.480   1.612 -0.3318 -1.1155  1.4231
16086SOL     OW53104   7.284   9.082   5.966 -0.2033 -0.0806  0.3423
16086SOL    HW153105   7.323   9.000   5.937  1.5945  0.4164  1.1830
16086SOL    HW253106   7.286   9.076   6.062  0.0479  0.9675  0.4097
16087SOL     OW53107   2.481   4.653   2.739  0.0484  0.0398  0.9816
16087SOL    HW153108   2.410   4.592   2.718  1.2194 -0.7820 -0.7648
16087SOL    HW253109   2.517   4.619   2.821 -1.4297  0.3796  1.8207
16088SOL     OW53110   2.182   5.715   1.200 -0.0990 -0.0571 -0.2949
16088SOL    HW153111   2.112   5.713   1.135  0.0306 -1.2502 -0.4356
16088SOL    HW253112   2.215   5.625   1.201 -0.0940 -0.0640  1.4176
16089SOL     OW53113   4.105   4.378   2.617  0.5891  0.4205 -0.3319
16089SOL    HW153114   4.146   4.291   2.617 -2.0015 -0.9488 -2.6841
16089SOL    HW253115   4.022   4.366   2.662  0.9426  2.1805  0.8906
16090SOL     OW53116   8.668   9.712   7.345 -0.1835  0.7529  0.4700
16090SOL    HW153117   8.662   9.757   7.261  0.6502  1.3728  0.7292
16090SOL    HW253118   8.749   9.661   7.339 -0.5844  0.0956  0.5672
16091SOL     OW53119   3.012   3.972   0.963  0.2972  0.2391 -0.4065
16091SOL    HW153120   2.953   4.008   0.897  2.9182  2.4683 -1.7091
16091SOL    HW253121   3.028   3.882   0.935  1.2371  1.0786 -2.8530
16092SOL     OW53122   8.186   9.230   7.054  0.3618 -0.3698  0.1729
16092SOL    HW153123   8.096   9.216   7.083 -0.4377  1.6309 -1.1094
16092SOL    HW253124   8.239   9.219   7.133 -1.1674 -0.2367  1.2552
16093SOL     OW53125   3.473   6.124   1.442  0.4714  0.1723 -0.4860
16093SOL    HW153126   3.445   6.192   1.380 -0.3179 -0.4697 -0.8574
16093SOL    HW253127   3.455   6.042   1.397  0.0898 -0.3034  0.5124
16094SOL     OW53128   6.644   8.164   3.692  0.7907  0.5959  0.2887
16094SOL    HW153129   6.557   8.182   3.655  0.6577 -0.2406  0.1769
16094SOL    HW253130   6.653   8.069   3.686  1.7310  0.6791  0.2730
16095SOL     OW53131   5.955   6.686   0.653  0.4453 -0.6289 -0.4486
16095SOL    HW153132   5.951   6.679   0.558  0.7603 -0.2151 -0.4945
16095SOL    HW253133   6.040   6.648   0.676  0.0564 -1.4015 -0.2645
16096SOL     OW53134   8.561   0.705   3.180  0.3853  0.1068  0.5695
16096SOL    HW153135   8.566   0.795   3.148 -0.7736 -0.1282 -0.3386
16096SOL    HW253136   8.537   0.713   3.272  2.5992  0.7696  1.1358
16097SOL     OW53137   5.448   0.613   8.353  0.5040  0.4760 -0.0360
16097SOL    HW153138   5.381   0.557   8.313  1.2839  0.0771 -0.8205
16097SOL    HW253139   5.400   0.689   8.384 -0.5828 -0.5813  0.9988
16098SOL     OW53140   4.494   4.517   5.373 -0.7295 -0.4844  0.6480
16098SOL    HW153141   4.443   4.447   5.413 -0.1452 -0.3810  1.6092
16098SOL    HW253142   4.537   4.560   5.447 -0.3966  0.3410 -0.0112
16099SOL     OW53143   1.111   3.387   1.663 -0.1213  0.1956  0.1361
16099SOL    HW153144   1.125   3.334   1.585 -1.4843 -2.6810  1.6564
16099SOL    HW253145   1.021   3.419   1.654 -0.5394 -0.7424  0.7833
16100SOL     OW53146   0.642   5.702   5.512  0.1669 -0.1420 -0.7104
16100SOL    HW153147   0.632   5.786   5.468 -1.3720  0.1358  0.0998
16100SOL    HW253148   0.591   5.710   5.592 -0.7424 -2.1294 -1.0207
16101SOL     OW53149   8.538   9.583   5.063  0.7359 -0.6754 -0.2966
16101SOL    HW153150   8.524   9.638   5.141 -3.1819  0.9540 -1.8504
16101SOL    HW253151   8.509   9.496   5.089 -1.3827  0.0449 -0.0241
16102SOL     OW53152   2.548   5.436   0.772  0.4272  0.5027 -0.4059
16102SOL    HW153153   2.592   5.520   0.765  0.6313  0.3086 -1.6701
16102SOL    HW253154   2.524   5.428   0.865  0.5158  1.8846 -0.2563
16103SOL     OW53155   4.611   2.227   7.512  0.0139  0.6683  0.1610
16103SOL    HW153156   4.565   2.244   7.430  1.1253  0.6219 -0.4927
16103SOL    HW253157   4.561   2.275   7.578 -0.9652  0.6084 -0.5153
16104SOL     OW53158   6.787   3.307   8.095  0.8262  0.6678  0.3412
16104SOL    HW153159   6.748   3.228   8.056  0.2706 -0.2019  2.5037
16104SOL    HW253160   6.713   3.359   8.123  1.2008  0.9470  0.8276
16105SOL     OW53161   9.682   8.304   5.412 -0.1277 -0.4283 -0.2580
16105SOL    HW153162   9.690   8.342   5.324  0.5113 -1.4127 -0.6352
16105SOL    HW253163   9.650   8.376   5.466 -1.6451 -0.0906 -1.5268
16106SOL     OW53164   6.708   2.064   2.399  0.2181  0.3930  0.3875
16106SOL    HW153165   6.775   2.051   2.466 -0.7152  1.0986  1.4909
16106SOL    HW253166   6.696   2.159   2.394 -0.0239  0.3331 -0.5010
16107SOL     OW53167   8.011   2.534   1.189 -0.6676  0.3126 -0.0065
16107SOL    HW153168   7.982   2.623   1.210 -2.3414 -0.3353  0.5817
16107SOL    HW253169   8.063   2.507   1.264  1.5588  1.4501 -1.0292
16108SOL     OW53170   1.952   8.315   8.996 -0.2176  0.1794  0.2607
16108SOL    HW153171   2.017   8.246   8.982  0.1420  0.6678 -0.5602
16108SOL    HW253172   1.887   8.301   8.926  0.9540  1.9089 -1.2781
16109SOL     OW53173   5.420   4.658   8.320  0.0555 -0.4172 -0.2725
16109SOL    HW153174   5.448   4.626   8.406  1.6167  0.2054 -0.5281
16109SOL    HW253175   5.388   4.747   8.337  1.3527  0.1110 -0.4624
16110SOL     OW53176   1.148   1.026   3.528 -0.1386 -0.6782  0.1675
16110SOL    HW153177   1.096   1.001   3.605  0.5854  0.0632  0.9194
16110SOL    HW253178   1.216   1.084   3.563  0.3849 -0.5655 -0.9958
16111SOL     OW53179   8.097   8.873   9.245  0.2655  0.2180 -0.3523
16111SOL    HW153180   8.076   8.934   9.316  1.6625  0.2187  0.0876
16111SOL    HW253181   8.096   8.928   9.166 -0.4368  0.3986 -0.2230
16112SOL     OW53182   6.659   6.938   0.327  0.2762  0.2132  0.0802
16112SOL    HW153183   6.566   6.956   0.341 -0.3034 -1.0005 -1.8340
16112SOL    HW253184   6.679   6.981   0.243  1.5874  0.8812  0.7103
16113SOL     OW53185   1.828   9.188   2.777 -0.2069  0.5711  0.1518
16113SOL    HW153186   1.783   9.271   2.763  0.2360  0.9296  0.8053
16113SOL    HW253187   1.870   9.197   2.863 -0.4005 -0.4413  0.3694
16114SOL     OW53188   0.084   7.076   4.684  0.5522 -0.7367  0.1535
16114SOL    HW153189  -0.008   7.099   4.675  0.5201 -0.2148  1.5530
16114SOL    HW253190   0.083   6.992   4.730  0.7684 -1.1632 -0.6035
16115SOL     OW53191   9.033   2.729   0.181 -0.3375  0.0419 -0.3175
16115SOL    HW153192   9.101   2.662   0.186  0.0947  0.5301  0.4245
16115SOL    HW253193   9.080   2.812   0.185 -0.9901  0.3845  0.5239
16116SOL     OW53194   9.072   6.960   8.172 -0.4719 -0.1267  0.1215
16116SOL    HW153195   8.988   6.930   8.208 -0.6486 -0.4217 -0.5187
16116SOL    HW253196   9.065   6.941   8.078 -0.8769  2.5586 -0.4669
16117SOL     OW53197   4.297   1.731   1.212  0.0749  0.2700  0.1303
16117SOL    HW153198   4.364   1.698   1.273 -0.9675 -0.9381  0.6677
16117SOL    HW253199   4.251   1.652   1.182 -0.0850  0.9374 -1.4680
16118SOL     OW53200   8.260   6.107   7.730 -0.2977 -0.0089 -0.1475
16118SOL    HW153201   8.347   6.071   7.713 -0.7243 -2.0395  1.5215
16118SOL    HW253202   8.202   6.056   7.674 -0.6672 -0.3465  0.5370
16119SOL     OW53203   0.115   5.037   3.487 -0.0452  0.0778  0.1299
16119SOL    HW153204   0.127   5.084   3.404  1.5206  0.7701  0.7134
16119SOL    HW253205   0.184   4.971   3.486  1.0725  1.1794  1.6057
16120SOL     OW53206   8.657   1.813   4.747  0.2348 -0.1337  0.5814
16120SOL    HW153207   8.700   1.896   4.727 -3.5992  2.0156  0.1578
16120SOL    HW253208   8.675   1.799   4.840  3.9982 -0.9883 -0.1082
16121SOL     OW53209   7.923   6.195   0.747 -0.8588 -0.2812  0.1729
16121SOL    HW153210   7.987   6.125   0.749 -0.7011 -0.1431  1.7246
16121SOL    HW253211   7.967   6.267   0.702  0.8084  0.4132  2.6931
16122SOL     OW53212   3.110   3.445   0.792 -0.1348  0.5457  0.4932
16122SOL    HW153213   3.129   3.461   0.700 -0.9991  1.9515  0.5346
16122SOL    HW253214   3.190   3.472   0.838 -0.1692  1.0466  0.2572
16123SOL     OW53215   5.423   7.039   0.823 -0.6325 -0.4311  0.2937
16123SOL    HW153216   5.517   7.053   0.839 -0.5341 -0.7076 -0.0247
16123SOL    HW253217   5.399   7.110   0.764 -0.9518  0.4742  1.4852
16124SOL     OW53218   3.690   0.312   3.944 -0.1576 -0.0982 -0.1967
16124SOL    HW153219   3.698   0.222   3.974  0.2095  0.3223  1.0250
16124SOL    HW253220   3.706   0.365   4.022 -1.0895  1.0173 -0.7324
16125SOL     OW53221   9.238   6.657   8.898 -0.1025 -0.9794 -0.4279
16125SOL    HW153222   9.244   6.668   8.993  1.0197 -2.3566 -0.3099
16125SOL    HW253223   9.157   6.702   8.874  0.3259  0.6527  0.9575
16126SOL     OW53224   0.417   5.892   9.068  0.0860  0.7202 -0.2857
16126SOL    HW153225   0.390   5.944   9.143  2.3375  1.6006 -0.0059
16126SOL    HW253226   0.401   5.802   9.094 -2.1660  1.1347 -0.0545
16127SOL     OW53227   0.895   6.462   9.261  0.6338 -0.9711  0.0244
16127SOL    HW153228   0.949   6.541   9.255  0.5072 -0.6614  2.1438
16127SOL    HW253229   0.939   6.398   9.204  0.2247  0.8292 -2.4871
16128SOL     OW53230   9.418   8.349   3.255 -0.4927 -0.1477  0.0939
16128SOL    HW153231   9.379   8.397   3.328  1.0583  0.9010  0.2832
16128SOL    HW253232   9.371   8.380   3.177 -0.4740  0.6065  0.3802
16129SOL     OW53233   8.617   8.542   1.640  0.2660  0.0179 -0.1788
16129SOL    HW153234   8.647   8.587   1.561 -1.6590  1.2957 -0.2572
16129SOL    HW253235   8.522   8.547   1.636  0.0597  1.7963  3.0871
16130SOL     OW53236   9.657   8.141   8.171 -0.6120 -0.2538 -0.2635
16130SOL    HW153237   9.673   8.154   8.264 -0.5320  0.0505 -0.3196
16130SOL    HW253238   9.599   8.213   8.145 -0.1280  0.0305 -0.5815
16131SOL     OW53239   4.217   1.802   8.040  0.8091 -0.3627  0.5115
16131SOL    HW153240   4.221   1.722   7.988  0.9730  0.0331 -0.0950
16131SOL    HW253241   4.269   1.866   7.990 -3.3571  1.6540 -1.7741
16132SOL     OW53242   2.036   4.150   8.102 -0.1951 -0.5261 -0.4384
16132SOL    HW153243   1.977   4.145   8.026  0.5160 -1.2620 -0.9590
16132SOL    HW253244   1.977   4.156   8.177 -0.9221 -0.1781 -1.0188
16133SOL     OW53245   8.327   3.910   0.556 -0.8077  0.3206  0.4659
16133SOL    HW153246   8.316   3.854   0.479  1.5513  0.8686 -0.3746
16133SOL    HW253247   8.342   3.850   0.628 -0.8866 -0.1719  0.0774
16134SOL     OW53248   3.456   3.325   6.165 -0.2477 -0.1270  0.0928
16134SOL    HW153249   3.535   3.356   6.210  0.5025 -0.1615 -1.1643
16134SOL    HW253250   3.399   3.296   6.236  0.2572  1.2807  1.1313
16135SOL     OW53251   5.509   6.362   9.315  0.2241 -0.4619  0.5073
16135SOL    HW153252   5.513   6.272   9.284 -0.3909 -0.2335 -0.2870
16135SOL    HW253253   5.564   6.364   9.393  0.1060 -1.5628  0.6296
16136SOL     OW53254   9.459   6.080   2.095  0.0523  0.3490 -0.4626
16136SOL    HW153255   9.423   6.041   2.015 -0.1499 -0.7148  0.1406
16136SOL    HW253256   9.482   6.006   2.150 -0.1268  1.0776  0.6197
16137SOL     OW53257   2.997   7.269   3.591 -0.1931  0.1604  0.7451
16137SOL    HW153258   2.933   7.198   3.595  1.1288 -1.2597 -1.3091
16137SOL    HW253259   2.945   7.347   3.572 -1.5440 -0.4851  1.6329
16138SOL     OW53260   8.506   2.405   8.931  0.3886  0.0869  0.2560
16138SOL    HW153261   8.456   2.411   8.849 -0.8828  0.9659  1.0495
16138SOL    HW253262   8.458   2.341   8.983 -0.1560  1.1955  1.1674
16139SOL     OW53263   8.300   7.841   1.421 -0.0856 -0.3864  0.2714
16139SOL    HW153264   8.383   7.798   1.441  0.4364  0.7562  0.7009
16139SOL    HW253265   8.295   7.913   1.484 -0.1041  1.1862 -1.4388
16140SOL     OW53266   8.127   0.411   6.909  0.2359  0.4201  0.6266
16140SOL    HW153267   8.073   0.488   6.891 -1.2623 -0.4827  1.0318
16140SOL    HW253268   8.169   0.430   6.992 -2.4128 -0.2940  2.2558
16141SOL     OW53269   2.395   2.512   0.644  0.4383  0.2042  0.0144
16141SOL    HW153270   2.397   2.547   0.555  1.0994 -0.4490 -0.2348
16141SOL    HW253271   2.386   2.589   0.700  4.4713  1.1651 -0.3551
16142SOL     OW53272   7.750   6.642   9.452 -0.5499 -0.2084 -0.6659
16142SOL    HW153273   7.788   6.726   9.477 -1.3536  0.0007 -0.1092
16142SOL    HW253274   7.698   6.661   9.374 -1.2820 -0.0267 -0.1534
16143SOL     OW53275   7.292   2.332   5.577  0.1402 -0.3762  0.2513
16143SOL    HW153276   7.200   2.345   5.601 -0.0866 -2.3437  0.5749
16143SOL    HW253277   7.337   2.322   5.661  0.6450  0.4679  0.0901
16144SOL     OW53278   8.236   4.953   1.182 -0.4200 -0.5376 -0.3732
16144SOL    HW153279   8.231   5.042   1.215 -0.2408 -0.1159 -1.4194
16144SOL    HW253280   8.172   4.904   1.233 -0.0290  0.0217  0.6908
16145SOL     OW53281   6.213   2.608   0.270 -0.4382  0.0433  0.1995
16145SOL    HW153282   6.241   2.587   0.359 -0.3663  0.3776  0.2600
16145SOL    HW253283   6.286   2.660   0.234 -0.3170 -0.3808 -0.1719
16146SOL     OW53284   5.303   0.892   8.088  0.3830  0.3147  0.2060
16146SOL    HW153285   5.253   0.815   8.061  0.7268  0.0036  0.4512
16146SOL    HW253286   5.296   0.893   8.183 -0.0856  0.9079  0.1693
16147SOL     OW53287   7.981   5.587   5.483  0.1207  1.1041  0.5213
16147SOL    HW153288   7.942   5.528   5.418  0.5527  0.4717  0.8170
16147SOL    HW253289   7.921   5.582   5.558  1.7209 -1.5005  1.7906
16148SOL     OW53290   4.469   2.997   5.185 -0.1101  0.0685 -0.6215
16148SOL    HW153291   4.546   2.998   5.242 -0.6167 -0.2907  0.0684
16148SOL    HW253292   4.504   3.021   5.099  0.8166 -0.3461 -0.3737
16149SOL     OW53293   5.847   8.392   6.428  0.3514 -0.2761 -0.3932
16149SOL    HW153294   5.894   8.408   6.510  0.8942  0.8054 -0.8962
16149SOL    HW253295   5.772   8.338   6.454  0.5032  0.0597  0.8195
16150SOL     OW53296   9.681   4.686   2.792  0.4419 -0.3877  0.4673
16150SOL    HW153297   9.625   4.611   2.815 -1.1392  1.0788  1.6269
16150SOL    HW253298   9.753   4.647   2.743 -0.8319 -2.5601  0.1599
16151SOL     OW53299   4.110   8.586   6.637 -0.2477  0.2047 -0.2620
16151SOL    HW153300   4.205   8.581   6.631 -0.3316  0.4053 -2.2471
16151SOL    HW253301   4.084   8.644   6.565 -1.8264  0.7639  0.6979
16152SOL     OW53302   8.230   7.159   7.987  0.2012 -0.2761 -0.0952
16152SOL    HW153303   8.300   7.105   7.951 -0.0465 -2.2213  2.0937
16152SOL    HW253304   8.271   7.205   8.061 -0.5062 -0.3930  0.3767
16153SOL     OW53305   8.810   0.645   3.457  0.6620 -0.5525 -0.2104
16153SOL    HW153306   8.840   0.638   3.548  0.7983 -0.4476 -0.2470
16153SOL    HW253307   8.858   0.720   3.422  0.0823 -0.1470 -0.1602
16154SOL     OW53308   2.743   7.820   0.044  0.2377 -0.4200  1.0402
16154SOL    HW153309   2.828   7.835   0.002 -0.6866  0.3096 -0.6858
16154SOL    HW253310   2.690   7.776  -0.023 -1.1040  0.2013  1.6407
16155SOL     OW53311   6.165   6.178   4.715 -0.1620 -1.0678  0.4170
16155SOL    HW153312   6.090   6.220   4.673  1.3699  1.9676  0.4233
16155SOL    HW253313   6.136   6.163   4.805 -1.4357 -1.9684 -0.1115
16156SOL     OW53314   7.036   9.535   9.226 -0.4465 -0.0795 -0.2178
16156SOL    HW153315   6.992   9.506   9.146 -1.0766 -1.1581  0.5000
16156SOL    HW253316   7.108   9.474   9.237 -0.7913 -0.3786  0.4178
16157SOL     OW53317   0.751   0.186   3.560 -0.2308  0.3964  0.2889
16157SOL    HW153318   0.803   0.188   3.640  0.1535  1.1178  0.0407
16157SOL    HW253319   0.664   0.216   3.586 -0.8415 -1.7862  0.9005
16158SOL     OW53320   0.287   9.100   2.273 -0.7250 -0.7500  0.3484
16158SOL    HW153321   0.293   9.093   2.178 -1.0981  0.2974  0.2302
16158SOL    HW253322   0.355   9.042   2.306 -0.9483 -1.5513 -0.5376
16159SOL     OW53323   2.796   7.173   7.705 -0.1761 -0.1138 -0.1019
16159SOL    HW153324   2.728   7.235   7.678  0.3067 -0.1792 -1.5650
16159SOL    HW253325   2.749   7.091   7.718 -0.4178 -0.1489 -1.0657
16160SOL     OW53326   6.535   1.881   3.513  0.1569  0.6383 -0.8758
16160SOL    HW153327   6.483   1.830   3.575 -1.6389  0.9521 -2.0687
16160SOL    HW253328   6.499   1.970   3.519  2.6550  1.6992  0.5300
16161SOL     OW53329   5.678   4.764   4.015 -0.5300 -0.3638 -0.6141
16161SOL    HW153330   5.727   4.688   4.044  1.7796  1.4537  0.6265
16161SOL    HW253331   5.745   4.825   3.983 -2.2312  1.3172 -1.1912
16162SOL     OW53332   5.409   0.115   5.939 -0.1242 -0.5423  0.2892
16162SOL    HW153333   5.460   0.034   5.945 -1.0017 -1.1637 -0.4023
16162SOL    HW253334   5.335   0.093   5.882 -0.6675  0.5972  0.5205
16163SOL     OW53335   1.394   4.070   5.729 -0.0147  0.3896  0.0637
16163SOL    HW153336   1.326   4.028   5.676  0.0416 -1.9289  1.6441
16163SOL    HW253337   1.352   4.084   5.814  1.8260 -2.7498  1.6646
16164SOL     OW53338   3.196   4.156   5.255 -0.2971  0.3511  0.3835
16164SOL    HW153339   3.193   4.233   5.199 -0.4435  0.7140  0.8813
16164SOL    HW253340   3.137   4.177   5.328  1.1385  0.5471  1.5145
16165SOL     OW53341   4.408   8.200   3.314 -0.2605  0.2744  0.5722
16165SOL    HW153342   4.343   8.133   3.332  0.6330 -0.2036  2.2622
16165SOL    HW253343   4.386   8.233   3.227 -1.4000 -1.4082  0.1844
16166SOL     OW53344   2.310   6.702   4.766 -0.2598  0.0598  0.5018
16166SOL    HW153345   2.261   6.747   4.835  0.2961  0.5860  0.5610
16166SOL    HW253346   2.291   6.751   4.686 -2.3654 -1.6080 -0.1183
16167SOL     OW53347   5.681   1.131   0.861  0.2557 -0.1693  0.4497
16167SOL    HW153348   5.731   1.087   0.929  0.9636 -0.6804 -0.3705
16167SOL    HW253349   5.662   1.063   0.797  0.9500  0.6000 -0.6112
16168SOL     OW53350   3.980   4.219   9.303  0.1473 -0.1910  0.4256
16168SOL    HW153351   3.921   4.164   9.354  0.6512  0.5119  1.8098
16168SOL    HW253352   4.067   4.182   9.318  0.3047  0.0395  0.1049
16169SOL     OW53353   5.395   8.822   4.044  0.0846 -0.3027  0.1201
16169SOL    HW153354   5.446   8.852   3.969  1.1342  0.3640  1.0781
16169SOL    HW253355   5.448   8.752   4.082 -0.5302 -0.7655  0.1429
16170SOL     OW53356   4.377   0.054   6.460 -0.4994  0.1643 -0.1999
16170SOL    HW153357   4.467   0.023   6.446  0.2546  2.0972 -0.0572
16170SOL    HW253358   4.376   0.083   6.552 -1.5156 -0.5515  0.0237
16171SOL     OW53359   5.350   4.265   0.823  0.3815  0.4303 -0.1141
16171SOL    HW153360   5.345   4.170   0.811 -0.9798  0.1352  2.1133
16171SOL    HW253361   5.324   4.279   0.914  1.9594  2.8473  0.0609
16172SOL     OW53362   0.477   4.227   3.658 -0.2184 -0.3509 -0.2301
16172SOL    HW153363   0.539   4.299   3.671  0.0218 -0.2827 -1.6696
16172SOL    HW253364   0.391   4.268   3.662 -0.0935 -0.0456 -0.6887
16173SOL     OW53365   9.623   6.187   5.472  0.0972  0.1025  0.3761
16173SOL    HW153366   9.548   6.203   5.414  0.8999  1.6073 -0.2985
16173SOL    HW253367   9.585   6.143   5.548 -1.1293 -1.1597 -0.8890
16174SOL     OW53368   8.714   4.229   4.783 -0.1491  0.1771  0.1146
16174SOL    HW153369   8.715   4.315   4.825  0.0537  1.4476 -2.2862
16174SOL    HW253370   8.647   4.236   4.715  1.3173 -0.8149 -1.5235
16175SOL     OW53371   3.726   0.205   0.884  0.3256 -0.3856  0.2213
16175SOL    HW153372   3.753   0.236   0.970  0.0307  0.9381 -0.1425
16175SOL    HW253373   3.776   0.124   0.870  1.6590  0.2901  0.9098
16176SOL     OW53374   6.479   9.683   4.888  0.1830  0.1024 -0.9216
16176SOL    HW153375   6.433   9.710   4.968 -0.8112  1.1123 -1.8046
16176SOL    HW253376   6.412   9.638   4.836  0.8422 -0.6048 -1.1827
16177SOL     OW53377   1.897   1.053   3.646  0.0746 -0.3022  0.1847
16177SOL    HW153378   1.968   1.116   3.662  0.5186 -0.9121  0.6436
16177SOL    HW253379   1.828   1.077   3.708  0.1963 -0.1992  0.2801
16178SOL     OW53380   3.229   1.498   8.281  0.3062 -0.1691 -0.0799
16178SOL    HW153381   3.264   1.443   8.351  1.0516 -0.7497 -0.8988
16178SOL    HW253382   3.215   1.583   8.323  0.8473 -0.4755  0.7484
16179SOL     OW53383   2.259   3.223   8.711 -0.4402  0.2920  0.2829
16179SOL    HW153384   2.169   3.202   8.735 -0.0828 -0.2452  1.2000
16179SOL    HW253385   2.306   3.140   8.719  0.4502  0.8698  1.3180
16180SOL     OW53386   3.543   7.296   5.060  0.1116 -0.5028 -0.4805
16180SOL    HW153387   3.490   7.291   4.981  1.0390 -1.4678 -1.0677
16180SOL    HW253388   3.491   7.350   5.121 -2.4343 -2.8724 -0.3417
16181SOL     OW53389   7.517   6.325   4.003 -0.1309 -0.2617 -0.2842
16181SOL    HW153390   7.456   6.394   4.028 -0.8028 -0.6619 -0.7796
16181SOL    HW253391   7.509   6.260   4.073 -0.0489 -0.1750 -0.1945
16182SOL     OW53392   4.413   0.518   1.095 -0.6166 -0.5959 -0.1499
16182SOL    HW153393   4.435   0.448   1.156  1.0386  0.0447  0.0559
16182SOL    HW253394   4.340   0.484   1.044 -0.7306 -1.9263  0.8459
16183SOL     OW53395   6.953   1.068   8.288  0.6685  0.1570  0.4829
16183SOL    HW153396   6.972   0.995   8.229 -0.2173 -0.4284  0.8993
16183SOL    HW253397   6.876   1.110   8.250  0.8014  0.4916  0.5844
16184SOL     OW53398   3.314   1.832   5.337 -0.2427 -0.1086  0.1768
16184SOL    HW153399   3.221   1.825   5.358  0.0526 -0.6653  1.3592
16184SOL    HW253400   3.321   1.916   5.291 -1.2091  0.3046  0.7366
16185SOL     OW53401   8.696   3.123   1.172  0.1600  0.2605  0.2498
16185SOL    HW153402   8.649   3.192   1.126  2.5413  0.4727 -2.0257
16185SOL    HW253403   8.773   3.165   1.209 -0.9587 -0.1902  3.4989
16186SOL     OW53404   7.744   7.657   2.669  0.4911  0.0645  0.1564
16186SOL    HW153405   7.759   7.570   2.632 -1.1679  0.1922 -0.9366
16186SOL    HW253406   7.778   7.651   2.758 -0.2253 -1.9290  0.3555
16187SOL     OW53407   4.686   4.269   4.508 -0.3108 -0.3785 -0.8857
16187SOL    HW153408   4.615   4.331   4.494 -1.8970 -1.9310 -0.1879
16187SOL    HW253409   4.675   4.205   4.437  0.2837 -0.7141 -0.6769
16188SOL     OW53410   0.789   4.599   2.128  0.0300 -0.0394 -0.2832
16188SOL    HW153411   0.872   4.566   2.162 -0.5530 -0.7831  0.4737
16188SOL    HW253412   0.795   4.694   2.138  0.5692 -0.1227  0.2804
16189SOL     OW53413   1.033   0.095   2.609 -0.4987 -0.4614 -0.0346
16189SOL    HW153414   1.043   0.175   2.661 -0.8316 -0.0670 -0.5750
16189SOL    HW253415   0.962   0.048   2.652 -1.4415  0.3223 -0.6886
16190SOL     OW53416   2.023   1.897   5.997  0.2463  0.3371  0.7430
16190SOL    HW153417   1.943   1.853   5.971 -0.8542  0.9957  2.7748
16190SOL    HW253418   1.994   1.965   6.058  2.2536  1.3248  0.6733
16191SOL     OW53419   3.862   4.779   2.510 -0.2487  0.0295 -0.2304
16191SOL    HW153420   3.795   4.841   2.541 -0.0784  0.4405 -0.6742
16191SOL    HW253421   3.812   4.707   2.472 -0.4695  1.1998 -2.2804
16192SOL     OW53422   3.667   2.045   1.523  0.3265 -0.2818  0.0612
16192SOL    HW153423   3.662   1.950   1.512  1.0221 -0.3183  0.0421
16192SOL    HW253424   3.636   2.080   1.439 -0.5242 -0.4757  0.2834
16193SOL     OW53425   8.114   1.038   5.294 -0.4147 -0.0747  0.0307
16193SOL    HW153426   8.134   1.089   5.373  0.3448  2.6293 -1.7410
16193SOL    HW253427   8.172   0.962   5.300  0.0551  0.3529  1.7622
16194SOL     OW53428   0.025   5.256   2.650  0.5078 -0.6078  0.2952
16194SOL    HW153429  -0.029   5.326   2.686 -1.4828  0.0730 -3.4797
16194SOL    HW253430   0.114   5.279   2.677 -0.4407  1.5702  1.8620
16195SOL     OW53431   7.826   5.514   6.333 -0.4620 -0.2183  0.1613
16195SOL    HW153432   7.850   5.522   6.241 -2.7070  1.5685 -0.3553
16195SOL    HW253433   7.736   5.547   6.337  0.0080  0.9676  3.2065
16196SOL     OW53434   3.476   6.408   8.061  0.5223 -0.1696 -0.7314
16196SOL    HW153435   3.466   6.313   8.055  2.9574 -0.9520  3.5405
16196SOL    HW253436   3.542   6.430   7.996  1.6501 -1.8461 -0.2011
16197SOL     OW53437   2.142   2.256   8.622  0.9454  0.0209 -0.8940
16197SOL    HW153438   2.058   2.303   8.625  0.5100 -0.7185  2.5634
16197SOL    HW253439   2.202   2.311   8.673  1.6046 -1.0888 -0.4551
16198SOL     OW53440   5.129   9.617   0.886  0.2068  0.4413  0.2273
16198SOL    HW153441   5.195   9.573   0.940 -1.7907 -0.5767  1.9927
16198SOL    HW253442   5.093   9.685   0.943 -0.3279  0.9248 -0.6657
16199SOL     OW53443   2.211   5.862   4.101  0.2160  0.2840 -0.4429
16199SOL    HW153444   2.281   5.927   4.096 -1.0784  1.6991 -1.2364
16199SOL    HW253445   2.173   5.875   4.188  0.9256 -0.4811 -0.0141
16200SOL     OW53446   7.381   3.445   5.446  0.0463  0.6426 -0.5470
16200SOL    HW153447   7.334   3.362   5.454  0.4401  0.4811  0.1052
16200SOL    HW253448   7.319   3.510   5.479  0.2711  0.4316  0.3069
16201SOL     OW53449   0.035   0.651   8.877  0.0825 -0.3971 -0.0348
16201SOL    HW153450   0.031   0.589   8.950 -0.0578 -0.3543 -0.0060
16201SOL    HW253451   0.036   0.737   8.918 -1.4407 -0.3160 -0.1054
16202SOL     OW53452   4.020   0.033   5.275 -0.1317  0.4539  0.1130
16202SOL    HW153453   4.004  -0.040   5.215 -0.6976 -0.2054  1.0422
16202SOL    HW253454   4.020   0.110   5.218  0.5619 -0.2607 -0.9003
16203SOL     OW53455   6.548   1.740   0.971 -0.6034  0.0275 -0.4675
16203SOL    HW153456   6.578   1.813   0.917 -0.8824 -0.6124 -1.5302
16203SOL    HW253457   6.628   1.701   1.006 -0.5067  1.7999  1.4754
16204SOL     OW53458   9.375   5.406   7.539  0.0880  0.3160 -0.3876
16204SOL    HW153459   9.421   5.322   7.534  0.7619  0.5220  1.5450
16204SOL    HW253460   9.401   5.453   7.459  0.6432 -0.8364 -0.9048
16205SOL     OW53461   2.569   5.291   7.192 -0.5932  0.3259  0.2309
16205SOL    HW153462   2.493   5.322   7.241  0.2657  1.8886  0.6286
16205SOL    HW253463   2.558   5.328   7.104  0.5204  1.9721  0.7535
16206SOL     OW53464   2.301   3.886   1.479  0.1540  0.6765 -0.1580
16206SOL    HW153465   2.297   3.960   1.540  0.8843 -0.0362  0.7956
16206SOL    HW253466   2.305   3.926   1.392 -1.3397  1.7107  0.2181
16207SOL     OW53467   8.426   9.457   0.169 -0.1283 -0.4039 -0.2014
16207SOL    HW153468   8.502   9.512   0.151  1.2106 -1.8960  0.7013
16207SOL    HW253469   8.430   9.389   0.102  0.6609 -1.7782  1.2008
16208SOL     OW53470   6.485   7.744   8.082 -0.4843 -0.6148  0.6201
16208SOL    HW153471   6.405   7.791   8.105  0.1080 -0.8270  3.4892
16208SOL    HW253472   6.556   7.802   8.110  0.4129 -0.7486 -1.2020
16209SOL     OW53473   0.399   5.880   3.880 -0.1088  0.0020  0.1432
16209SOL    HW153474   0.347   5.907   3.955  1.7181  2.0120  0.7698
16209SOL    HW253475   0.365   5.932   3.807 -1.8096 -1.8705 -0.4829
16210SOL     OW53476   4.970   3.135   3.861 -0.1239 -0.3111 -0.0598
16210SOL    HW153477   5.041   3.152   3.799  1.4318 -3.1015  0.7623
16210SOL    HW253478   5.015   3.129   3.946 -1.5338 -0.8530  0.6764
16211SOL     OW53479   1.855   1.739   8.851 -0.3137 -0.0998 -0.1972
16211SOL    HW153480   1.794   1.810   8.827 -1.3880 -1.4018 -1.5348
16211SOL    HW253481   1.850   1.735   8.947 -4.2361 -1.6231 -0.2624
16212SOL     OW53482   2.517   1.305   6.326  0.0900 -0.1283 -0.2157
16212SOL    HW153483   2.511   1.320   6.421  1.3658 -3.1135  0.4701
16212SOL    HW253484   2.431   1.271   6.302  0.3709 -1.3397  0.3785
16213SOL     OW53485   2.716   2.022   2.928  0.2215  0.3406 -0.4586
16213SOL    HW153486   2.787   2.064   2.978  0.8996 -0.8349 -0.3964
16213SOL    HW253487   2.695   1.943   2.978 -0.6638  0.3220 -0.8482
16214SOL     OW53488   0.859   8.348   7.433 -0.6637  0.3218  0.1990
16214SOL    HW153489   0.772   8.309   7.441 -0.6463  0.5590  1.7958
16214SOL    HW253490   0.870   8.401   7.511  1.1305 -0.1315  0.3173
16215SOL     OW53491   5.099   0.915   1.259 -0.1393  0.1194 -0.3840
16215SOL    HW153492   5.024   0.871   1.298  1.0939 -0.0712  1.9960
16215SOL    HW253493   5.161   0.845   1.239  0.5367  0.4722  0.3984
16216SOL     OW53494   5.445   1.249   6.347 -0.0307  0.0575  0.3055
16216SOL    HW153495   5.425   1.207   6.430 -0.5745  0.6421  0.4759
16216SOL    HW253496   5.368   1.233   6.292 -0.4329  1.1713  0.5143
16217SOL     OW53497   2.427   5.018   4.486  0.0213 -0.4636 -0.6232
16217SOL    HW153498   2.489   4.988   4.553  0.1659  1.1379  0.0242
16217SOL    HW253499   2.481   5.032   4.408  0.0606 -1.2469 -0.7386
16218SOL     OW53500   6.638   8.935   3.729  0.3630 -0.4722  0.1569
16218SOL    HW153501   6.616   8.923   3.821 -0.3611 -0.2465  0.0225
16218SOL    HW253502   6.644   8.846   3.694  1.4811 -0.5839  0.6027
16219SOL     OW53503   7.362   1.812   0.711 -0.7447  0.4920  0.4607
16219SOL    HW153504   7.444   1.767   0.733 -2.5539 -2.0055  2.7144
16219SOL    HW253505   7.390   1.889   0.662  2.8761 -0.7165  0.3107
16220SOL     OW53506   4.494   0.927   8.248  0.4074  0.2588  0.3926
16220SOL    HW153507   4.585   0.938   8.219 -0.1600  2.2767 -0.8392
16220SOL    HW253508   4.462   1.016   8.261 -2.1481 -0.1870 -1.7686
16221SOL     OW53509   2.357   9.536   0.728  0.4537  0.0533  0.1610
16221SOL    HW153510   2.426   9.504   0.670  1.4491 -0.4068  1.5813
16221SOL    HW253511   2.277   9.529   0.675  1.5525  1.3139 -1.7829
16222SOL     OW53512   4.205   1.977   2.485 -0.7533  0.3091 -0.0888
16222SOL    HW153513   4.182   2.066   2.459  0.4509  1.0281  1.1703
16222SOL    HW253514   4.127   1.943   2.529 -1.2492  0.6953 -0.6597
16223SOL     OW53515   4.323   6.365   5.471 -0.2380  0.4187 -0.4226
16223SOL    HW153516   4.315   6.455   5.437 -0.9609  0.2121 -0.8236
16223SOL    HW253517   4.359   6.315   5.397  0.2007  0.3804 -0.1870
16224SOL     OW53518   3.640   1.888   1.163 -0.1346 -0.0200  0.0498
16224SOL    HW153519   3.628   1.837   1.244 -0.6812 -0.5995 -0.3854
16224SOL    HW253520   3.556   1.934   1.152  0.5117  1.3577  0.6876
16225SOL     OW53521   6.224   2.732   6.007 -0.4012  0.5627  0.5670
16225SOL    HW153522   6.189   2.722   5.919 -1.6365  1.5004  0.9235
16225SOL    HW253523   6.319   2.736   5.994 -0.6050  1.7255 -0.8449
16226SOL     OW53524   3.996   8.724   7.374  0.7406  0.3791  0.5670
16226SOL    HW153525   3.998   8.733   7.278 -0.7826  1.0145  0.5784
16226SOL    HW253526   3.930   8.657   7.390  0.4642  0.8068  1.2115
16227SOL     OW53527   8.000   2.116   6.672  0.1016  0.4077 -0.6701
16227SOL    HW153528   8.078   2.162   6.641  1.1215 -0.2512  0.8082
16227SOL    HW253529   8.017   2.099   6.764 -0.6368 -2.0757 -0.9080
16228SOL     OW53530   2.829   4.633   8.886 -0.1797 -0.0679 -0.1675
16228SOL    HW153531   2.739   4.663   8.876  0.4947  2.0579 -0.2824
16228SOL    HW253532   2.847   4.641   8.980 -0.4787 -1.7586  0.0744
16229SOL     OW53533   5.614   4.429   5.185 -0.3541  0.5739 -0.0820
16229SOL    HW153534   5.692   4.381   5.158 -0.9019 -0.9861  0.9317
16229SOL    HW253535   5.636   4.466   5.270 -0.0401  1.9155 -0.7235
16230SOL     OW53536   4.396   0.042   5.609  0.1502 -0.1877  0.0861
16230SOL    HW153537   4.318   0.005   5.567 -0.0201  1.7947 -1.5081
16230SOL    HW253538   4.361   0.096   5.680  0.1456 -0.1416  0.0490
16231SOL     OW53539   4.002   8.785   1.659  0.4111  0.6704  0.0088
16231SOL    HW153540   3.993   8.729   1.736 -0.3706  2.4219  1.2709
16231SOL    HW253541   4.095   8.810   1.659  0.7211 -0.3983 -0.4503
16232SOL     OW53542   4.777   0.647   6.948 -0.4008 -0.0106 -0.1888
16232SOL    HW153543   4.852   0.691   6.989  1.0152 -1.4305 -1.1380
16232SOL    HW253544   4.711   0.716   6.941  1.9832  2.2760 -2.3805
16233SOL     OW53545   1.226   9.393   0.869 -0.3740 -0.1207  0.1774
16233SOL    HW153546   1.132   9.413   0.864 -0.4734 -0.5196  0.3450
16233SOL    HW253547   1.263   9.465   0.920 -0.4825  0.3610 -0.4068
16234SOL     OW53548   7.271   0.049   4.105  0.0191 -0.2912  0.3199
16234SOL    HW153549   7.313   0.132   4.125  1.3001 -0.5375 -1.0845
16234SOL    HW253550   7.216   0.068   4.029  2.2625 -1.1341 -1.6744
16235SOL     OW53551   2.074   4.083   6.127  0.9466 -0.1747 -0.2866
16235SOL    HW153552   2.156   4.098   6.080  1.8680  1.8136  1.7504
16235SOL    HW253553   2.096   4.096   6.219 -1.4575 -0.5452  0.4265
16236SOL     OW53554   5.094   8.298   8.938  0.3091  0.2613  0.3341
16236SOL    HW153555   5.039   8.260   8.869 -0.1553  3.3538 -1.1279
16236SOL    HW253556   5.177   8.251   8.930 -0.0467 -0.1091 -1.6951
16237SOL     OW53557   1.311   8.955   3.406 -0.1924 -0.1073 -0.2737
16237SOL    HW153558   1.233   9.006   3.425 -1.5171 -1.8505 -0.7143
16237SOL    HW253559   1.336   8.981   3.317 -0.4133  0.2787 -0.2246
16238SOL     OW53560   9.186   9.684   4.868  0.1419 -0.5835  0.0778
16238SOL    HW153561   9.128   9.699   4.943 -0.9982 -0.4453 -0.7933
16238SOL    HW253562   9.225   9.599   4.884 -0.1278 -0.5816  0.7969
16239SOL     OW53563   9.677   5.552   5.546 -0.4617 -0.5097 -0.0153
16239SOL    HW153564   9.613   5.545   5.617 -1.9439  0.3363 -1.2108
16239SOL    HW253565   9.663   5.640   5.510  2.3518  0.2748  0.5568
16240SOL     OW53566   3.204   6.739   0.341 -0.0292 -0.4346 -0.5986
16240SOL    HW153567   3.255   6.788   0.277  0.8118  1.4338  1.3730
16240SOL    HW253568   3.199   6.796   0.417 -0.7445 -2.6373  1.1413
16241SOL     OW53569   0.845   4.984   4.638  0.2530  0.4990 -0.1881
16241SOL    HW153570   0.853   5.073   4.601  0.9790  0.1311 -0.9511
16241SOL    HW253571   0.823   4.929   4.563 -1.1630  0.1514  0.4411
16242SOL     OW53572   3.185   7.197   3.785  0.1121  0.0889 -0.6061
16242SOL    HW153573   3.131   7.245   3.722  0.7049  1.2700 -0.2549
16242SOL    HW253574   3.222   7.265   3.841 -0.2398 -0.9121  0.9097
16243SOL     OW53575   0.261   1.124   0.991 -0.3807 -0.2385  0.2673
16243SOL    HW153576   0.166   1.118   0.982 -0.3158  1.1815 -2.7264
16243SOL    HW253577   0.293   1.037   0.969 -0.9362 -0.0263 -1.5563
16244SOL     OW53578   3.507   7.460   4.745  0.0985  0.3679  0.5092
16244SOL    HW153579   3.467   7.376   4.770  0.9115  0.0743  0.8544
16244SOL    HW253580   3.581   7.435   4.691  0.1077  0.8904  0.2823
16245SOL     OW53581   8.086   8.250   7.968 -0.4089  1.2995 -0.3729
16245SOL    HW153582   8.097   8.266   7.874  0.6192 -0.0298 -0.5178
16245SOL    HW253583   8.005   8.294   7.991 -0.8061  1.4439 -1.9414
16246SOL     OW53584   0.923   0.556   2.868 -0.2260  0.0564  0.1943
16246SOL    HW153585   0.829   0.573   2.862 -0.1634 -0.1320 -2.0836
16246SOL    HW253586   0.962   0.643   2.884 -0.7649  0.1338  1.1397
16247SOL     OW53587   0.107   8.395   1.274 -0.1163 -0.0803 -0.1244
16247SOL    HW153588   0.023   8.434   1.298  0.5241  2.0209 -1.1242
16247SOL    HW253589   0.150   8.460   1.219  2.1331 -1.1388  0.2483
16248SOL     OW53590   8.195   4.364   7.201 -0.3920 -0.2157 -0.2786
16248SOL    HW153591   8.249   4.331   7.129 -1.9277 -1.5599 -0.8687
16248SOL    HW253592   8.198   4.295   7.267  0.2770  0.6213  0.6014
16249SOL     OW53593   3.042   9.169   8.037 -0.3828  1.0371 -0.0457
16249SOL    HW153594   2.946   9.166   8.037 -0.4503  0.7347 -2.5173
16249SOL    HW253595   3.068   9.080   8.062 -0.8762  0.2136 -2.2040
16250SOL     OW53596   5.395   6.761   2.419 -0.8930  0.0621  0.3632
16250SOL    HW153597   5.370   6.851   2.399  2.1360  0.4948 -2.3716
16250SOL    HW253598   5.396   6.717   2.333  0.7708 -1.6574  1.1852
16251SOL     OW53599   7.181   2.680   2.500  0.7013  0.3378 -0.1425
16251SOL    HW153600   7.195   2.634   2.583 -0.7259  0.4735  0.2112
16251SOL    HW253601   7.215   2.768   2.515  1.3294  0.0791 -0.0328
16252SOL     OW53602   1.615   1.080   0.016  0.4234 -1.0125  0.4030
16252SOL    HW153603   1.551   1.093  -0.054  1.9879  0.4448 -0.8396
16252SOL    HW253604   1.681   1.022  -0.022  1.7636  0.5160  0.2897
16253SOL     OW53605   7.595   2.189   9.537  0.4584 -0.2351  0.5558
16253SOL    HW153606   7.676   2.207   9.489  1.2428 -0.7191  1.6481
16253SOL    HW253607   7.617   2.115   9.594 -1.0154 -0.9320  0.2597
16254SOL     OW53608   0.967   7.292   5.482  0.4499 -0.5529  0.1500
16254SOL    HW153609   0.987   7.345   5.405 -1.8277  2.2884  1.2930
16254SOL    HW253610   1.027   7.323   5.549  0.4574 -0.8862  0.2982
16255SOL     OW53611   5.966   2.047   8.660 -0.2414  0.1460 -0.0566
16255SOL    HW153612   5.982   2.064   8.567 -0.6976  1.8145  0.1223
16255SOL    HW253613   6.042   2.086   8.705  0.3195 -1.2610  0.2539
16256SOL     OW53614   4.212   4.228   9.682  0.0981 -0.2147 -0.8360
16256SOL    HW153615   4.184   4.180   9.760  0.1212  0.6549 -0.2785
16256SOL    HW253616   4.278   4.171   9.642 -0.0930 -0.7883 -0.3622
16257SOL     OW53617   8.939   2.756   8.393 -0.3511  0.7364  0.0108
16257SOL    HW153618   8.913   2.674   8.436 -1.0452  1.0755  0.2544
16257SOL    HW253619   9.015   2.786   8.442 -0.6440  0.6955  0.4977
16258SOL     OW53620   9.631   2.153   0.845 -0.0189 -0.2677 -0.6263
16258SOL    HW153621   9.660   2.221   0.784  1.2460 -0.9761 -0.8594
16258SOL    HW253622   9.675   2.074   0.815  0.8038 -0.5993  1.3093
16259SOL     OW53623   0.329   6.669   3.540 -0.3649 -0.1270  0.2106
16259SOL    HW153624   0.262   6.619   3.587  0.6954 -1.4787  0.3585
16259SOL    HW253625   0.367   6.727   3.606 -3.0258  2.5483 -0.4146
16260SOL     OW53626   8.629   7.388   1.867  0.1273  0.4341 -0.1236
16260SOL    HW153627   8.699   7.452   1.851  0.6075 -0.1197 -0.2712
16260SOL    HW253628   8.563   7.408   1.801  0.4790  0.4881 -0.4645
16261SOL     OW53629   1.509   2.586   1.741 -0.0689 -0.4190 -0.3734
16261SOL    HW153630   1.544   2.669   1.708  2.5235 -1.4183 -0.3907
16261SOL    HW253631   1.443   2.612   1.805  2.1041  1.7722  1.2003
16262SOL     OW53632   8.039   8.576   8.040 -0.2207  0.3357  0.0257
16262SOL    HW153633   8.127   8.596   8.071 -0.2096 -0.0823  0.2766
16262SOL    HW253634   7.994   8.661   8.036  0.5155  0.6903 -1.1524
16263SOL     OW53635   8.060   8.417   1.649 -0.4987  0.3746  0.3676
16263SOL    HW153636   8.085   8.338   1.600 -0.9900  0.4819 -0.0601
16263SOL    HW253637   8.138   8.473   1.644 -0.6579  0.5286 -0.5857
16264SOL     OW53638   6.896   2.745   2.152  0.3017  0.3025 -0.3478
16264SOL    HW153639   6.881   2.651   2.140 -0.5729  0.4391 -0.4096
16264SOL    HW253640   6.990   2.753   2.166  0.2901 -0.6640  0.3808
16265SOL     OW53641   0.022   3.221   1.615 -0.3933  0.2503 -0.3013
16265SOL    HW153642  -0.073   3.229   1.609 -0.4506  1.2886  1.4823
16265SOL    HW253643   0.055   3.310   1.608  0.3687  0.0172  0.1313
16266SOL     OW53644   6.350   5.137   4.477  0.2730 -0.0226 -0.5928
16266SOL    HW153645   6.423   5.146   4.416 -0.1638 -0.3777 -1.1823
16266SOL    HW253646   6.282   5.092   4.427 -0.8333  1.4171 -0.4706
16267SOL     OW53647   0.319   8.529   6.893  0.6560  0.7244 -0.1697
16267SOL    HW153648   0.363   8.580   6.825  1.9721  0.1070  0.1838
16267SOL    HW253649   0.388   8.473   6.929 -0.6448 -1.0294 -0.2688
16268SOL     OW53650   8.868   5.534   3.415  0.2452 -0.2660  0.3690
16268SOL    HW153651   8.900   5.446   3.395  0.5458 -0.0661 -0.0280
16268SOL    HW253652   8.863   5.536   3.511  1.1207 -0.4067  0.4205
16269SOL     OW53653   4.279   6.965   7.696 -0.3794 -0.1852 -0.5103
16269SOL    HW153654   4.348   6.899   7.689  0.8435  0.9153  0.4790
16269SOL    HW253655   4.215   6.928   7.757 -0.4175 -1.0054 -1.0314
16270SOL     OW53656   5.362   0.589   4.573  0.1670 -0.0213  0.6711
16270SOL    HW153657   5.441   0.555   4.530 -0.3843  0.1127 -0.4831
16270SOL    HW253658   5.305   0.615   4.501 -1.1798 -0.6585  1.4648
16271SOL     OW53659   3.178   0.840   0.699 -0.3817 -0.4383 -0.3545
16271SOL    HW153660   3.199   0.831   0.792  1.3386 -1.7527 -0.8106
16271SOL    HW253661   3.157   0.932   0.687  1.0100  0.0943  1.0442
16272SOL     OW53662   4.526   6.521   5.203  0.3087  0.3356 -0.8437
16272SOL    HW153663   4.591   6.590   5.218 -1.8462  2.0080  1.5706
16272SOL    HW253664   4.472   6.555   5.131 -0.6874  1.2232  0.2746
16273SOL     OW53665   2.272   7.303   7.845 -0.2161  0.1072 -0.2624
16273SOL    HW153666   2.247   7.388   7.809  1.0011  1.6097  2.1229
16273SOL    HW253667   2.350   7.277   7.795  0.1837  1.0867 -0.1675
16274SOL     OW53668   0.074   7.743   9.012  0.2259  0.0313 -0.2741
16274SOL    HW153669  -0.004   7.700   8.979 -0.0823 -0.6298  1.2620
16274SOL    HW253670   0.074   7.829   8.969 -0.4706 -0.5587 -1.4916
16275SOL     OW53671   1.484   6.851   5.287 -0.0339  0.3244 -0.1816
16275SOL    HW153672   1.577   6.874   5.292 -0.1965  0.9349  0.0848
16275SOL    HW253673   1.472   6.820   5.197  0.1516  1.5187 -0.6394
16276SOL     OW53674   6.971   9.246   4.435 -0.3359 -0.3073 -0.2128
16276SOL    HW153675   7.062   9.233   4.408 -0.1456  0.0499  0.2458
16276SOL    HW253676   6.970   9.225   4.528 -0.7647 -0.4870 -0.2524
16277SOL     OW53677   0.667   2.080   3.776 -0.4536  0.5097 -0.1930
16277SOL    HW153678   0.721   2.127   3.840  1.0887 -1.6274  0.1972
16277SOL    HW253679   0.578   2.109   3.793  0.3164  2.6681  0.5036
16278SOL     OW53680   0.488   4.867   7.139  0.3383  0.1219  0.4029
16278SOL    HW153681   0.472   4.847   7.231 -0.2577 -0.0421  0.2624
16278SOL    HW253682   0.486   4.782   7.095 -0.0277  0.2666  0.1379
16279SOL     OW53683   6.643   5.521   5.612  0.0669 -0.5965  0.4761
16279SOL    HW153684   6.577   5.452   5.602 -0.5174  0.1790 -1.5785
16279SOL    HW253685   6.727   5.475   5.603 -0.2443 -1.3023  1.0685
16280SOL     OW53686   0.839   1.612   6.441  0.9476 -0.3979  0.5179
16280SOL    HW153687   0.756   1.639   6.403  1.8783  0.8007 -0.7917
16280SOL    HW253688   0.836   1.646   6.531 -0.0433 -0.5283  0.5419
16281SOL     OW53689   9.518   7.799   3.484  0.3937 -0.2489 -0.4985
16281SOL    HW153690   9.608   7.810   3.515  1.7207 -1.7813 -3.3898
16281SOL    HW253691   9.508   7.863   3.414 -1.2692  0.7503  0.5743
16282SOL     OW53692   4.560   8.064   3.510 -0.2501  0.2161 -0.0062
16282SOL    HW153693   4.527   8.108   3.431 -0.9020 -0.9297 -0.3922
16282SOL    HW253694   4.526   7.975   3.504  1.2830 -0.4475  0.6022
16283SOL     OW53695   5.243   1.901   4.862  0.0046  0.1108 -0.5858
16283SOL    HW153696   5.309   1.937   4.803 -1.3905  1.7484 -1.2451
16283SOL    HW253697   5.170   1.876   4.806 -0.4463 -0.4766  0.2300
16284SOL     OW53698   3.953   7.971   7.706  0.0155 -0.8919 -0.4239
16284SOL    HW153699   3.920   7.942   7.620  0.0235  0.2776 -0.8310
16284SOL    HW253700   3.961   8.066   7.698 -1.0892 -0.6268  1.2758
16285SOL     OW53701   2.236   6.315   6.465  0.0642 -0.1824  0.2056
16285SOL    HW153702   2.290   6.369   6.407 -1.6685  0.3988 -0.9633
16285SOL    HW253703   2.260   6.225   6.444  0.1438  0.0546 -0.7471
16286SOL     OW53704   5.284   1.015   6.816  0.5701 -0.6194  0.2809
16286SOL    HW153705   5.231   0.995   6.894  2.3972  0.5143  1.9174
16286SOL    HW253706   5.331   0.934   6.798 -0.2278 -1.0396  0.0176
16287SOL     OW53707   1.454   8.690   2.630  0.3549  0.2718 -0.3023
16287SOL    HW153708   1.391   8.760   2.614  0.3290  0.2544 -0.2760
16287SOL    HW253709   1.420   8.615   2.581  0.1209  0.1332  0.0698
16288SOL     OW53710   1.602   3.984   6.860  0.2127 -0.1704  0.4436
16288SOL    HW153711   1.612   3.892   6.835  1.5230 -0.4054  1.7084
16288SOL    HW253712   1.533   4.017   6.802 -1.9386 -2.5319  1.4402
16289SOL     OW53713   7.667   1.254   5.771  0.1279  0.1627  0.2220
16289SOL    HW153714   7.677   1.207   5.854 -0.6573 -0.6323 -0.1204
16289SOL    HW253715   7.634   1.188   5.710 -0.6117  1.0694 -0.3713
16290SOL     OW53716   6.662   5.145   7.950  0.6551  0.2807  0.1728
16290SOL    HW153717   6.653   5.077   8.017  2.3923  1.0064  1.2182
16290SOL    HW253718   6.573   5.169   7.927 -0.0423 -2.3701 -0.2890
16291SOL     OW53719   5.585   7.695   3.782  0.0790  0.2836 -0.0501
16291SOL    HW153720   5.551   7.751   3.713 -0.7103 -2.7574 -2.3708
16291SOL    HW253721   5.510   7.677   3.838 -0.1545  0.0678 -0.4237
16292SOL     OW53722   8.146   8.318   8.829  0.3444  0.0157  0.5667
16292SOL    HW153723   8.114   8.263   8.758  1.4843  0.1354 -0.0503
16292SOL    HW253724   8.167   8.257   8.900  0.1459 -0.1902  0.4491
16293SOL     OW53725   7.136   2.326   8.960  0.3993 -0.1020 -0.0099
16293SOL    HW153726   7.043   2.327   8.985  0.7538  0.6051  1.3625
16293SOL    HW253727   7.138   2.372   8.876 -0.4490  0.2075  0.1245
16294SOL     OW53728   4.902   4.886   8.642 -0.5369  0.3658  0.2707
16294SOL    HW153729   4.823   4.925   8.680 -2.0212 -2.1840 -0.0213
16294SOL    HW253730   4.875   4.799   8.615  2.3162 -0.4522 -0.2126
16295SOL     OW53731   8.054   9.508   5.092 -0.1852 -0.4957 -0.0076
16295SOL    HW153732   8.032   9.561   5.015 -1.2659  0.7109  1.0669
16295SOL    HW253733   8.088   9.572   5.155 -0.7715 -1.2082  1.0511
16296SOL     OW53734   1.280   3.259   6.861 -0.6065  0.8690  0.3720
16296SOL    HW153735   1.204   3.227   6.813  0.7408 -2.7820  0.4078
16296SOL    HW253736   1.244   3.296   6.941 -2.3657 -1.2314  0.6308
16297SOL     OW53737   7.544   7.966   0.362  0.2937  0.4013 -0.3756
16297SOL    HW153738   7.529   8.039   0.422 -1.7635 -0.7851  0.6613
16297SOL    HW253739   7.583   7.898   0.416  2.2518  0.7029 -1.3453
16298SOL     OW53740   1.657   0.328   4.034  0.0545 -0.3094 -1.0588
16298SOL    HW153741   1.585   0.306   4.092  0.0315  0.7699 -0.6607
16298SOL    HW253742   1.731   0.277   4.068  0.2520  0.9036  0.4379
16299SOL     OW53743   7.887   3.272   5.080 -0.1521 -0.1639  0.2439
16299SOL    HW153744   7.920   3.339   5.140  0.2543 -0.6527  0.5728
16299SOL    HW253745   7.849   3.205   5.137 -1.4317  0.2150 -0.1118
16300SOL     OW53746   8.056   1.726   1.184  0.4545  0.0177 -0.2493
16300SOL    HW153747   8.093   1.639   1.168  0.5396  0.0796 -0.3861
16300SOL    HW253748   8.110   1.762   1.254 -1.1505 -1.0477  1.6432
16301SOL     OW53749   4.881   0.097   0.062 -0.5538  0.2473  0.2970
16301SOL    HW153750   4.848   0.131  -0.022 -1.1364  1.9828  1.1770
16301SOL    HW253751   4.808   0.047   0.098 -0.8433  0.7703  0.4458
16302SOL     OW53752   6.665   3.348   7.675 -0.4444  0.0917 -0.2962
16302SOL    HW153753   6.742   3.320   7.724 -1.3885 -0.8070  0.7280
16302SOL    HW253754   6.666   3.444   7.681  0.8629  0.1241 -0.7512
16303SOL     OW53755   6.209   7.315   6.176  0.3066  0.1952 -0.2562
16303SOL    HW153756   6.194   7.374   6.250 -0.6686  0.2005 -0.4549
16303SOL    HW253757   6.143   7.339   6.112  0.0096 -0.9851 -0.4235
16304SOL     OW53758   6.674   8.893   5.500  0.2377 -0.5000 -0.2605
16304SOL    HW153759   6.606   8.838   5.538  0.3376  0.2058  1.0133
16304SOL    HW253760   6.755   8.865   5.544  0.7457 -1.1612 -1.5743
16305SOL     OW53761   3.616   8.710   7.542  0.1711 -0.6638 -0.1491
16305SOL    HW153762   3.596   8.660   7.622  0.6765 -1.0631 -0.2691
16305SOL    HW253763   3.599   8.801   7.566 -0.2035 -0.8337  0.2490
16306SOL     OW53764   7.161   0.711   8.683 -0.1436 -0.4273  0.7570
16306SOL    HW153765   7.214   0.790   8.693 -0.4136  0.2413 -2.1320
16306SOL    HW253766   7.074   0.736   8.714  0.1593 -0.1334  1.3842
16307SOL     OW53767   2.273   5.372   0.408  0.4572 -0.1436 -0.2432
16307SOL    HW153768   2.222   5.292   0.400 -1.4358  1.0448 -0.9854
16307SOL    HW253769   2.253   5.421   0.328 -0.4603  2.1200  1.2558
16308SOL     OW53770   2.773   5.467   8.663 -0.1567  0.3894  0.7855
16308SOL    HW153771   2.833   5.417   8.608 -0.9353  0.4766 -0.1772
16308SOL    HW253772   2.771   5.420   8.746 -0.6921 -1.0672 -0.0214
16309SOL     OW53773   1.220   7.423   0.355  1.0818 -0.2633 -0.1181
16309SOL    HW153774   1.149   7.426   0.292  1.0078 -1.7490 -0.1587
16309SOL    HW253775   1.182   7.382   0.433  1.5865  0.0077  0.2803
16310SOL     OW53776   3.528   4.043   3.638 -0.5358  0.7986  0.0153
16310SOL    HW153777   3.455   4.031   3.577 -0.5839 -2.8515  0.5413
16310SOL    HW253778   3.488   4.028   3.724  0.3497  1.3639  0.5291
16311SOL     OW53779   9.700   1.940   5.038  0.0209 -0.1456 -0.2929
16311SOL    HW153780   9.605   1.938   5.051  0.0716 -2.0026 -0.0205
16311SOL    HW253781   9.735   1.976   5.119 -0.4417  0.5393 -0.3914
16312SOL     OW53782   6.478   7.814   3.046 -0.0955  0.0453 -0.3371
16312SOL    HW153783   6.461   7.876   3.117 -0.3407  0.2704 -0.5871
16312SOL    HW253784   6.508   7.870   2.974 -0.8860 -0.0605 -0.7565
16313SOL     OW53785   2.651   9.012   6.255 -0.3882 -0.1172  0.2364
16313SOL    HW153786   2.667   9.054   6.340  2.2298  0.9726 -0.6866
16313SOL    HW253787   2.616   9.081   6.200  2.8006  0.7567 -0.9399
16314SOL     OW53788   9.662   8.934   6.509 -0.0998 -0.4284 -0.3690
16314SOL    HW153789   9.595   8.956   6.574  0.3452  2.6316 -0.8013
16314SOL    HW253790   9.612   8.910   6.431 -0.6667 -0.3183 -0.0481
16315SOL     OW53791   4.666   2.954   1.134  0.5749  0.6326 -0.5115
16315SOL    HW153792   4.707   3.003   1.205  2.4645 -0.7920 -0.5472
16315SOL    HW253793   4.739   2.919   1.083 -0.7261  0.3760 -2.2993
16316SOL     OW53794   0.192   3.911   0.334 -0.1288  0.4075 -0.4263
16316SOL    HW153795   0.209   3.817   0.346  1.1740  0.5754 -0.7971
16316SOL    HW253796   0.216   3.951   0.417  0.2950  0.5160 -0.5947
16317SOL     OW53797   7.885   5.000   9.534  0.1257  0.0469 -0.3148
16317SOL    HW153798   7.904   5.053   9.457 -0.4844 -1.7876 -1.7943
16317SOL    HW253799   7.957   4.938   9.539 -0.0490 -0.1080  0.3580
16318SOL     OW53800   1.423   7.226   0.285 -0.0115 -0.1803 -0.6839
16318SOL    HW153801   1.432   7.260   0.196  1.5162  1.3699  0.0054
16318SOL    HW253802   1.355   7.280   0.325  0.7232  0.4978 -0.3214
16319SOL     OW53803   8.868   4.227   4.111 -0.0996 -0.1951  0.0623
16319SOL    HW153804   8.852   4.194   4.023 -1.3098 -0.5956  0.4225
16319SOL    HW253805   8.960   4.255   4.109  0.5622 -2.2468 -0.6835
16320SOL     OW53806   0.819   3.133   5.393 -0.5346 -0.6849  0.0533
16320SOL    HW153807   0.875   3.193   5.343  0.8085 -1.2744  0.7744
16320SOL    HW253808   0.860   3.047   5.380 -0.7702 -0.9980  1.3141
16321SOL     OW53809   1.657   9.592   5.975 -0.3329  0.7381  0.3887
16321SOL    HW153810   1.679   9.639   6.056  2.6967 -0.2943  0.2966
16321SOL    HW253811   1.674   9.500   5.995  0.6023  0.4652 -1.4014
16322SOL     OW53812   8.718   0.316   2.189  0.1789 -0.1297  0.4623
16322SOL    HW153813   8.791   0.345   2.135 -0.2506  0.0939 -0.0086
16322SOL    HW253814   8.758   0.287   2.271  0.8380 -0.4625  0.0298
16323SOL     OW53815   5.662   0.656   5.344  0.3434  0.0965 -0.5735
16323SOL    HW153816   5.675   0.699   5.260  3.6927  0.9630  0.2546
16323SOL    HW253817   5.686   0.564   5.328 -0.5052 -0.0873 -0.8595
16324SOL     OW53818   4.301   1.985   1.171  0.1467  0.4675 -0.2179
16324SOL    HW153819   4.214   2.020   1.189 -0.7773 -1.2429 -1.0334
16324SOL    HW253820   4.290   1.890   1.176  1.1188  0.0066 -3.6148
16325SOL     OW53821   5.759   7.359   2.661  0.6307 -0.2269  0.4230
16325SOL    HW153822   5.755   7.285   2.722  2.5196 -2.8062 -2.3138
16325SOL    HW253823   5.787   7.433   2.714 -0.6292 -1.5941  3.1758
16326SOL     OW53824   4.691   2.127   0.826  0.1040 -0.1970 -0.2873
16326SOL    HW153825   4.650   2.159   0.906 -0.0411 -0.1017 -0.3991
16326SOL    HW253826   4.757   2.064   0.856  1.3544  1.2030  0.0188
16327SOL     OW53827   7.282   6.975   3.368  0.1997 -0.2410  0.4306
16327SOL    HW153828   7.376   6.994   3.359  0.0672 -0.0130 -0.6974
16327SOL    HW253829   7.276   6.880   3.358  0.3407 -0.2981  0.8603
16328SOL     OW53830   0.767   1.287   9.245  0.1841  0.3536 -0.0487
16328SOL    HW153831   0.852   1.315   9.278  0.3393  1.2509 -1.1286
16328SOL    HW253832   0.746   1.351   9.177 -1.4512  0.2748  0.3338
16329SOL     OW53833   3.429   9.271   5.936 -1.4003  0.2233  0.1225
16329SOL    HW153834   3.360   9.335   5.950 -0.4386  1.0867  1.0457
16329SOL    HW253835   3.461   9.250   6.023 -1.0706 -0.8229 -0.2308
16330SOL     OW53836   3.283   1.684   2.011 -0.1231  0.6101 -0.0991
16330SOL    HW153837   3.309   1.592   2.015 -2.1469 -0.0145  0.0525
16330SOL    HW253838   3.257   1.698   1.920 -0.5770  0.7971  0.0568
16331SOL     OW53839   2.466   7.635   5.195  0.0871  0.5219 -0.1942
16331SOL    HW153840   2.560   7.628   5.182 -0.1145 -0.4179 -1.3668
16331SOL    HW253841   2.429   7.572   5.133 -1.3128  0.9241  0.2020
16332SOL     OW53842   9.262   8.226   7.892 -0.1205  0.1351 -0.3643
16332SOL    HW153843   9.292   8.136   7.906 -0.6646  0.2952  2.4642
16332SOL    HW253844   9.178   8.216   7.847 -0.6084 -0.8613  0.7104
16333SOL     OW53845   9.551   2.993   7.928  0.0102  0.3652  0.3582
16333SOL    HW153846   9.501   2.934   7.985 -0.0522 -0.6133 -0.6734
16333SOL    HW253847   9.508   3.077   7.938 -0.8816 -0.1130  0.6871
16334SOL     OW53848   5.608   8.411   0.611 -0.0829  0.9402 -0.1687
16334SOL    HW153849   5.608   8.503   0.637 -0.7642  0.6437  0.9677
16334SOL    HW253850   5.699   8.392   0.588  0.5743  1.2691  1.9571
16335SOL     OW53851   2.957   8.444   3.994  0.5827  0.2661 -0.3314
16335SOL    HW153852   2.991   8.528   3.963  1.0570  1.3850  2.8880
16335SOL    HW253853   3.033   8.386   3.996  1.0561  0.9165  1.0142
16336SOL     OW53854   2.679   0.238   1.125  0.0929  1.0989  0.4871
16336SOL    HW153855   2.586   0.229   1.145  0.3722 -1.5374  1.0244
16336SOL    HW253856   2.682   0.251   1.030 -0.7892 -1.1021  0.1026
16337SOL     OW53857   3.707   1.072   9.369  0.1153 -0.3213  0.2330
16337SOL    HW153858   3.785   1.111   9.331  1.0116 -0.5478  1.7597
16337SOL    HW253859   3.669   1.142   9.423 -1.0574 -0.0445 -0.8987
16338SOL     OW53860   4.433   7.461   1.013  0.2452 -0.0944  0.3687
16338SOL    HW153861   4.472   7.547   1.004  4.1584 -1.4366  2.2566
16338SOL    HW253862   4.420   7.450   1.108 -2.0613 -0.9270  0.0375
16339SOL     OW53863   1.777   1.968   0.816 -0.4490  0.6056  0.4454
16339SOL    HW153864   1.745   2.017   0.741 -0.0887  1.1519  0.6392
16339SOL    HW253865   1.819   1.890   0.779  1.1831  1.6613 -0.0572
16340SOL     OW53866   6.534   0.003   9.241  0.0944 -0.1544 -0.3808
16340SOL    HW153867   6.526   0.061   9.166 -1.3251 -1.3529 -1.2144
16340SOL    HW253868   6.598  -0.063   9.214  2.3543  1.3791  0.8757
16341SOL     OW53869   5.417   6.798   3.822 -0.0377  0.1352  0.1199
16341SOL    HW153870   5.496   6.848   3.843 -0.9623  2.1605 -0.8906
16341SOL    HW253871   5.404   6.814   3.728 -1.2176 -0.7988  0.1120
16342SOL     OW53872   5.264   1.728   2.068 -0.2589  0.1328  0.1969
16342SOL    HW153873   5.358   1.723   2.056 -0.3527  1.1317 -1.1548
16342SOL    HW253874   5.228   1.732   1.979 -1.6330 -1.0029  0.6577
16343SOL     OW53875   3.885   4.000   8.193 -0.1059 -0.0949  0.1793
16343SOL    HW153876   3.844   3.953   8.266 -0.0938  1.4727  1.2503
16343SOL    HW253877   3.839   4.083   8.189 -1.0824 -0.6674 -2.5916
16344SOL     OW53878   2.476   6.907   8.523  0.3876 -0.2441  0.1472
16344SOL    HW153879   2.430   6.868   8.597  0.0711 -0.2746 -0.0623
16344SOL    HW253880   2.502   6.832   8.469 -2.0490 -0.1212 -1.3339
16345SOL     OW53881   2.751   9.054   2.336 -0.4666 -0.3280  0.0650
16345SOL    HW153882   2.752   9.147   2.359 -0.1197 -0.6341  1.3971
16345SOL    HW253883   2.713   9.050   2.248 -1.1237  1.0004  0.2834
16346SOL     OW53884   6.485   3.617   3.532  0.9235 -0.6989 -0.1355
16346SOL    HW153885   6.454   3.526   3.540 -1.9422  0.2437  0.9946
16346SOL    HW253886   6.444   3.648   3.450  1.2634 -0.2156 -0.1213
16347SOL     OW53887   2.080   7.492   9.360  0.3857  0.0910  0.3962
16347SOL    HW153888   1.994   7.453   9.350  0.5307 -0.2848  0.5733
16347SOL    HW253889   2.080   7.531   9.448  0.2750  0.4087  0.2578
16348SOL     OW53890   3.141   8.106   0.277 -0.0091 -0.1896  0.3762
16348SOL    HW153891   3.203   8.045   0.237 -0.3801  0.0200 -0.5316
16348SOL    HW253892   3.071   8.116   0.212 -1.6148 -1.3350  1.8275
16349SOL     OW53893   9.217   3.490   0.625 -0.3614  0.4160 -0.3380
16349SOL    HW153894   9.152   3.522   0.562 -0.7981  2.0342  0.8850
16349SOL    HW253895   9.298   3.484   0.574 -0.5269  2.4326 -0.9281
16350SOL     OW53896   8.670   4.474   3.499 -0.1598 -0.4780 -0.0650
16350SOL    HW153897   8.582   4.495   3.531  0.0726 -1.6696  1.4796
16350SOL    HW253898   8.672   4.379   3.494  1.7460 -0.6717  2.2778
16351SOL     OW53899   9.357   5.966   4.414  0.0869  0.5293  0.4511
16351SOL    HW153900   9.415   5.897   4.445  0.2840  0.0412 -0.9383
16351SOL    HW253901   9.410   6.015   4.350 -1.4198 -0.8370 -1.9827
16352SOL     OW53902   7.864   9.143   5.017 -0.3607  0.7685  0.1709
16352SOL    HW153903   7.882   9.187   4.934  1.4452 -0.9461 -0.4276
16352SOL    HW253904   7.779   9.100   5.003  0.1218  0.1327 -1.0018
16353SOL     OW53905   2.088   3.993   5.247  0.6628 -0.4089  0.5181
16353SOL    HW153906   2.099   4.045   5.168  1.1844 -0.5706  0.4809
16353SOL    HW253907   1.994   3.977   5.252  0.4461  0.7995  0.6988
16354SOL     OW53908   5.954   0.865   0.410 -0.6775 -0.1037  0.0415
16354SOL    HW153909   5.890   0.936   0.405 -0.3266  0.1952 -0.2192
16354SOL    HW253910   5.947   0.822   0.325 -1.4399 -0.8692  0.4714
16355SOL     OW53911   5.164   1.020   5.140  1.0327  0.0920 -0.1169
16355SOL    HW153912   5.086   1.073   5.152 -0.8111 -2.4856  0.1293
16355SOL    HW253913   5.213   1.031   5.222  0.5652  1.1771  0.0327
16356SOL     OW53914   4.806   7.105   5.468  0.1000 -0.3642 -0.3182
16356SOL    HW153915   4.864   7.182   5.463 -1.4249  0.7890 -1.4568
16356SOL    HW253916   4.846   7.041   5.410  2.1169 -0.9988  1.6744
16357SOL     OW53917   8.910   2.007   0.111 -0.6854 -0.0849  0.0933
16357SOL    HW153918   8.943   1.938   0.053  1.5493  1.2833 -0.3661
16357SOL    HW253919   8.974   2.012   0.182 -2.6743 -0.8068  2.0332
16358SOL     OW53920   3.959   1.870   0.672  0.3066  0.5247 -0.1969
16358SOL    HW153921   3.901   1.797   0.690  0.7112  0.5859  1.4804
16358SOL    HW253922   4.032   1.831   0.623 -1.0234  0.4421 -2.2699
16359SOL     OW53923   8.030   9.164   6.530 -0.4501 -0.3673 -0.4583
16359SOL    HW153924   8.115   9.203   6.551 -1.0985  1.5766 -1.2114
16359SOL    HW253925   8.050   9.098   6.464  0.5151 -0.2601 -0.2949
16360SOL     OW53926   0.216   5.945   4.354 -0.3272 -0.1052 -0.2165
16360SOL    HW153927   0.247   5.860   4.384  0.5380 -0.3332 -1.6665
16360SOL    HW253928   0.120   5.936   4.353 -0.2389 -1.2199 -0.7480
16361SOL     OW53929   5.246   3.839   6.243  0.6445 -0.0812 -0.4311
16361SOL    HW153930   5.327   3.790   6.230  0.5445 -0.6737  1.0222
16361SOL    HW253931   5.260   3.890   6.322  0.1433  1.0160 -1.0170
16362SOL     OW53932   9.217   1.253   6.264 -0.2066 -0.5061  0.0547
16362SOL    HW153933   9.203   1.333   6.314  0.1329  0.6165 -1.5729
16362SOL    HW253934   9.130   1.229   6.231 -0.3978 -1.1344  0.9900
16363SOL     OW53935   7.814   5.957   4.460  1.1041 -0.5200 -0.5408
16363SOL    HW153936   7.843   5.892   4.523 -1.4276 -0.5458  0.7013
16363SOL    HW253937   7.718   5.954   4.464  0.8627  2.8273 -0.8741
16364SOL     OW53938   2.972   7.671   2.447 -0.4906  0.1364 -0.8667
16364SOL    HW153939   2.889   7.716   2.435 -0.1882  1.1967  0.7036
16364SOL    HW253940   3.033   7.740   2.473  0.4333 -0.8988 -0.1863
16365SOL     OW53941   2.717   7.105   0.297 -0.1064  0.2180  0.0478
16365SOL    HW153942   2.702   7.149   0.213 -3.0657 -1.2614 -0.3235
16365SOL    HW253943   2.731   7.013   0.274 -0.9679 -0.2090  1.1725
16366SOL     OW53944   6.052   3.956   5.275 -0.3729 -0.2792 -0.6224
16366SOL    HW153945   6.123   4.009   5.313 -0.6043  0.8522 -1.7037
16366SOL    HW253946   5.975   3.977   5.328 -0.2414 -0.3214 -0.4123
16367SOL     OW53947   5.353   2.987   8.093  0.0532  0.2602 -0.3215
16367SOL    HW153948   5.384   2.955   8.009  0.6447 -1.5655  0.5432
16367SOL    HW253949   5.389   3.075   8.101 -1.1838  1.0395 -2.5515
16368SOL     OW53950   4.950   9.656   5.475  0.0810  0.0221  0.6291
16368SOL    HW153951   4.990   9.623   5.395  0.0613 -0.9294  0.9978
16368SOL    HW253952   4.912   9.740   5.450 -1.3910 -0.9932 -0.7864
16369SOL     OW53953   9.363   3.675   6.884 -0.3808  0.5278 -0.4551
16369SOL    HW153954   9.374   3.716   6.970  0.8701  0.9204 -0.7791
16369SOL    HW253955   9.449   3.684   6.843 -0.7053 -0.5077 -1.3805
16370SOL     OW53956   6.112   1.691   1.228 -0.1082 -0.0084 -0.5953
16370SOL    HW153957   6.113   1.765   1.167  1.2730  0.1913 -0.3462
16370SOL    HW253958   6.136   1.616   1.174 -0.0220 -0.0289 -0.5273
16371SOL     OW53959   6.626   9.703   8.235  0.1734 -0.4534  0.7149
16371SOL    HW153960   6.661   9.622   8.198 -0.2834 -0.5032  0.3689
16371SOL    HW253961   6.701   9.745   8.277  0.5081 -0.8492  0.5254
16372SOL     OW53962   2.688   5.622   2.468 -0.4174  0.3339 -0.5885
16372SOL    HW153963   2.652   5.586   2.549  0.2466 -0.9814 -0.8472
16372SOL    HW253964   2.711   5.712   2.490  1.7234 -0.5957  1.3676
16373SOL     OW53965   4.946   7.288   8.810  0.2423 -0.3863  0.2623
16373SOL    HW153966   4.900   7.366   8.778  0.2625  0.1366  1.4522
16373SOL    HW253967   5.038   7.312   8.806  0.2548 -0.3860  0.5144
16374SOL     OW53968   1.238   2.359   2.130  0.2322 -0.3302  0.1697
16374SOL    HW153969   1.291   2.438   2.129  1.3558 -1.0661 -1.0612
16374SOL    HW253970   1.165   2.378   2.072  0.5152 -0.2050 -0.1438
16375SOL     OW53971   8.585   7.464   1.228 -0.1386 -0.1518 -0.8281
16375SOL    HW153972   8.539   7.385   1.255 -1.2472  0.4304 -0.9462
16375SOL    HW253973   8.638   7.488   1.304 -2.8979  1.2310  0.8510
16376SOL     OW53974   6.471   3.532   1.152 -0.3552  0.3370  0.6175
16376SOL    HW153975   6.400   3.495   1.101 -0.4958  2.6136 -0.9678
16376SOL    HW253976   6.431   3.604   1.200  0.8085  1.6382 -0.2837
16377SOL     OW53977   4.859   3.346   5.495  0.2717  0.3185 -0.2341
16377SOL    HW153978   4.837   3.273   5.437  0.8913 -0.4456  0.4611
16377SOL    HW253979   4.945   3.376   5.466  0.6876 -0.2158  0.4077
16378SOL     OW53980   0.259   1.758   5.686 -0.4151  0.1303 -0.4260
16378SOL    HW153981   0.204   1.759   5.764 -1.1989  0.3838 -0.9715
16378SOL    HW253982   0.340   1.715   5.714 -1.9288 -2.8513 -0.2744
16379SOL     OW53983   5.766   1.736   0.428  0.1615  0.6254  0.3422
16379SOL    HW153984   5.793   1.645   0.421 -0.2582  0.6331 -3.3225
16379SOL    HW253985   5.847   1.786   0.425  0.2863  0.4008 -0.0664
16380SOL     OW53986   9.083   9.332   6.370 -0.3296  0.4844  0.2287
16380SOL    HW153987   9.128   9.395   6.315 -1.3768 -0.4244 -1.7520
16380SOL    HW253988   8.994   9.367   6.378 -0.0991  0.8279  1.7810
16381SOL     OW53989   9.731   1.613   3.481 -0.1865 -0.7415  0.0876
16381SOL    HW153990   9.642   1.637   3.506 -0.1387 -0.4949  0.0220
16381SOL    HW253991   9.729   1.518   3.477  0.2222 -0.9060  2.5840
16382SOL     OW53992   5.796   5.307   0.383  0.0677 -0.4225 -0.0319
16382SOL    HW153993   5.855   5.238   0.414  0.3517 -0.6078 -0.9336
16382SOL    HW253994   5.774   5.280   0.294 -1.5487 -0.4502  0.3476
16383SOL     OW53995   1.016   6.362   8.074 -1.1466  0.2016  0.1557
16383SOL    HW153996   0.924   6.366   8.100 -1.6700 -1.2603 -1.3279
16383SOL    HW253997   1.049   6.281   8.112  0.0904  1.5369  2.1665
16384SOL     OW53998   7.348   5.903   5.909 -0.1880 -0.0401  0.2076
16384SOL    HW153999   7.316   5.820   5.873  2.3465 -0.8106 -0.5406
16384SOL    HW254000   7.281   5.967   5.886 -1.9696 -1.7675  0.3367
16385SOL     OW54001   4.915   3.962   0.803  0.6247  0.1140 -0.1499
16385SOL    HW154002   4.927   3.881   0.754  0.9850  0.7228 -1.0821
16385SOL    HW254003   4.921   3.935   0.895  0.8264 -0.8982 -0.4454
16386SOL     OW54004   2.969   5.059   9.732 -0.1590 -0.1637  0.0356
16386SOL    HW154005   3.019   5.116   9.674 -0.9862  0.4086 -0.1373
16386SOL    HW254006   2.907   5.013   9.674 -0.7626  0.1637  0.4084
16387SOL     OW54007   6.414   2.138   4.712  0.3543 -0.5387  0.2671
16387SOL    HW154008   6.363   2.082   4.653  1.5043 -0.7475 -0.5680
16387SOL    HW254009   6.403   2.099   4.798  1.6377 -2.4681 -0.3848
16388SOL     OW54010   1.835   2.019   6.199  0.0549 -0.6409  0.2899
16388SOL    HW154011   1.756   2.015   6.147 -0.2971  0.0178  0.7484
16388SOL    HW254012   1.830   2.104   6.243  0.0507 -1.4016  1.8330
16389SOL     OW54013   9.473   5.126   1.777  0.0655  0.4065 -0.5480
16389SOL    HW154014   9.427   5.061   1.829 -0.7471  1.7642  0.4826
16389SOL    HW254015   9.559   5.086   1.760 -1.2108 -1.9466 -2.0710
16390SOL     OW54016   6.899   6.879   8.836  0.3652 -0.2824 -0.4190
16390SOL    HW154017   6.934   6.835   8.914  0.0007 -1.3335 -0.8239
16390SOL    HW254018   6.839   6.815   8.798 -1.0721  1.0216 -0.4171
16391SOL     OW54019   4.710   1.055   4.280 -0.0654 -0.3705  0.4491
16391SOL    HW154020   4.627   1.095   4.254 -0.2087 -0.9844 -0.0630
16391SOL    HW254021   4.755   1.039   4.197  0.6110  0.0483  0.7275
16392SOL     OW54022   3.704   6.843   8.601 -0.2491  0.5858 -0.0661
16392SOL    HW154023   3.641   6.900   8.556  1.3499  2.2126 -0.3681
16392SOL    HW254024   3.681   6.852   8.694 -0.7554  0.7810 -0.2042
16393SOL     OW54025   4.869   4.162   8.025 -0.2641  0.3792  1.1184
16393SOL    HW154026   4.780   4.196   8.023 -0.7408 -0.8193  0.6482
16393SOL    HW254027   4.903   4.188   8.111  0.3941  4.2475 -0.1232
16394SOL     OW54028   4.056   5.952   9.473 -0.0484  0.1829 -0.7463
16394SOL    HW154029   3.989   5.961   9.541  1.8349  0.1471  1.2127
16394SOL    HW254030   4.049   6.032   9.422 -0.8599  0.6668  0.0880
16395SOL     OW54031   2.583   7.594   4.793  0.4397  0.7135 -0.5905
16395SOL    HW154032   2.669   7.611   4.831 -0.3559  0.8831  1.2405
16395SOL    HW254033   2.576   7.657   4.720  1.3348  1.6222  0.0750
16396SOL     OW54034   1.919   7.134   1.088  0.1210 -0.0488  0.4741
16396SOL    HW154035   1.842   7.083   1.116 -0.0649 -1.1266 -1.8156
16396SOL    HW254036   1.993   7.088   1.127 -0.2820  0.1758  1.5419
16397SOL     OW54037   8.200   1.274   4.057 -0.0298  0.8632  0.4017
16397SOL    HW154038   8.259   1.229   3.996 -0.1202 -1.7041  2.0708
16397SOL    HW254039   8.203   1.221   4.137 -2.6772  2.0603  1.3962
16398SOL     OW54040   1.416   6.159   3.581 -0.3727  0.1189  0.0397
16398SOL    HW154041   1.323   6.138   3.580 -0.2357 -0.4957 -0.3990
16398SOL    HW254042   1.421   6.246   3.621 -0.9878 -0.5389  1.6149
16399SOL     OW54043   0.178   1.197   5.072  0.0277 -0.0830  0.0403
16399SOL    HW154044   0.271   1.183   5.052 -0.1476 -0.6051 -0.4073
16399SOL    HW254045   0.177   1.216   5.166  0.4050 -1.9493  0.4611
16400SOL     OW54046   1.736   7.084   8.759  0.1278 -0.3473  0.0954
16400SOL    HW154047   1.779   7.129   8.687  2.6739 -4.3932 -1.2242
16400SOL    HW254048   1.676   7.022   8.717  0.9869 -2.1503  1.3765
16401SOL     OW54049   5.744   4.774   5.668  0.3956  0.4713  0.1586
16401SOL    HW154050   5.656   4.797   5.697  0.7214 -0.6788  2.2502
16401SOL    HW254051   5.739   4.777   5.572 -2.1196 -0.2859  0.1912
16402SOL     OW54052   5.212   0.401   6.958 -0.3213  0.3481  0.1928
16402SOL    HW154053   5.185   0.477   6.907 -3.2904 -1.4190 -1.1635
16402SOL    HW254054   5.156   0.404   7.036 -0.1344 -0.2072  0.3535
16403SOL     OW54055   1.566   3.552   8.172 -0.1711  0.2894 -0.0476
16403SOL    HW154056   1.554   3.470   8.220 -1.1564 -1.0086 -2.3420
16403SOL    HW254057   1.661   3.556   8.157 -0.2418 -1.2591 -1.1806
16404SOL     OW54058   7.839   2.182   3.823  0.2208  0.5454 -0.0721
16404SOL    HW154059   7.804   2.253   3.876  0.8432  0.0031  1.0991
16404SOL    HW254060   7.764   2.126   3.805  0.3434 -0.4411  2.1568
16405SOL     OW54061   9.034   5.570   2.163 -0.3704 -0.0502 -0.1475
16405SOL    HW154062   9.021   5.486   2.206  0.0756 -0.6187 -1.1079
16405SOL    HW254063   9.059   5.630   2.234 -1.8512 -0.4257  0.7348
16406SOL     OW54064   2.836   6.749   5.444 -0.1052  0.1873 -0.0201
16406SOL    HW154065   2.864   6.834   5.478 -1.1002  1.3039 -1.8335
16406SOL    HW254066   2.752   6.732   5.487  0.0655  0.1363  0.2970
16407SOL     OW54067   7.906   4.992   6.909  0.3891  0.4749  0.4438
16407SOL    HW154068   7.984   4.939   6.892 -1.2416 -1.8431 -0.3516
16407SOL    HW254069   7.937   5.082   6.901  2.8618 -0.3471 -0.3819
16408SOL     OW54070   1.417   7.100   3.512  0.0959 -0.1731 -0.1589
16408SOL    HW154071   1.370   7.174   3.474  0.9306  0.7873  0.6236
16408SOL    HW254072   1.362   7.071   3.584  0.1484  0.2122  0.0380
16409SOL     OW54073   7.285   5.999   6.858  0.2358  0.7931 -0.1945
16409SOL    HW154074   7.329   5.964   6.781 -1.9066  0.4545 -1.3293
16409SOL    HW254075   7.308   5.939   6.929 -2.1782 -2.2988 -1.7822
16410SOL     OW54076   2.886   4.697   4.044 -0.0363 -0.2921  0.1835
16410SOL    HW154077   2.945   4.686   4.119  0.4318  0.0392 -0.1270
16410SOL    HW254078   2.808   4.646   4.067 -0.3061  0.5993  1.3155
16411SOL     OW54079   8.973   2.768   6.796 -0.0509 -0.4456 -0.5939
16411SOL    HW154080   9.007   2.794   6.710 -0.6698 -1.2996 -1.1087
16411SOL    HW254081   8.928   2.846   6.828 -0.5458 -0.3721 -1.4328
16412SOL     OW54082   5.863   1.702   2.912  0.5493 -0.0349 -0.2286
16412SOL    HW154083   5.807   1.631   2.944  1.9168 -1.3891 -0.7077
16412SOL    HW254084   5.884   1.753   2.990 -1.3670  0.5640 -0.0481
16413SOL     OW54085   8.547   0.964   3.046 -1.0991  0.7282  0.3753
16413SOL    HW154086   8.585   0.940   2.962  0.1356  0.2078  1.0502
16413SOL    HW254087   8.569   1.057   3.057  1.1312  0.1625  1.2854
16414SOL     OW54088   0.010   6.064   4.982  0.5291 -0.0360 -0.0312
16414SOL    HW154089  -0.008   6.158   4.982  0.2866 -0.0734  0.9980
16414SOL    HW254090   0.103   6.057   5.004  0.8208 -0.0097 -1.1787
16415SOL     OW54091   9.111   6.637   6.278  0.1374  0.0431  0.1865
16415SOL    HW154092   9.204   6.661   6.279  0.6695 -1.8635  0.8731
16415SOL    HW254093   9.072   6.692   6.346  1.0413 -0.0638  0.8234
16416SOL     OW54094   5.646   8.949   0.522 -0.4622 -0.3504 -0.2393
16416SOL    HW154095   5.699   9.029   0.519 -1.8737  0.7608  1.9658
16416SOL    HW254096   5.707   8.878   0.503  1.4003  1.0271  0.3970
16417SOL     OW54097   3.058   6.586   5.458  0.0034 -0.1137 -0.2190
16417SOL    HW154098   2.970   6.621   5.472 -0.1885 -0.1892 -1.1273
16417SOL    HW254099   3.059   6.562   5.365  0.5906 -1.2118  0.0536
16418SOL     OW54100   0.614   5.901   7.244 -0.0302  0.0439 -0.7329
16418SOL    HW154101   0.551   5.962   7.282  1.3066 -0.1960  2.1308
16418SOL    HW254102   0.561   5.826   7.217 -1.3480  1.2904 -1.8399
16419SOL     OW54103   3.755   6.577   1.421 -0.7556 -0.1164 -0.1906
16419SOL    HW154104   3.669   6.535   1.418  0.5704 -3.0650 -0.4032
16419SOL    HW254105   3.788   6.569   1.331  0.0227  0.3794  0.0430
16420SOL     OW54106   8.962   5.742   0.389 -0.2206  0.2470 -0.8492
16420SOL    HW154107   8.951   5.782   0.302 -2.7330 -0.0923 -0.7558
16420SOL    HW254108   9.007   5.659   0.371 -0.6904  0.1837 -1.8538
16421SOL     OW54109   7.391   2.991   1.866 -0.1512  0.0117  0.7674
16421SOL    HW154110   7.486   3.002   1.867 -0.2550  1.1030  1.9867
16421SOL    HW254111   7.376   2.907   1.910  0.3294 -1.6417 -1.9858
16422SOL     OW54112   4.876   5.311   1.376  0.6086 -0.1435 -0.4887
16422SOL    HW154113   4.957   5.262   1.360  1.3771  0.4018  1.4266
16422SOL    HW254114   4.820   5.250   1.424 -0.0503 -0.4407 -1.6057
16423SOL     OW54115   2.333   0.705   1.671  0.2689 -0.4116 -0.6096
16423SOL    HW154116   2.331   0.717   1.766  0.3042 -0.5283 -0.5929
16423SOL    HW254117   2.257   0.649   1.653  0.4291 -0.6266 -0.6143
16424SOL     OW54118   8.511   8.376   5.939  0.0178 -0.6355 -0.3851
16424SOL    HW154119   8.503   8.283   5.921 -0.3068 -0.9976  1.4029
16424SOL    HW254120   8.592   8.403   5.895  1.7656 -2.4491  1.5115
16425SOL     OW54121   0.514   3.785   6.726 -0.5446 -0.1586  0.0888
16425SOL    HW154122   0.456   3.751   6.658  1.0881  0.8141 -1.8891
16425SOL    HW254123   0.533   3.874   6.699  1.9242 -0.4761  0.5909
16426SOL     OW54124   0.536   1.620   6.377 -0.2962  0.6554 -0.4083
16426SOL    HW154125   0.549   1.620   6.283  1.1017  0.9969 -0.2341
16426SOL    HW254126   0.486   1.540   6.395  0.7174 -0.1988 -1.2779
16427SOL     OW54127   4.712   5.271   1.167 -0.2101  0.3360  0.4223
16427SOL    HW154128   4.789   5.273   1.225 -0.2166  0.5048  0.4248
16427SOL    HW254129   4.641   5.242   1.223 -0.1814  0.3386  0.4604
16428SOL     OW54130   9.069   9.050   5.016 -0.1267 -0.1323  0.0799
16428SOL    HW154131   9.085   9.138   5.048 -0.3820  0.7545 -2.0352
16428SOL    HW254132   9.120   9.045   4.935 -0.0366 -1.9769  0.2109
16429SOL     OW54133   8.492   7.111   0.236  0.6038 -0.2137  0.4617
16429SOL    HW154134   8.559   7.161   0.282 -0.0407  0.9076  0.2258
16429SOL    HW254135   8.516   7.120   0.143  0.6545 -0.6136  0.4330
16430SOL     OW54136   6.142   4.999   1.899  0.8508 -0.7474  0.0712
16430SOL    HW154137   6.219   4.996   1.841  0.6264 -2.7268 -0.1974
16430SOL    HW254138   6.179   5.012   1.986  1.4712 -1.2266 -0.1069
16431SOL     OW54139   4.642   7.852   0.158 -0.6126  0.1314 -0.8152
16431SOL    HW154140   4.551   7.882   0.151 -1.7065 -1.9239  2.2143
16431SOL    HW254141   4.666   7.827   0.069 -3.3741 -0.1197 -1.5905
16432SOL     OW54142   7.854   1.347   2.098 -0.2269  0.3504  0.1387
16432SOL    HW154143   7.885   1.430   2.061  0.7439  0.6945  1.6334
16432SOL    HW254144   7.820   1.370   2.184  2.4190 -1.0802  1.6929
16433SOL     OW54145   2.773   9.460   5.264 -0.0720  0.5809 -0.5022
16433SOL    HW154146   2.792   9.525   5.332 -1.3541 -0.5851  1.0327
16433SOL    HW254147   2.711   9.399   5.304 -0.6539 -0.3442 -2.6294
16434SOL     OW54148   2.692   5.936   4.756 -0.1996 -0.0046 -0.3530
16434SOL    HW154149   2.744   5.938   4.836 -0.6439 -0.4691 -0.0450
16434SOL    HW254150   2.751   5.900   4.690  0.0059 -0.1348 -0.1024
16435SOL     OW54151   4.915   0.467   5.525 -0.0229  0.1388 -0.0584
16435SOL    HW154152   4.903   0.551   5.569  0.4545  0.9402 -1.4045
16435SOL    HW254153   4.995   0.478   5.474 -0.9208 -0.5181 -1.6529
16436SOL     OW54154   3.115   1.583   8.834  0.0705  0.4066 -0.3607
16436SOL    HW154155   3.189   1.597   8.775  0.6045 -0.3433  0.0999
16436SOL    HW254156   3.107   1.666   8.882  1.9806 -0.1456  1.0490
16437SOL     OW54157   5.144   8.774   3.928 -0.1594  0.5102 -0.1245
16437SOL    HW154158   5.237   8.761   3.949 -0.4759  1.2473  1.9215
16437SOL    HW254159   5.098   8.746   4.007 -1.6762  0.5278 -0.9708
16438SOL     OW54160   0.589   3.129   3.769  0.1043  0.2448  0.4434
16438SOL    HW154161   0.546   3.177   3.698  2.4553 -0.1706 -1.3896
16438SOL    HW254162   0.682   3.130   3.745  0.7712 -1.3519  2.6916
16439SOL     OW54163   6.139   5.160   4.790 -0.6651  0.7570  0.0613
16439SOL    HW154164   6.178   5.089   4.740 -2.5844 -0.1775 -0.2086
16439SOL    HW254165   6.066   5.190   4.735 -0.1331  2.6893  0.3461
16440SOL     OW54166   9.663   7.312   3.137 -0.7827 -0.1920 -0.6602
16440SOL    HW154167   9.609   7.270   3.204  0.7143  0.9777  1.4084
16440SOL    HW254168   9.753   7.290   3.161 -0.1457  1.1693 -1.6269
16441SOL     OW54169   4.793   3.271   3.726  0.3690 -0.9314  1.0419
16441SOL    HW154170   4.840   3.201   3.772  0.6941 -0.5393  1.3107
16441SOL    HW254171   4.845   3.349   3.742  0.0564 -0.6433  0.6598
16442SOL     OW54172   6.692   7.363   5.029  0.3555  0.0463  0.1085
16442SOL    HW154173   6.715   7.446   5.072 -1.7711  1.2808 -0.9717
16442SOL    HW254174   6.682   7.386   4.936 -4.0503 -0.3641  0.2339
16443SOL     OW54175   6.438   4.060   3.647  0.6078 -0.0563  0.1400
16443SOL    HW154176   6.354   4.022   3.623 -0.1029  2.3035 -1.4951
16443SOL    HW254177   6.502   4.005   3.601 -0.0380 -1.4668  0.8514
16444SOL     OW54178   7.561   3.930   8.111  0.4489  0.0971  0.6277
16444SOL    HW154179   7.640   3.877   8.101  0.4304  0.4250 -1.7086
16444SOL    HW254180   7.535   3.952   8.022 -1.2300  1.5786  1.4226
16445SOL     OW54181   8.456   2.341   1.170 -0.2956 -0.3667 -0.2868
16445SOL    HW154182   8.423   2.361   1.257 -0.3220 -0.8330 -0.1839
16445SOL    HW254183   8.455   2.424   1.123  0.9651  0.1574  0.5667
16446SOL     OW54184   0.674   5.335   6.212  0.1647  0.8622  0.1808
16446SOL    HW154185   0.628   5.312   6.292 -0.7436  1.8921 -0.0221
16446SOL    HW254186   0.607   5.376   6.157  1.3608  2.6085 -0.0441
16447SOL     OW54187   0.665   1.356   2.281  0.1897  0.2405  0.1838
16447SOL    HW154188   0.625   1.272   2.302  1.8583 -0.3768  1.0737
16447SOL    HW254189   0.599   1.421   2.304  0.7191 -0.5273  4.6382
16448SOL     OW54190   9.411   4.865   7.549 -0.0573 -0.3889 -0.0459
16448SOL    HW154191   9.444   4.954   7.560 -0.0799  0.1261 -3.1800
16448SOL    HW254192   9.459   4.831   7.473 -2.7432 -1.6050 -1.3425
16449SOL     OW54193   6.990   4.197   9.705  0.2837  0.8173  0.0399
16449SOL    HW154194   6.925   4.129   9.722  0.5148  0.4732 -0.4300
16449SOL    HW254195   6.966   4.232   9.620  0.3624  1.0991  0.1325
16450SOL     OW54196   0.582   3.424   0.477  0.5678 -0.3632 -0.0645
16450SOL    HW154197   0.616   3.416   0.566 -0.5513  1.4879  0.5841
16450SOL    HW254198   0.491   3.396   0.484 -0.0664  1.5275 -0.1747
16451SOL     OW54199   0.786   0.937   8.421  0.0173  0.2885  0.4576
16451SOL    HW154200   0.803   0.917   8.513  1.1934 -1.1275 -0.0310
16451SOL    HW254201   0.696   0.971   8.420 -0.3154 -0.4501  2.0142
16452SOL     OW54202   1.557   7.469   2.497 -0.4776 -0.5180  0.5099
16452SOL    HW154203   1.475   7.472   2.448 -0.6209 -1.2515  0.6840
16452SOL    HW254204   1.533   7.437   2.584 -0.2808  1.1733  1.2140
16453SOL     OW54205   3.775   6.368   1.681  0.1433  0.3585 -0.5006
16453SOL    HW154206   3.768   6.317   1.600 -0.1936 -1.4865  0.6442
16453SOL    HW254207   3.744   6.456   1.656  1.4882  0.2806 -2.7154
16454SOL     OW54208   1.379   4.139   2.517  0.0708  0.7441  1.1205
16454SOL    HW154209   1.430   4.218   2.536 -0.6445  1.8679 -1.3015
16454SOL    HW254210   1.339   4.156   2.432 -2.1688 -1.2143  1.6865
16455SOL     OW54211   2.384   3.267   7.138 -0.4563  0.2970 -0.3399
16455SOL    HW154212   2.414   3.243   7.050  3.3887  0.0408  0.8390
16455SOL    HW254213   2.375   3.184   7.184 -2.3171  0.4402 -0.3634
16456SOL     OW54214   0.629   5.280   4.028 -0.3717  0.3563 -0.4060
16456SOL    HW154215   0.721   5.263   4.005 -0.7607 -1.0956 -0.9930
16456SOL    HW254216   0.631   5.363   4.076  1.3841 -0.2410  0.6167
16457SOL     OW54217   9.122   6.258   1.691 -0.4821  0.4230 -0.0213
16457SOL    HW154218   9.108   6.321   1.761 -2.4159  0.7664 -0.6795
16457SOL    HW254219   9.062   6.186   1.711  2.1912 -1.6716  1.1311
16458SOL     OW54220   6.161   9.577   7.124  0.1376  0.1627 -0.0763
16458SOL    HW154221   6.148   9.595   7.217 -0.6579 -1.4987  0.1764
16458SOL    HW254222   6.099   9.506   7.105  1.3921 -0.6121 -1.4839
16459SOL     OW54223   1.074   5.144   6.713 -0.2538 -0.9360  0.0886
16459SOL    HW154224   1.038   5.163   6.800  0.0946  1.2523 -0.2064
16459SOL    HW254225   1.118   5.225   6.687 -1.4519 -1.0869 -2.6834
16460SOL     OW54226   3.749   7.658   8.259 -0.3028 -0.1300  0.1965
16460SOL    HW154227   3.811   7.588   8.243  0.2655  0.1413  1.1526
16460SOL    HW254228   3.747   7.708   8.177  0.0772 -0.6415 -0.1273
16461SOL     OW54229   3.523   3.198   9.450 -0.4702  0.2674  0.0610
16461SOL    HW154230   3.529   3.240   9.364 -0.7724 -1.6123 -0.9431
16461SOL    HW254231   3.447   3.238   9.492  1.6985  3.7946  1.0309
16462SOL     OW54232   0.913   1.733   5.962  0.0179  0.2006 -0.4415
16462SOL    HW154233   0.986   1.727   5.901 -0.3229 -0.4807 -0.7871
16462SOL    HW254234   0.908   1.647   6.003 -1.4845 -0.2404 -1.4565
16463SOL     OW54235   5.638   5.983   1.769 -0.0717  0.3797  0.3462
16463SOL    HW154236   5.631   6.070   1.731 -2.1654  0.1872  0.2007
16463SOL    HW254237   5.625   5.924   1.695 -0.8121 -0.0198  0.7792
16464SOL     OW54238   7.465   2.176   0.745  0.2023 -0.3666  0.0338
16464SOL    HW154239   7.423   2.148   0.664 -1.8833 -0.0032  0.9412
16464SOL    HW254240   7.540   2.116   0.754  1.1128  0.2020 -2.6018
16465SOL     OW54241   1.865   2.014   5.187  0.9030  0.2685  0.1653
16465SOL    HW154242   1.777   2.052   5.179  1.3658  1.3613  0.1907
16465SOL    HW254243   1.872   1.955   5.112  0.0121 -0.1316  0.3734
16466SOL     OW54244   0.873   2.026   3.568 -0.0208  0.0561 -0.7318
16466SOL    HW154245   0.823   1.998   3.644 -0.9042 -0.3966 -1.4586
16466SOL    HW254246   0.949   2.072   3.604 -0.3150 -0.3349  0.4142
16467SOL     OW54247   0.333   1.347   6.628 -0.5202  1.0756 -0.1048
16467SOL    HW154248   0.402   1.409   6.654 -0.3641  0.4942  0.9088
16467SOL    HW254249   0.289   1.390   6.554  0.8608  1.5023 -0.7110
16468SOL     OW54250   0.639   9.055   3.270 -0.0555 -0.2962  0.3096
16468SOL    HW154251   0.702   9.014   3.328  1.5458 -0.5148 -1.4736
16468SOL    HW254252   0.660   9.020   3.183 -3.2414 -1.0841 -0.2852
16469SOL     OW54253   1.056   1.222   7.443  0.0511 -0.2053 -0.0289
16469SOL    HW154254   1.113   1.159   7.400  1.3809 -1.2420  2.9442
16469SOL    HW254255   0.977   1.171   7.465 -0.1838  0.0281 -0.3253
16470SOL     OW54256   7.722   7.419   0.510  0.0519  0.2488 -0.5723
16470SOL    HW154257   7.721   7.356   0.582 -1.7043  0.2061 -0.6051
16470SOL    HW254258   7.663   7.489   0.537 -1.5364 -0.3041 -2.4022
16471SOL     OW54259   5.080   7.656   7.047 -0.1272 -0.2589  0.2001
16471SOL    HW154260   5.109   7.717   7.114  2.5542  0.1200 -1.1442
16471SOL    HW254261   4.987   7.641   7.065 -0.5764  3.1472  1.4000
16472SOL     OW54262   6.952   1.922   1.341  0.0014 -0.8602 -0.0506
16472SOL    HW154263   6.966   1.967   1.258 -0.7937 -0.2639  0.1280
16472SOL    HW254264   7.025   1.861   1.348  0.0002 -1.0162 -1.2544
16473SOL     OW54265   7.448   3.736   1.806  0.1307 -0.2591  0.2461
16473SOL    HW154266   7.430   3.725   1.712  3.5383  1.2508 -0.7534
16473SOL    HW254267   7.419   3.825   1.826  3.3181  1.1520 -0.6875
16474SOL     OW54268   6.068   1.173   1.193  0.1879  0.2019  0.2616
16474SOL    HW154269   6.086   1.179   1.099  0.9288  1.6818  0.4665
16474SOL    HW254270   5.973   1.160   1.199 -0.4363  3.4294 -0.6822
16475SOL     OW54271   3.077   3.634   2.088  0.2252  0.3620 -0.3327
16475SOL    HW154272   3.067   3.694   2.015 -0.5448  0.8112  0.1333
16475SOL    HW254273   3.168   3.645   2.116  0.1766  1.0784 -0.4502
16476SOL     OW54274   6.588   4.306   7.309 -0.4406 -0.0922  0.1869
16476SOL    HW154275   6.583   4.214   7.282 -1.4313 -0.6852  2.2296
16476SOL    HW254276   6.651   4.345   7.249 -1.0687 -1.7541 -1.6740
16477SOL     OW54277   6.835   0.608   0.353  0.1504 -0.3234  0.3825
16477SOL    HW154278   6.838   0.551   0.430  0.9516  0.1404  0.7034
16477SOL    HW254279   6.823   0.696   0.389  1.6053  0.0283  0.0594
16478SOL     OW54280   3.226   8.185   5.395  0.1067 -0.0168  0.1290
16478SOL    HW154281   3.235   8.227   5.309  0.6891  1.5447  0.9260
16478SOL    HW254282   3.155   8.121   5.383 -0.0015  0.3589 -1.4335
16479SOL     OW54283   0.290   9.444   3.571  0.4611  0.1666 -0.4838
16479SOL    HW154284   0.203   9.409   3.589  1.3276 -1.3103  1.1578
16479SOL    HW254285   0.324   9.389   3.501  0.7032 -0.3695  0.0490
16480SOL     OW54286   5.947   6.557   5.834 -0.5493 -0.5454  0.2628
16480SOL    HW154287   5.852   6.562   5.833 -0.5889 -0.9050  1.5874
16480SOL    HW254288   5.971   6.561   5.926  0.8322  1.5100 -0.1026
16481SOL     OW54289   1.603   5.745   0.246 -0.3323 -0.3496  0.8352
16481SOL    HW154290   1.687   5.789   0.231 -1.1773  1.2623  0.6301
16481SOL    HW254291   1.601   5.728   0.340 -0.8092  1.9267  1.3071
16482SOL     OW54292   9.683   9.169   2.626 -0.3873  0.0442  0.2101
16482SOL    HW154293   9.769   9.132   2.608 -0.9611 -0.7749 -0.9883
16482SOL    HW254294   9.662   9.223   2.549 -1.6243 -1.1091 -0.3089
16483SOL     OW54295   4.441   1.474   5.250 -1.0085 -0.6638 -0.3074
16483SOL    HW154296   4.355   1.498   5.285  0.3369  0.8632  2.2776
16483SOL    HW254297   4.465   1.395   5.298  0.4808  0.9504  1.7837
16484SOL     OW54298   4.904   1.558   8.130  0.5448  0.3857  0.2278
16484SOL    HW154299   4.839   1.520   8.189  0.0095 -2.1259 -1.8203
16484SOL    HW254300   4.926   1.487   8.069  3.0267  2.0447 -0.9806
16485SOL     OW54301   7.665   1.950   0.441  0.2608 -0.4985 -0.0684
16485SOL    HW154302   7.752   1.967   0.479 -0.0784  1.9050 -0.2061
16485SOL    HW254303   7.674   1.974   0.349 -0.8477  1.0154  0.1855
16486SOL     OW54304   3.553   0.870   2.169  0.4925  0.2097  0.2364
16486SOL    HW154305   3.538   0.777   2.183 -0.5980  0.4308  0.6337
16486SOL    HW254306   3.515   0.888   2.083 -0.2559  0.4784  0.6101
16487SOL     OW54307   3.448   5.443   5.677 -0.3311 -0.0444 -0.1902
16487SOL    HW154308   3.467   5.461   5.585  4.1843 -2.2182  0.0702
16487SOL    HW254309   3.483   5.520   5.723 -1.2311  0.3562 -0.1490
16488SOL     OW54310   2.484   7.077   0.868  0.2424 -0.2526  0.0552
16488SOL    HW154311   2.557   7.089   0.929 -0.8114 -1.0252  1.5535
16488SOL    HW254312   2.519   7.022   0.798  1.0303 -0.8531  0.9034
16489SOL     OW54313   6.405   7.282   6.466  0.8468  0.2202  0.4260
16489SOL    HW154314   6.434   7.361   6.510 -0.9809  1.4202 -0.4099
16489SOL    HW254315   6.404   7.304   6.373  1.9884 -1.3732 -0.0075
16490SOL     OW54316   5.276   6.046   2.533 -0.3371  0.2464  0.1403
16490SOL    HW154317   5.265   6.087   2.619 -0.7614 -0.0793  0.2422
16490SOL    HW254318   5.189   6.012   2.511 -1.0670  3.0432 -1.8262
16491SOL     OW54319   5.949   4.344   7.146 -0.2688  0.4135  0.3735
16491SOL    HW154320   5.948   4.289   7.225 -0.1912 -3.8037 -2.2289
16491SOL    HW254321   5.857   4.367   7.132 -0.6901 -1.1355  0.3499
16492SOL     OW54322   8.874   7.569   2.190  0.1442 -0.1946 -0.0433
16492SOL    HW154323   8.846   7.641   2.247 -1.2059  0.7935 -1.8548
16492SOL    HW254324   8.834   7.491   2.228 -0.1471  0.3367  0.7545
16493SOL     OW54325   8.641   7.178   2.943  0.1706 -0.3122  0.0743
16493SOL    HW154326   8.614   7.090   2.914 -2.3628 -0.1965  1.8138
16493SOL    HW254327   8.702   7.162   3.015  1.1420 -0.5886 -0.7784
16494SOL     OW54328   5.740   7.074   3.397  0.7001 -0.4526  0.1478
16494SOL    HW154329   5.707   7.130   3.467  1.0490 -0.3820  0.2589
16494SOL    HW254330   5.669   7.012   3.380  0.8175 -0.8301  0.9648
16495SOL     OW54331   5.634   6.350   2.547  0.0958 -0.2937  0.3348
16495SOL    HW154332   5.638   6.399   2.465 -0.9520 -1.0687 -0.2002
16495SOL    HW254333   5.639   6.258   2.521 -0.3394 -0.5521  1.1248
16496SOL     OW54334   9.321   3.398   9.127  0.3402  0.7668 -0.2895
16496SOL    HW154335   9.408   3.426   9.153  0.5098 -0.8211  0.9580
16496SOL    HW254336   9.331   3.307   9.101 -1.0012  0.4514  0.1984
16497SOL     OW54337   4.907   5.130   9.246  0.1797  0.0923 -0.3370
16497SOL    HW154338   4.957   5.171   9.176  1.9215  0.7558  1.2328
16497SOL    HW254339   4.958   5.053   9.271 -0.6857 -0.4303 -0.1306
16498SOL     OW54340   5.231   4.491   4.637 -0.2311 -0.4810 -0.4079
16498SOL    HW154341   5.279   4.480   4.555  1.1485  4.0666 -0.5070
16498SOL    HW254342   5.293   4.462   4.705  0.9311  0.9593 -0.7924
16499SOL     OW54343   8.122   0.903   0.014 -0.1789 -0.1923 -0.2183
16499SOL    HW154344   8.199   0.959   0.003 -1.3342  1.2547 -1.4035
16499SOL    HW254345   8.052   0.963   0.041 -1.2625 -1.1955 -0.6717
16500SOL     OW54346   8.357   0.115   7.000  0.1107  0.2286  0.1798
16500SOL    HW154347   8.362   0.178   7.072 -0.6481 -0.4121  0.8065
16500SOL    HW254348   8.391   0.163   6.924 -0.5811  1.4504  0.6106
16501SOL     OW54349   4.185   4.452   9.545 -0.0462 -0.5996 -0.4548
16501SOL    HW154350   4.158   4.374   9.593  0.0670 -0.4449 -0.1380
16501SOL    HW254351   4.115   4.465   9.480 -0.7606 -0.1871  0.3832
16502SOL     OW54352   4.224   5.239   0.536 -0.3263 -0.9336 -0.0805
16502SOL    HW154353   4.256   5.234   0.446  0.6383 -0.5967  0.2301
16502SOL    HW254354   4.209   5.332   0.551 -0.0549 -0.9426  0.2527
16503SOL     OW54355   2.374   3.788   6.928 -0.7936 -0.4758  0.4432
16503SOL    HW154356   2.458   3.834   6.922 -0.2273 -1.4136  0.8731
16503SOL    HW254357   2.396   3.705   6.971 -1.4993 -1.8226 -1.6560
16504SOL     OW54358   2.270   8.445   7.999 -0.2780 -0.2180 -0.0357
16504SOL    HW154359   2.221   8.522   8.026 -0.8147 -0.9145  1.0435
16504SOL    HW254360   2.221   8.371   8.035  2.0395 -0.9254  1.9761
16505SOL     OW54361   0.855   2.820   6.228  0.7561 -0.3175 -0.1365
16505SOL    HW154362   0.832   2.832   6.136  0.6695  1.6959  0.1110
16505SOL    HW254363   0.775   2.841   6.277  1.2678  0.3190  0.4558
16506SOL     OW54364   3.574   2.244   5.781 -0.0659 -0.2103  0.9330
16506SOL    HW154365   3.498   2.227   5.726 -0.3506  0.7523  0.9995
16506SOL    HW254366   3.636   2.175   5.759 -0.5622 -0.4146  0.1321
16507SOL     OW54367   4.592   0.073   5.403  0.4598  0.4083  0.2874
16507SOL    HW154368   4.559   0.095   5.316  1.1463 -0.8711 -0.3273
16507SOL    HW254369   4.514   0.074   5.459 -0.3994 -0.9894 -0.8057
16508SOL     OW54370   0.558   9.600   5.245  0.0650  0.1638 -0.2896
16508SOL    HW154371   0.626   9.540   5.277 -0.5869  0.5005  1.8913
16508SOL    HW254372   0.607   9.668   5.199  0.9827 -0.9333 -0.9881
16509SOL     OW54373   5.527   6.163   6.640  0.2034  0.3220  0.3177
16509SOL    HW154374   5.566   6.170   6.553  1.1986 -0.2873  0.6926
16509SOL    HW254375   5.587   6.211   6.697  1.2743 -1.8510  1.1409
16510SOL     OW54376   1.641   3.036   5.320  0.9151 -0.1616  0.5484
16510SOL    HW154377   1.570   2.999   5.266  0.5651  2.0708 -0.6461
16510SOL    HW254378   1.698   2.962   5.338 -1.0009 -1.7717  0.3927
16511SOL     OW54379   4.031   0.433   8.311 -0.0786 -0.3390 -0.0350
16511SOL    HW154380   4.004   0.520   8.279 -0.8694 -0.2199  0.9099
16511SOL    HW254381   3.988   0.372   8.251  1.2412 -0.0820 -1.2807
16512SOL     OW54382   4.771   9.298   1.891 -0.2765 -0.1313  0.2989
16512SOL    HW154383   4.807   9.226   1.943 -0.0677 -0.0371  0.2878
16512SOL    HW254384   4.690   9.264   1.854 -0.3311 -0.2612  0.5374
16513SOL     OW54385   3.364   2.237   2.700  0.5031  0.1078  0.0645
16513SOL    HW154386   3.299   2.168   2.716  0.6524  0.2224  1.3024
16513SOL    HW254387   3.345   2.269   2.612 -0.1640 -0.8773 -0.1616
16514SOL     OW54388   1.830   2.250   2.205 -0.2036  0.2832  0.0971
16514SOL    HW154389   1.923   2.260   2.184 -0.1251 -0.1406  0.2389
16514SOL    HW254390   1.796   2.192   2.137 -0.5589  1.1148 -0.4599
16515SOL     OW54391   6.076   8.422   9.347  0.3183  0.1895 -0.2328
16515SOL    HW154392   6.061   8.507   9.306 -1.6917  0.1338  0.2835
16515SOL    HW254393   6.062   8.359   9.277  1.2221  0.2341 -0.4706
16516SOL     OW54394   7.819   9.332   5.793  0.4805 -0.2750 -0.5628
16516SOL    HW154395   7.903   9.292   5.770  2.0664  2.3878  0.1225
16516SOL    HW254396   7.789   9.283   5.869  0.8035 -1.9841 -1.4892
16517SOL     OW54397   2.561   2.969   0.295  0.9518 -0.4158 -0.3035
16517SOL    HW154398   2.541   3.026   0.221  1.1826 -0.0193 -0.0597
16517SOL    HW254399   2.653   2.946   0.284  0.8299 -0.8473 -0.4680
16518SOL     OW54400   7.763   8.537   5.817  0.2548  0.0781  0.0153
16518SOL    HW154401   7.851   8.569   5.838  0.6653 -0.8754 -0.2097
16518SOL    HW254402   7.709   8.616   5.816  1.3258  0.8362 -0.9476
16519SOL     OW54403   3.313   3.302   4.537 -0.7448 -0.1414 -0.0634
16519SOL    HW154404   3.261   3.290   4.616 -1.4058  2.2365 -0.0711
16519SOL    HW254405   3.260   3.261   4.468 -1.7248  0.5594  0.2434
16520SOL     OW54406   4.781   1.357   4.314  0.0875 -0.7810  0.2567
16520SOL    HW154407   4.703   1.399   4.351  0.2505  0.5102 -0.7984
16520SOL    HW254408   4.804   1.289   4.378 -1.5255 -0.7764  0.8868
16521SOL     OW54409   4.970   6.502   0.789 -0.6799 -0.2537 -0.0796
16521SOL    HW154410   4.992   6.417   0.752 -0.7947  0.2300 -1.3033
16521SOL    HW254411   5.033   6.514   0.860  0.5379 -0.5808 -1.0657
16522SOL     OW54412   2.078   4.835   3.349 -0.1937 -0.6976 -0.6331
16522SOL    HW154413   2.063   4.905   3.413 -1.8745 -1.1328 -0.5116
16522SOL    HW254414   2.170   4.811   3.362 -0.5131 -0.8840  1.7698
16523SOL     OW54415   2.294   1.022   2.917  0.7380  0.1602  0.0929
16523SOL    HW154416   2.364   1.014   2.853  0.1068 -3.3163 -0.3863
16523SOL    HW254417   2.227   1.075   2.874  1.1011 -0.5675 -1.4257
16524SOL     OW54418   5.757   5.395   1.778  0.1554 -0.6538 -0.2003
16524SOL    HW154419   5.798   5.461   1.722  0.9677 -1.1633 -0.2129
16524SOL    HW254420   5.823   5.327   1.788 -0.2735 -0.9541  0.7151
16525SOL     OW54421   9.056   6.953   2.469  0.2334  0.3001  0.1116
16525SOL    HW154422   9.083   6.887   2.533 -2.0381 -1.2484 -0.4101
16525SOL    HW254423   8.983   6.998   2.510  1.3382  2.1221  0.1844
16526SOL     OW54424   6.887   5.335   8.823  0.1806 -0.3567 -0.0586
16526SOL    HW154425   6.884   5.410   8.882  0.3375 -0.8400  0.5781
16526SOL    HW254426   6.799   5.297   8.828  0.5944 -1.2336  0.9912
16527SOL     OW54427   6.682   3.994   6.348 -0.5200 -0.2408 -0.1469
16527SOL    HW154428   6.746   4.058   6.319  0.2197 -0.7620  0.2925
16527SOL    HW254429   6.687   3.996   6.444 -0.4151 -1.0065 -0.1255
16528SOL     OW54430   5.642   8.236   6.547  0.1447  0.1001 -0.2039
16528SOL    HW154431   5.636   8.254   6.641 -0.9018  0.5097 -0.3326
16528SOL    HW254432   5.612   8.145   6.539  3.9711 -1.4002  0.2667
16529SOL     OW54433   5.888   5.086   0.507  0.1469  0.1577  0.1011
16529SOL    HW154434   5.867   5.050   0.593 -1.1833 -0.0754 -0.2852
16529SOL    HW254435   5.834   5.036   0.447 -0.5657  1.7253 -0.6310
16530SOL     OW54436   4.573   4.919   5.380 -0.1050  0.6741  0.5877
16530SOL    HW154437   4.512   4.992   5.367 -0.9525 -0.1514 -0.1632
16530SOL    HW254438   4.627   4.918   5.301 -1.2923 -0.6134 -0.2416
16531SOL     OW54439   4.289   7.784   7.752  0.3908 -0.0504  0.8581
16531SOL    HW154440   4.214   7.760   7.698  0.6198 -0.1953  0.6001
16531SOL    HW254441   4.364   7.749   7.704  0.4859 -1.4315  1.9820
16532SOL     OW54442   1.805   3.503   1.267  0.3253  0.3851  0.1767
16532SOL    HW154443   1.765   3.457   1.193 -2.0595  1.6782  0.5535
16532SOL    HW254444   1.876   3.554   1.227 -0.9050  1.0606 -1.2875
16533SOL     OW54445   9.637   4.908   3.479 -0.2031 -0.1692  0.1256
16533SOL    HW154446   9.721   4.953   3.479 -0.2579  0.0667  2.5527
16533SOL    HW254447   9.640   4.851   3.556 -2.1969 -0.2667  0.1886
16534SOL     OW54448   4.249   7.910   4.701  0.8519  0.1525  0.2450
16534SOL    HW154449   4.251   7.879   4.610 -0.0660  1.1541 -0.1343
16534SOL    HW254450   4.317   7.977   4.706 -0.1488  1.2259 -0.1504
16535SOL     OW54451   9.216   1.107   4.674  0.0946 -0.3392  0.2233
16535SOL    HW154452   9.238   1.143   4.588 -0.7820  1.7619  0.8033
16535SOL    HW254453   9.229   1.181   4.734 -2.1911 -0.8546  1.4544
16536SOL     OW54454   4.699   6.672   3.407  0.2079 -0.1434  0.0739
16536SOL    HW154455   4.681   6.765   3.422  1.7688  0.1046  0.6733
16536SOL    HW254456   4.632   6.626   3.458 -1.2311  0.6106 -1.0628
16537SOL     OW54457   2.163   0.357   3.222  0.0704 -0.2586 -0.3558
16537SOL    HW154458   2.258   0.364   3.225 -0.0231  0.7357  0.5290
16537SOL    HW254459   2.132   0.447   3.219 -0.8853 -0.5101  0.9696
16538SOL     OW54460   7.239   7.780   3.611 -0.2027  0.1153 -0.6865
16538SOL    HW154461   7.173   7.721   3.574 -0.8219  0.4578 -0.1535
16538SOL    HW254462   7.315   7.770   3.554 -0.5736 -0.5982 -1.0679
16539SOL     OW54463   7.594   3.004   0.881 -0.2048 -0.3288 -0.4890
16539SOL    HW154464   7.562   3.011   0.970 -0.1779 -2.7385 -0.2131
16539SOL    HW254465   7.544   3.069   0.832 -0.2697  0.9856  1.2445
16540SOL     OW54466   7.344   2.781   7.474 -0.2228  0.3496 -0.7879
16540SOL    HW154467   7.435   2.808   7.487 -0.7794  1.9623  0.0413
16540SOL    HW254468   7.349   2.686   7.462  1.5669  0.4129 -0.8697
16541SOL     OW54469   0.491   4.554   4.266 -0.4676 -0.0153  0.2370
16541SOL    HW154470   0.395   4.552   4.265 -0.6236 -1.9783 -4.0735
16541SOL    HW254471   0.514   4.625   4.207  0.8359  1.0016  1.8967
16542SOL     OW54472   9.386   3.770   0.740  0.6976 -0.1995  0.3124
16542SOL    HW154473   9.417   3.695   0.690  2.6923  0.9022 -0.1948
16542SOL    HW254474   9.401   3.746   0.831  1.7165 -0.2768  0.1365
16543SOL     OW54475   3.571   1.882   3.949 -0.0113 -0.1069  0.1236
16543SOL    HW154476   3.492   1.832   3.928  0.0789 -1.3484  2.4742
16543SOL    HW254477   3.543   1.946   4.014  0.7041  0.2381  0.1055
16544SOL     OW54478   6.724   5.945   3.524 -0.0643 -0.5994 -0.4093
16544SOL    HW154479   6.810   5.935   3.565  0.0341  2.0316  0.2128
16544SOL    HW254480   6.662   5.943   3.597 -0.3970 -1.1553 -0.7061
16545SOL     OW54481   5.736   7.943   7.453 -0.3306  0.2262  0.3385
16545SOL    HW154482   5.665   7.891   7.490  1.1815 -1.9845  0.2857
16545SOL    HW254483   5.725   7.936   7.359 -0.0977 -0.0494  0.3308
16546SOL     OW54484   3.534   7.321   0.026  0.3731  0.2532 -0.0544
16546SOL    HW154485   3.474   7.392   0.045 -1.1674 -1.2710  1.0501
16546SOL    HW254486   3.500   7.282  -0.055 -0.3360 -0.7730  0.7111
16547SOL     OW54487   7.061   9.724   3.429 -0.5213 -0.1413  0.3820
16547SOL    HW154488   7.139   9.670   3.444 -0.0604 -0.1035 -1.6089
16547SOL    HW254489   7.096   9.809   3.404 -1.2321  0.1981  0.5455
16548SOL     OW54490   6.348   8.789   1.285  0.2223  0.7024 -0.4519
16548SOL    HW154491   6.270   8.832   1.248  0.5578  0.1915 -1.8059
16548SOL    HW254492   6.419   8.852   1.271  0.2908  0.6366 -0.4018
16549SOL     OW54493   2.530   3.067   5.356 -0.1847 -0.2283  0.2807
16549SOL    HW154494   2.622   3.080   5.380  0.1078 -2.0962  0.3442
16549SOL    HW254495   2.531   3.066   5.260 -0.1074 -0.3843  0.2822
16550SOL     OW54496   3.687   4.175   2.761  0.5443 -0.3241  0.2598
16550SOL    HW154497   3.714   4.121   2.836  0.7075 -2.0489 -0.9928
16550SOL    HW254498   3.744   4.148   2.690  0.2899  1.1800 -0.5480
16551SOL     OW54499   0.205   7.579   2.888 -0.0974  0.6018 -0.0947
16551SOL    HW154500   0.209   7.485   2.871  1.4289  0.6221 -0.0369
16551SOL    HW254501   0.210   7.587   2.983  1.8405  0.7514 -0.1548
16552SOL     OW54502   1.875   7.081   8.012  0.3479  0.3411  0.1000
16552SOL    HW154503   1.870   7.167   7.972  0.0127 -0.0364 -0.6932
16552SOL    HW254504   1.808   7.030   7.967  0.2476 -0.2150  0.8585
16553SOL     OW54505   4.411   6.203   2.574 -0.5885 -0.2272  0.0217
16553SOL    HW154506   4.325   6.190   2.615  0.2161 -0.4450  1.6982
16553SOL    HW254507   4.433   6.118   2.536 -1.7608  0.2184 -1.8195
16554SOL     OW54508   3.949   5.387   8.903  0.0270 -0.0915 -0.6844
16554SOL    HW154509   3.897   5.392   8.983  0.5632 -0.7925 -0.2890
16554SOL    HW254510   3.888   5.412   8.834 -0.6042 -0.0701 -0.1301
16555SOL     OW54511   0.201   9.700   6.507 -0.4872 -0.9103 -0.2280
16555SOL    HW154512   0.120   9.652   6.517  0.3981 -2.6491 -1.0363
16555SOL    HW254513   0.224   9.727   6.596 -1.8141 -0.5608  0.0338
16556SOL     OW54514   6.385   4.278   9.228  0.4324  0.4423  0.2378
16556SOL    HW154515   6.414   4.341   9.294  0.6015  1.0722 -0.4289
16556SOL    HW254516   6.410   4.193   9.264  2.9277  0.9161 -0.1903
16557SOL     OW54517   2.514   4.080   8.415  0.7474  0.3605  0.1989
16557SOL    HW154518   2.475   4.120   8.492  0.4766  2.5547 -0.9773
16557SOL    HW254519   2.464   3.999   8.402  0.0779  0.5020  1.6660
16558SOL     OW54520   9.684   8.590   9.721 -0.0272  0.7403  0.1894
16558SOL    HW154521   9.753   8.652   9.697 -1.7916  2.0881 -1.6555
16558SOL    HW254522   9.720   8.544   9.797  2.3631  2.2796  0.1087
16559SOL     OW54523   0.716   8.629   5.667 -0.2402 -0.5724 -0.4331
16559SOL    HW154524   0.764   8.701   5.706  0.7675 -1.8947  0.8774
16559SOL    HW254525   0.640   8.670   5.625  1.0503  1.3653 -0.9738
16560SOL     OW54526   2.482   2.763   1.882 -0.3738  0.3632  0.1012
16560SOL    HW154527   2.423   2.724   1.818  0.6768 -0.2341 -0.5430
16560SOL    HW254528   2.427   2.822   1.933 -0.9906  2.0707 -2.3231
16561SOL     OW54529   9.366   7.865   5.239 -0.4266  0.4478 -0.1189
16561SOL    HW154530   9.416   7.943   5.262 -0.7686  0.4017  0.8232
16561SOL    HW254531   9.335   7.831   5.323 -1.2087 -0.0766 -0.6069
16562SOL     OW54532   4.607   6.338   9.655  0.2031  0.1008 -0.2937
16562SOL    HW154533   4.594   6.407   9.590 -0.7245  0.5839  0.3750
16562SOL    HW254534   4.564   6.371   9.734 -2.0813 -2.0326 -0.5017
16563SOL     OW54535   3.243   9.234   6.250 -0.2054  0.2388 -0.1323
16563SOL    HW154536   3.153   9.259   6.231 -0.0325 -0.2984 -1.7965
16563SOL    HW254537   3.288   9.316   6.270 -0.8199  0.6364 -0.3769
16564SOL     OW54538   5.119   4.807   2.287  0.0922  0.4785  0.4555
16564SOL    HW154539   5.131   4.845   2.200 -2.0247 -0.4049 -0.2998
16564SOL    HW254540   5.111   4.713   2.272 -0.0922  0.2838  1.6347
16565SOL     OW54541   5.333   4.328   1.609  0.2555 -0.2395 -0.3864
16565SOL    HW154542   5.306   4.337   1.518  3.0181  0.1700 -1.2727
16565SOL    HW254543   5.355   4.418   1.636 -3.4970  0.2320  1.8593
16566SOL     OW54544   3.522   4.991   2.830 -0.2833  0.2630  0.2058
16566SOL    HW154545   3.429   5.005   2.848 -0.1236 -0.0652  1.3237
16566SOL    HW254546   3.567   5.014   2.912  0.4698 -1.2691  0.2676
16567SOL     OW54547   1.765   0.467   1.903  0.3156  0.1287 -0.8298
16567SOL    HW154548   1.768   0.454   1.998  0.2995 -2.3442 -1.0877
16567SOL    HW254549   1.683   0.426   1.877  0.0263  1.3273 -1.8737
16568SOL     OW54550   7.853   9.445   6.574  0.0801 -0.4392  0.1672
16568SOL    HW154551   7.905   9.377   6.531 -1.0314 -0.2959 -1.5286
16568SOL    HW254552   7.917   9.500   6.619  1.2896 -0.9207 -0.9001
16569SOL     OW54553   3.112   0.461   8.871 -0.0394 -0.0152  0.4215
16569SOL    HW154554   3.126   0.539   8.924 -1.6636 -0.6614  1.9366
16569SOL    HW254555   3.022   0.470   8.839 -0.2422 -1.2176  0.6044
16570SOL     OW54556   1.935   7.267   5.609  0.2675 -0.2183  0.3183
16570SOL    HW154557   1.942   7.216   5.690  0.3260 -2.9682 -1.2654
16570SOL    HW254558   2.021   7.260   5.569 -0.0397  0.2181 -0.4353
16571SOL     OW54559   3.647   5.672   9.130 -0.4647  0.3234 -0.4320
16571SOL    HW154560   3.619   5.703   9.216 -0.7630 -0.7466 -0.1340
16571SOL    HW254561   3.710   5.738   9.100 -0.9414  1.1110  0.2585
16572SOL     OW54562   6.521   4.570   4.674 -0.0578 -0.0004 -0.1353
16572SOL    HW154563   6.583   4.518   4.726 -0.6821 -0.3396  0.2837
16572SOL    HW254564   6.487   4.508   4.609  0.5496  0.3634 -0.8157
16573SOL     OW54565   5.671   6.946   8.017  0.1539 -0.3757  0.0496
16573SOL    HW154566   5.720   6.892   8.079  1.0812 -0.5016 -0.7586
16573SOL    HW254567   5.647   6.885   7.947 -0.3659 -0.1156 -0.0017
16574SOL     OW54568   9.700   2.298   8.567 -0.1529  0.3959 -0.1085
16574SOL    HW154569   9.755   2.221   8.552 -0.0518  0.7207 -1.6664
16574SOL    HW254570   9.612   2.262   8.578 -0.2717  0.0692 -1.8260
16575SOL     OW54571   0.592   8.138   1.176 -0.3272 -0.1565 -0.0117
16575SOL    HW154572   0.527   8.145   1.107 -0.6224  2.0475  0.4062
16575SOL    HW254573   0.664   8.090   1.137 -2.3249 -3.0982 -0.3489
16576SOL     OW54574   4.689   9.666   0.498 -0.0747  0.0064 -0.2499
16576SOL    HW154575   4.605   9.640   0.536 -0.5780  0.1226 -1.2341
16576SOL    HW254576   4.755   9.631   0.557 -0.8233  1.1810  1.3608
16577SOL     OW54577   7.741   0.169   4.442 -0.6091 -0.2955 -0.4856
16577SOL    HW154578   7.739   0.207   4.530  1.2356 -0.2760 -0.4028
16577SOL    HW254579   7.717   0.077   4.455  0.6377 -0.5537  0.2439
16578SOL     OW54580   4.949   6.613   3.240 -0.3685 -0.9602 -0.0458
16578SOL    HW154581   4.899   6.605   3.322 -1.5639 -0.1037 -0.6685
16578SOL    HW254582   4.953   6.523   3.206  1.7596 -1.6715  1.8240
16579SOL     OW54583   7.230   5.917   4.811  0.1319 -0.6007 -0.1194
16579SOL    HW154584   7.201   5.980   4.876 -2.4008 -1.6279 -0.1555
16579SOL    HW254585   7.272   5.847   4.863  2.8729  0.9126 -0.0767
16580SOL     OW54586   0.768   4.871   4.387  0.4004  0.0646  0.2145
16580SOL    HW154587   0.829   4.871   4.313  1.7841 -0.9118  1.3289
16580SOL    HW254588   0.723   4.787   4.381 -1.0257  0.8373 -0.6907
16581SOL     OW54589   1.124   3.041   3.894 -0.3112  0.1062  0.3270
16581SOL    HW154590   1.218   3.055   3.886 -0.5130  0.3933 -3.2176
16581SOL    HW254591   1.113   2.946   3.887 -0.3244  0.2001 -1.4655
16582SOL     OW54592   9.144   4.276   1.416  0.2892  0.3956  0.3142
16582SOL    HW154593   9.171   4.269   1.324  0.9801  0.6473  0.4911
16582SOL    HW254594   9.049   4.265   1.414  0.2961  0.4238 -0.4352
16583SOL     OW54595   2.830   1.935   2.678  0.5937  0.0836  0.2778
16583SOL    HW154596   2.790   1.863   2.628 -3.8508  2.3267  0.0420
16583SOL    HW254597   2.819   1.910   2.769 -1.0765  0.4119  0.2002
16584SOL     OW54598   5.637   8.542   7.527 -0.6274 -0.6343 -1.0564
16584SOL    HW154599   5.704   8.491   7.573  0.0170  1.1721  0.1115
16584SOL    HW254600   5.554   8.508   7.561 -0.1808  0.5581  1.4707
16585SOL     OW54601   5.038   8.292   2.680  0.4330 -0.9682  0.0053
16585SOL    HW154602   4.983   8.351   2.732 -0.8873 -2.9348  0.9679
16585SOL    HW254603   5.012   8.307   2.590  1.4200  1.1620  0.0090
16586SOL     OW54604   4.480   0.748   1.541 -0.1584 -0.1293  0.4164
16586SOL    HW154605   4.513   0.668   1.581  0.0819 -1.5327 -2.3198
16586SOL    HW254606   4.388   0.753   1.566 -0.6226 -2.2273 -0.6795
16587SOL     OW54607   1.975   6.674   5.039 -0.2887  0.4275 -0.5086
16587SOL    HW154608   1.912   6.699   4.972  0.0728 -0.6070 -1.2718
16587SOL    HW254609   1.948   6.586   5.066  0.3522  0.2906 -0.2864
16588SOL     OW54610   4.165   7.232   5.785 -0.3542 -0.0235  0.0107
16588SOL    HW154611   4.119   7.155   5.819 -0.4467  0.0720  0.1018
16588SOL    HW254612   4.115   7.307   5.818 -0.4558  0.0707 -0.3480
16589SOL     OW54613   7.758   4.822   5.567 -0.0758  0.1275 -0.2600
16589SOL    HW154614   7.787   4.861   5.649  2.1231  2.6837 -2.0491
16589SOL    HW254615   7.689   4.880   5.536  1.7908  1.6053 -1.9588
16590SOL     OW54616   2.170   9.039   6.447  0.4511 -0.1851  0.2087
16590SOL    HW154617   2.234   9.093   6.400 -0.9756  0.6630 -0.8440
16590SOL    HW254618   2.129   9.099   6.508 -3.3017  0.9567 -3.0334
16591SOL     OW54619   3.413   7.264   2.967 -0.2005  0.4063 -0.0781
16591SOL    HW154620   3.419   7.339   2.908 -0.7824  0.4192 -0.1304
16591SOL    HW254621   3.333   7.280   3.018 -0.3983 -0.2436 -0.1782
16592SOL     OW54622   3.412   4.405   4.459 -0.1210  0.5809  0.0727
16592SOL    HW154623   3.384   4.473   4.521  1.8428  0.6585  0.9511
16592SOL    HW254624   3.499   4.434   4.430  0.3302 -1.0665 -0.3042
16593SOL     OW54625   7.247   4.761   5.234  0.0456  0.8632  0.6399
16593SOL    HW154626   7.304   4.718   5.297  0.3341 -0.3338 -0.3723
16593SOL    HW254627   7.196   4.689   5.196 -0.5206  1.6200 -0.0807
16594SOL     OW54628   4.533   8.465   8.106  0.6917 -0.0940 -0.1809
16594SOL    HW154629   4.518   8.421   8.022 -3.5940  0.2860  0.1417
16594SOL    HW254630   4.517   8.558   8.087 -1.5644 -0.1359  1.1488
16595SOL     OW54631   8.042   5.590   5.135  0.6577  0.4198 -0.0857
16595SOL    HW154632   8.056   5.611   5.042 -0.5760  2.2100  0.0923
16595SOL    HW254633   8.101   5.649   5.181  1.7842 -0.9453  0.3074
16596SOL     OW54634   3.385   9.189   9.676 -0.3380 -0.9255  0.7358
16596SOL    HW154635   3.364   9.111   9.729 -2.4213 -0.3288  0.8859
16596SOL    HW254636   3.314   9.194   9.612  0.8720 -0.2805 -0.6114
16597SOL     OW54637   5.310   7.541   2.105  0.4418 -0.1279 -0.2649
16597SOL    HW154638   5.282   7.522   2.195  0.4433 -0.5120 -0.3441
16597SOL    HW254639   5.400   7.572   2.114 -0.3954  2.3402  0.1179
16598SOL     OW54640   1.227   3.419   7.077 -0.3612  0.4554  0.3466
16598SOL    HW154641   1.186   3.493   7.033 -0.0220  0.3236 -0.1978
16598SOL    HW254642   1.308   3.454   7.113 -1.5592  1.0634  2.6180
16599SOL     OW54643   8.365   8.013   6.779  0.1773 -0.3186  0.4558
16599SOL    HW154644   8.343   8.080   6.715  1.6028  0.4798  0.7574
16599SOL    HW254645   8.446   7.974   6.747 -0.1584 -1.2875  0.7491
16600SOL     OW54646   2.064   4.102   5.011  0.1573 -0.1393  0.5553
16600SOL    HW154647   1.976   4.141   5.015  0.2781  0.4292 -1.3382
16600SOL    HW254648   2.062   4.048   4.933  1.1902 -0.9708  1.0907
16601SOL     OW54649   6.279   4.698   3.005  0.6104  0.1915  0.2711
16601SOL    HW154650   6.195   4.680   2.963  0.3224 -1.6610  1.4971
16601SOL    HW254651   6.342   4.703   2.933 -0.1516 -1.0459 -0.5135
16602SOL     OW54652   6.492   9.523   2.127 -0.1533  0.1276 -0.2176
16602SOL    HW154653   6.511   9.446   2.073  0.1706 -0.8276  1.2033
16602SOL    HW254654   6.482   9.488   2.216 -2.4875  1.4080  0.0932
16603SOL     OW54655   6.057   9.571   6.131  0.8266  0.1092  0.3535
16603SOL    HW154656   6.086   9.497   6.078  1.0309  1.6117 -1.7946
16603SOL    HW254657   6.122   9.639   6.115 -0.5239  1.4775  0.4121
16604SOL     OW54658   8.934   2.318   3.281  0.0177 -0.3095 -0.5219
16604SOL    HW154659   8.949   2.224   3.278 -3.1225 -1.0655  1.5495
16604SOL    HW254660   8.983   2.348   3.358 -1.7130 -1.0446  0.9555
16605SOL     OW54661   4.425   0.666   8.294 -0.4463 -0.3746  0.3391
16605SOL    HW154662   4.451   0.758   8.284 -2.5268  0.2362  0.0812
16605SOL    HW254663   4.467   0.638   8.376  0.2846  0.7622  0.3779
16606SOL     OW54664   8.679   2.974   7.328  0.1544 -0.3006  0.0923
16606SOL    HW154665   8.612   2.917   7.366 -1.2377  0.4969 -1.0830
16606SOL    HW254666   8.730   3.004   7.404 -0.4984 -1.3010  0.9594
16607SOL     OW54667   0.702   5.633   1.717  0.6262  0.1046  0.0062
16607SOL    HW154668   0.665   5.568   1.657  0.5653  0.5113 -0.4052
16607SOL    HW254669   0.786   5.596   1.745  0.8031  0.0459 -0.5805
16608SOL     OW54670   6.298   4.275   0.298  0.2995 -0.4037  0.6408
16608SOL    HW154671   6.249   4.339   0.351 -1.4351  0.1150 -1.4386
16608SOL    HW254672   6.268   4.190   0.330 -0.4700 -0.1051  0.7541
16609SOL     OW54673   1.269   3.374   8.870  0.0875 -0.5181  0.0987
16609SOL    HW154674   1.230   3.421   8.944 -0.7021 -0.0164 -0.6357
16609SOL    HW254675   1.274   3.283   8.900 -1.8348 -0.6425  0.1466
16610SOL     OW54676   3.068   4.173   9.710 -0.1871 -0.2457  0.2351
16610SOL    HW154677   3.034   4.178   9.621 -2.0256  0.5217  0.9363
16610SOL    HW254678   3.029   4.093   9.746  1.9201 -1.5163 -0.1355
16611SOL     OW54679   1.071   8.424   0.345 -0.0517  0.2588  0.3181
16611SOL    HW154680   1.059   8.348   0.289  1.5067 -1.1251  1.7847
16611SOL    HW254681   0.989   8.430   0.394 -0.6454  0.2874 -0.6413
16612SOL     OW54682   0.459   4.919   1.659  0.2961 -0.3873  0.0757
16612SOL    HW154683   0.486   4.904   1.749 -0.1238 -1.9637 -0.0384
16612SOL    HW254684   0.444   4.832   1.623 -0.3507  0.2486 -1.2744
16613SOL     OW54685   7.482   1.980   8.392 -0.2173  0.3370 -0.1623
16613SOL    HW154686   7.461   1.924   8.466 -0.2254 -1.8018 -1.6644
16613SOL    HW254687   7.398   2.016   8.364 -0.5262 -0.4974 -0.3440
16614SOL     OW54688   5.294   6.741   6.343  0.5409  0.4900 -0.2372
16614SOL    HW154689   5.295   6.777   6.255  0.6606  0.7551 -0.1284
16614SOL    HW254690   5.376   6.692   6.350 -0.1041 -0.7006 -0.7491
16615SOL     OW54691   3.797   8.818   3.041 -0.4455 -0.1655 -0.4106
16615SOL    HW154692   3.835   8.842   2.956 -0.3722 -1.3820 -0.7421
16615SOL    HW254693   3.864   8.841   3.105  0.4446 -1.3335 -0.9001
16616SOL     OW54694   8.782   7.009   2.446  0.0521  0.5789 -0.6082
16616SOL    HW154695   8.705   6.983   2.497  0.8451 -0.7470 -0.0497
16616SOL    HW254696   8.773   6.962   2.363  1.3869 -1.4364  0.3280
16617SOL     OW54697   4.360   5.704   0.555  0.2613 -0.0156 -0.2789
16617SOL    HW154698   4.340   5.783   0.606 -4.2363 -0.4266 -0.9872
16617SOL    HW254699   4.356   5.733   0.464 -0.3942 -0.8141 -0.5156
16618SOL     OW54700   3.089   3.461   7.945 -0.5302  0.4658  0.2576
16618SOL    HW154701   3.100   3.555   7.958 -1.3227  0.5208  0.5885
16618SOL    HW254702   3.101   3.447   7.851 -2.4553  1.1964 -0.1227
16619SOL     OW54703   8.021   2.039   1.823  0.1034  0.3357  0.1968
16619SOL    HW154704   8.023   1.981   1.899 -0.1671 -0.7146 -0.5735
16619SOL    HW254705   8.112   2.066   1.812 -0.1335  2.0335  2.0062
16620SOL     OW54706   1.072   2.377   1.137  0.4274  0.2293  0.1543
16620SOL    HW154707   1.087   2.324   1.216 -0.3135  0.8768  0.7464
16620SOL    HW254708   1.145   2.355   1.079 -0.0279 -1.6614  0.2555
16621SOL     OW54709   8.307   2.135   3.623  0.0744 -0.5588  0.3511
16621SOL    HW154710   8.224   2.181   3.605 -0.0273 -0.6994  0.4585
16621SOL    HW254711   8.310   2.130   3.719  0.3718 -0.2521  0.3586
16622SOL     OW54712   3.601   5.776   5.195 -0.4360 -0.3996 -0.2884
16622SOL    HW154713   3.522   5.810   5.237 -0.6105 -3.0137  1.8132
16622SOL    HW254714   3.577   5.766   5.103 -3.2145 -2.5362  0.5281
16623SOL     OW54715   4.400   7.235   7.908  0.0638  0.1312 -0.1580
16623SOL    HW154716   4.421   7.227   7.815  1.1616 -0.9302  0.1671
16623SOL    HW254717   4.483   7.220   7.953 -0.1404  2.0220  0.9779
16624SOL     OW54718   3.139   8.964   6.853  0.0980 -0.0541 -0.6150
16624SOL    HW154719   3.160   9.023   6.925  0.0683 -1.3419  0.4928
16624SOL    HW254720   3.043   8.964   6.849  0.1087  2.0535 -2.4490
16625SOL     OW54721   9.034   6.212   2.939 -0.0958 -0.1085 -0.1325
16625SOL    HW154722   8.975   6.141   2.915 -1.6894  0.7474  1.0545
16625SOL    HW254723   8.992   6.291   2.904  2.0531  0.2372 -2.1726
16626SOL     OW54724   3.674   3.919   7.002  0.1143  0.0464  0.6249
16626SOL    HW154725   3.752   3.892   7.052  0.1523  0.8752  1.0222
16626SOL    HW254726   3.704   3.920   6.911 -0.4069 -3.1566  0.3038
16627SOL     OW54727   8.775   0.936   7.582  0.2670  1.1188  0.1793
16627SOL    HW154728   8.693   0.972   7.617 -0.6365 -1.9043  1.5682
16627SOL    HW254729   8.844   0.980   7.631 -0.6445  2.0534  0.6611
16628SOL     OW54730   6.730   5.121   6.269 -0.0716 -0.5380  0.3133
16628SOL    HW154731   6.748   5.208   6.232  2.1520 -0.5893  1.1496
16628SOL    HW254732   6.641   5.101   6.239 -1.0472  2.4327  0.8902
16629SOL     OW54733   2.956   9.539   3.014  0.0454  0.2174  0.1102
16629SOL    HW154734   2.923   9.580   3.095 -0.9209 -0.4221  0.0529
16629SOL    HW254735   2.879   9.533   2.958  0.3576 -0.8814 -0.2137
16630SOL     OW54736   5.201   4.392   6.036 -0.3568 -0.0807 -0.1268
16630SOL    HW154737   5.179   4.319   5.978  1.2035  0.4779 -1.4783
16630SOL    HW254738   5.185   4.358   6.124  1.9928 -2.6970 -0.5899
16631SOL     OW54739   0.234   4.863   8.172 -0.3525  0.3191  0.1039
16631SOL    HW154740   0.275   4.915   8.103 -0.0059  1.3036  1.0103
16631SOL    HW254741   0.140   4.866   8.152 -0.3087  1.0690 -0.0243
16632SOL     OW54742   5.124   5.435   8.646 -0.6304  0.5411  0.3363
16632SOL    HW154743   5.150   5.412   8.557  2.5442 -1.0787  1.4839
16632SOL    HW254744   5.150   5.526   8.656 -0.4921  0.5678 -0.2275
16633SOL     OW54745   5.456   2.082   3.054  0.5845  0.1135 -0.5325
16633SOL    HW154746   5.549   2.059   3.058  0.4063 -0.5233  0.1484
16633SOL    HW254747   5.450   2.143   2.980  1.7168  1.0372  0.0968
16634SOL     OW54748   0.804   8.608   4.255  0.1534 -0.1172 -0.0160
16634SOL    HW154749   0.856   8.688   4.246 -1.7870  1.0837 -1.2600
16634SOL    HW254750   0.767   8.613   4.343 -0.8395  0.9532 -0.4736
16635SOL     OW54751   0.946   5.383   5.527 -0.5873  0.1792 -0.5997
16635SOL    HW154752   1.001   5.373   5.605  1.2316  0.2210 -1.8217
16635SOL    HW254753   0.919   5.294   5.505  1.0525 -0.1570 -1.3783
16636SOL     OW54754   0.042   2.038   1.498  0.0299 -0.3459  0.6905
16636SOL    HW154755  -0.038   2.089   1.504  0.4209  0.1108  2.3928
16636SOL    HW254756   0.012   1.950   1.473 -0.9846 -0.1355  1.1158
16637SOL     OW54757   4.734   9.280   7.134  0.1477  0.2592  0.0386
16637SOL    HW154758   4.680   9.253   7.060  0.5109  0.2201 -0.2089
16637SOL    HW254759   4.684   9.251   7.211 -0.0392 -0.0452 -0.1955
16638SOL     OW54760   7.020   1.055   6.452  0.4275 -0.9453 -0.2446
16638SOL    HW154761   7.026   1.039   6.358  1.4679  0.6269 -0.4848
16638SOL    HW254762   6.945   1.114   6.462  1.9598  1.1658 -0.4838
16639SOL     OW54763   0.273   2.122   2.592 -0.4034 -0.0416  0.0803
16639SOL    HW154764   0.186   2.100   2.626 -0.7258  1.5288  0.3463
16639SOL    HW254765   0.270   2.216   2.577  0.9557 -0.1111 -0.8212
16640SOL     OW54766   9.569   9.471   5.407 -0.1622 -0.1296 -0.1747
16640SOL    HW154767   9.559   9.522   5.487  2.1462  1.6964 -0.9330
16640SOL    HW254768   9.606   9.388   5.435 -2.9843 -1.1159  0.9746
16641SOL     OW54769   3.265   6.315   8.819 -0.0306  0.2238  0.0864
16641SOL    HW154770   3.309   6.400   8.825 -1.3233  0.8822  0.6897
16641SOL    HW254771   3.279   6.287   8.729  0.0440  1.3079 -0.2550
16642SOL     OW54772   6.231   7.688   3.726  0.6348  0.6310 -0.2692
16642SOL    HW154773   6.257   7.680   3.818  0.1385  1.7325 -0.0170
16642SOL    HW254774   6.136   7.689   3.728  0.5871  2.7875 -0.5373
16643SOL     OW54775   9.343   2.781   3.424 -0.1770 -0.2706  0.1945
16643SOL    HW154776   9.424   2.831   3.420 -0.9369  1.0770  1.0283
16643SOL    HW254777   9.370   2.693   3.451  1.0619 -0.0247 -0.2140
16644SOL     OW54778   5.451   4.666   4.148 -0.0487  0.2524 -0.1846
16644SOL    HW154779   5.536   4.623   4.134 -0.0444  0.2497 -0.1506
16644SOL    HW254780   5.391   4.619   4.090 -0.2471 -0.4454  0.5681
16645SOL     OW54781   6.445   3.601   4.541  0.2341  0.4457  0.2047
16645SOL    HW154782   6.352   3.626   4.538  0.2726  0.5401 -0.5249
16645SOL    HW254783   6.461   3.561   4.455  0.5775 -0.6603  0.7671
16646SOL     OW54784   2.921   3.805   5.697  0.5304  0.4956 -0.0463
16646SOL    HW154785   2.897   3.861   5.770 -0.7811  2.5392 -1.9152
16646SOL    HW254786   2.880   3.721   5.716  0.4529  0.8939  1.6626
16647SOL     OW54787   3.206   6.338   5.639  0.2361  0.7178  0.0456
16647SOL    HW154788   3.297   6.365   5.630  0.3673  0.2958  0.0579
16647SOL    HW254789   3.157   6.419   5.648  0.5944  0.9530 -0.1211
16648SOL     OW54790   9.160   7.676   7.761 -0.9941  0.4746  0.5281
16648SOL    HW154791   9.249   7.661   7.792 -1.2369  1.8981  2.0653
16648SOL    HW254792   9.139   7.598   7.710  1.0289  0.0039  0.3254
16649SOL     OW54793   0.695   9.670   9.517  0.5930  0.1071  0.0231
16649SOL    HW154794   0.735   9.752   9.544 -0.3774  0.0544  1.8038
16649SOL    HW254795   0.602   9.690   9.504  0.0399 -0.9372  1.9309
16650SOL     OW54796   1.485   8.603   2.363 -0.0102 -0.5752  0.1523
16650SOL    HW154797   1.416   8.592   2.298  0.8107  0.0160 -0.8471
16650SOL    HW254798   1.489   8.698   2.378  0.3936 -0.6286  0.4000
16651SOL     OW54799   0.445   9.622   6.416  0.2277  0.0194 -0.4041
16651SOL    HW154800   0.371   9.652   6.469 -0.8707  1.5233 -2.6066
16651SOL    HW254801   0.429   9.529   6.403 -1.5780  0.3694 -1.1340
16652SOL     OW54802   1.603   8.526   7.899 -0.3366 -0.9105 -0.2582
16652SOL    HW154803   1.633   8.582   7.828 -0.0703 -0.3455  0.2808
16652SOL    HW254804   1.643   8.441   7.882  0.2710 -0.5959 -0.4166
16653SOL     OW54805   7.266   5.407   3.258 -0.3529 -0.1383  0.4422
16653SOL    HW154806   7.245   5.346   3.328 -0.4216 -0.2774  0.3033
16653SOL    HW254807   7.361   5.400   3.247 -0.2103  0.6102  1.1803
16654SOL     OW54808   3.674   8.188   3.233 -0.2414  0.4422  0.1098
16654SOL    HW154809   3.643   8.271   3.196  0.2542  0.6976  0.2525
16654SOL    HW254810   3.595   8.134   3.241 -0.1623 -0.3879 -3.1815
16655SOL     OW54811   5.072   1.219   9.065 -0.3963  0.0133 -0.0378
16655SOL    HW154812   5.030   1.201   8.981  0.3321  0.5441 -0.5331
16655SOL    HW254813   5.098   1.311   9.059 -0.0711 -0.0302  0.6511
16656SOL     OW54814   0.582   3.362   5.712 -0.0671  0.7724  0.4140
16656SOL    HW154815   0.579   3.458   5.707 -0.2405  0.7076 -1.2456
16656SOL    HW254816   0.572   3.333   5.621 -0.5241 -0.8398  0.9473
16657SOL     OW54817   9.068   9.040   8.355  0.1932  0.0656 -0.0526
16657SOL    HW154818   8.996   8.989   8.319 -0.8423  1.4359  0.0230
16657SOL    HW254819   9.117   9.069   8.278  0.5142 -0.6305 -0.1166
16658SOL     OW54820   1.513   9.566   9.693 -0.2022 -0.0866  0.5476
16658SOL    HW154821   1.553   9.640   9.647 -0.6356 -0.3413 -0.2478
16658SOL    HW254822   1.579   9.539   9.757 -0.2042  1.2591  1.1510
16659SOL     OW54823   1.879   8.423   6.308 -0.2371 -0.5554  0.1740
16659SOL    HW154824   1.814   8.481   6.269  0.6363  0.7779  0.6302
16659SOL    HW254825   1.829   8.347   6.338 -1.3312 -0.2861 -0.8914
16660SOL     OW54826   0.032   7.116   7.842  1.1229  0.0491 -0.2668
16660SOL    HW154827   0.012   7.033   7.799 -1.3606  0.4730 -0.0532
16660SOL    HW254828   0.079   7.167   7.776 -2.0372  0.4429 -2.4046
16661SOL     OW54829   4.765   2.184   3.614 -0.4894  0.0937 -0.3752
16661SOL    HW154830   4.841   2.127   3.620 -1.3384 -1.0692 -0.1574
16661SOL    HW254831   4.721   2.174   3.698 -0.0787  1.9616  0.0912
16662SOL     OW54832   7.992   8.611   0.457 -0.0140  0.3880  0.2156
16662SOL    HW154833   7.910   8.616   0.408 -0.6138 -0.4968  1.1072
16662SOL    HW254834   8.056   8.653   0.400 -0.2435 -2.3018 -2.2709
16663SOL     OW54835   8.608   0.775   5.249 -0.5532 -0.4681  0.5494
16663SOL    HW154836   8.685   0.722   5.268 -0.2168 -1.3907 -2.8248
16663SOL    HW254837   8.643   0.861   5.226 -0.2513 -1.3324 -2.5995
16664SOL     OW54838   2.288   5.786   7.689 -0.2022 -0.3384  0.5962
16664SOL    HW154839   2.226   5.761   7.758 -0.2274  0.9355  1.0572
16664SOL    HW254840   2.240   5.848   7.634  0.4188  0.0958  0.5273
16665SOL     OW54841   9.343   3.631   4.902 -0.4392  0.2178 -0.4503
16665SOL    HW154842   9.251   3.608   4.886 -0.4181  0.4258 -0.8765
16665SOL    HW254843   9.359   3.604   4.993 -0.7719 -0.3046 -0.5432
16666SOL     OW54844   8.239   3.851   2.885 -0.0272 -0.3105  0.0217
16666SOL    HW154845   8.333   3.831   2.879 -0.3760 -2.8004  1.5082
16666SOL    HW254846   8.203   3.819   2.802  0.4010  0.7914 -0.6198
16667SOL     OW54847   0.664   9.629   4.032 -0.3032 -0.1882  0.0016
16667SOL    HW154848   0.718   9.551   4.015  0.8521  0.3663  0.9814
16667SOL    HW254849   0.639   9.660   3.945  2.4236  0.5104 -0.6375
16668SOL     OW54850   2.960   0.749   5.953  0.4460 -0.1570 -0.3081
16668SOL    HW154851   2.964   0.831   5.904 -0.0761  0.2277  0.2838
16668SOL    HW254852   2.954   0.776   6.044 -0.2477 -0.8462 -0.1475
16669SOL     OW54853   2.148   3.068   5.732 -0.1506 -0.1943  0.3193
16669SOL    HW154854   2.224   3.056   5.675 -1.3533  0.6106 -1.5590
16669SOL    HW254855   2.087   2.998   5.706 -0.3443 -0.4225  1.3295
16670SOL     OW54856   0.675   1.857   2.386 -0.1017 -0.2795  0.1279
16670SOL    HW154857   0.619   1.866   2.464  1.7912  2.2251  1.3329
16670SOL    HW254858   0.751   1.808   2.417  0.4727  0.3580 -0.2691
16671SOL     OW54859   0.428   6.736   0.390 -0.1688  0.0433 -0.1365
16671SOL    HW154860   0.383   6.793   0.328 -1.2140 -1.0861 -0.4667
16671SOL    HW254861   0.389   6.758   0.475 -0.8511 -0.4371 -0.3191
16672SOL     OW54862   6.294   2.143   2.419 -0.4807 -0.0168 -0.1393
16672SOL    HW154863   6.312   2.062   2.372 -0.8321  0.4523 -1.1113
16672SOL    HW254864   6.198   2.148   2.425 -0.4591  0.2483  0.0564
16673SOL     OW54865   9.335   7.164   5.393  0.1724 -0.1155 -0.0716
16673SOL    HW154866   9.377   7.134   5.474 -0.2875 -0.5946 -0.0017
16673SOL    HW254867   9.381   7.245   5.371 -0.1469  0.3831  1.0293
16674SOL     OW54868   4.946   8.722   4.801  0.0106  0.2208 -0.5723
16674SOL    HW154869   5.023   8.772   4.775  0.6481 -1.3667 -1.8671
16674SOL    HW254870   4.873   8.764   4.755  0.1860  1.2221  0.0200
16675SOL     OW54871   9.527   8.398   8.419  0.4580  0.1969 -0.3424
16675SOL    HW154872   9.433   8.413   8.428  0.7870  1.4963  1.4187
16675SOL    HW254873   9.553   8.359   8.502  1.5097 -0.0633 -0.7777
16676SOL     OW54874   2.594   0.420   6.096 -0.3511 -0.9500  0.0838
16676SOL    HW154875   2.594   0.514   6.073 -1.3790 -0.4283  2.0117
16676SOL    HW254876   2.534   0.381   6.033 -2.6036  0.3242  1.3082
16677SOL     OW54877   1.012   4.587   3.844  0.1549  0.1750 -0.0022
16677SOL    HW154878   0.945   4.524   3.870  0.5299 -0.3222 -0.2348
16677SOL    HW254879   0.967   4.671   3.846 -0.2573 -0.0545  0.6442
16678SOL     OW54880   7.496   0.370   0.702  0.0686 -0.0984  0.2892
16678SOL    HW154881   7.405   0.362   0.731  0.7958 -3.5397  2.0921
16678SOL    HW254882   7.546   0.376   0.783  1.5900 -0.3668 -0.5956
16679SOL     OW54883   1.973   8.110   7.473  0.6081  0.0298  0.6877
16679SOL    HW154884   1.885   8.102   7.438  0.9358 -0.1775 -0.1164
16679SOL    HW254885   1.966   8.080   7.564  0.5100 -3.4361 -0.3199
16680SOL     OW54886   3.035   7.941   7.920 -0.3104  0.0329  0.1132
16680SOL    HW154887   3.082   7.859   7.936 -0.3031  0.1969  0.9664
16680SOL    HW254888   2.965   7.917   7.859 -0.8369 -0.7961  1.0137
16681SOL     OW54889   6.900   1.282   1.140 -0.7174 -0.1191  0.7732
16681SOL    HW154890   6.817   1.323   1.114 -0.8097 -0.8302 -0.1012
16681SOL    HW254891   6.877   1.228   1.215 -0.6962  0.9980  1.6075
16682SOL     OW54892   0.213   2.379   2.446 -0.2283  0.2465  0.0568
16682SOL    HW154893   0.211   2.321   2.370 -0.8941  0.4420 -0.0799
16682SOL    HW254894   0.121   2.401   2.463 -0.1977 -0.5902  1.5388
16683SOL     OW54895   6.214   3.138   0.092 -0.2445 -0.0399  0.3356
16683SOL    HW154896   6.197   3.211   0.033  0.0675  0.4657  0.8609
16683SOL    HW254897   6.235   3.179   0.176 -1.2342 -0.7481  0.9572
16684SOL     OW54898   2.777   7.896   6.793 -0.0576  0.5128  0.2346
16684SOL    HW154899   2.863   7.926   6.763 -0.5488  1.0685 -0.6708
16684SOL    HW254900   2.727   7.977   6.806 -0.9913  0.1540 -0.9574
16685SOL     OW54901   0.243   4.956   9.565 -0.4077  0.1774 -0.5603
16685SOL    HW154902   0.287   4.876   9.537 -1.4348 -0.1034 -1.4350
16685SOL    HW254903   0.263   4.964   9.658  2.0327  0.4352 -1.0463
16686SOL     OW54904   1.854   5.714   3.002  0.3523  0.1305  0.3431
16686SOL    HW154905   1.764   5.684   2.991  0.1155  0.6010  0.9403
16686SOL    HW254906   1.849   5.810   2.996  0.9536  0.1268 -0.5636
16687SOL     OW54907   0.208   5.496   1.118 -0.1017  0.0749 -0.2903
16687SOL    HW154908   0.217   5.403   1.137  1.2792  0.4126  0.9723
16687SOL    HW254909   0.242   5.506   1.030 -0.8707 -0.6967 -0.6873
16688SOL     OW54910   9.304   7.834   9.410  0.8995  0.4573  0.3110
16688SOL    HW154911   9.286   7.868   9.322  2.0779  0.8796  0.2138
16688SOL    HW254912   9.281   7.742   9.406  0.4000  0.6073 -0.2805
16689SOL     OW54913   4.417   4.578   4.180  0.1119  0.4529 -0.6294
16689SOL    HW154914   4.326   4.598   4.157 -1.1410 -0.1141  3.2011
16689SOL    HW254915   4.422   4.482   4.177  0.3678  0.4494 -0.1842
16690SOL     OW54916   7.265   4.327   3.094 -1.0130 -0.3744  0.4892
16690SOL    HW154917   7.334   4.262   3.082 -0.3500  0.2646  0.8011
16690SOL    HW254918   7.279   4.362   3.182 -0.6193  1.0301 -0.1014
16691SOL     OW54919   3.237   1.991   1.457  0.3665  0.2004 -0.6748
16691SOL    HW154920   3.274   1.906   1.433  1.6291 -0.6185  3.3806
16691SOL    HW254921   3.151   1.970   1.495  0.6254  0.6726  0.2128
16692SOL     OW54922   2.739   9.074   9.363 -0.0545  0.1251 -0.6307
16692SOL    HW154923   2.680   8.999   9.371 -0.9155  0.9636  1.7936
16692SOL    HW254924   2.820   9.046   9.405 -1.1149  1.1482  2.3732
16693SOL     OW54925   0.163   9.649   1.785 -0.2077  0.0992 -0.2392
16693SOL    HW154926   0.112   9.730   1.786  0.8928  0.8031  1.5062
16693SOL    HW254927   0.216   9.655   1.706  0.9654  1.8115  0.6391
16694SOL     OW54928   9.229   0.252   4.633  0.3096 -0.0096  0.4008
16694SOL    HW154929   9.315   0.211   4.636 -0.0706 -0.7996  0.9775
16694SOL    HW254930   9.193   0.238   4.720  0.3117  1.9192  0.7505
16695SOL     OW54931   2.317   7.275   4.226  0.2157  0.5312  0.3587
16695SOL    HW154932   2.389   7.309   4.173  2.1314 -1.6956  1.3341
16695SOL    HW254933   2.287   7.197   4.179  1.8580 -1.4090  2.2862
16696SOL     OW54934   3.498   1.052   3.169  0.2301 -0.5391  0.0524
16696SOL    HW154935   3.573   1.104   3.197  0.0470 -0.8526  1.2027
16696SOL    HW254936   3.433   1.116   3.140  0.1212 -0.1093  1.1769
16697SOL     OW54937   5.401   7.535   2.926 -0.8541 -0.2364 -0.0212
16697SOL    HW154938   5.363   7.547   2.839  0.1627 -1.9596 -0.7613
16697SOL    HW254939   5.481   7.587   2.925 -2.0563  1.7403  0.8151
16698SOL     OW54940   0.095   3.566   4.819  0.1107 -0.1059 -0.0048
16698SOL    HW154941   0.126   3.519   4.741 -0.8510 -0.4260 -0.2057
16698SOL    HW254942   0.004   3.588   4.798 -0.6707 -1.5466  1.6257
16699SOL     OW54943   7.680   7.910   1.543  0.0993  0.1514  0.3653
16699SOL    HW154944   7.692   7.884   1.452 -0.9737  1.0051 -0.0356
16699SOL    HW254945   7.595   7.954   1.546  1.0670  2.1443  1.3004
16700SOL     OW54946   6.374   7.373   4.886 -0.1582 -0.1583  0.4053
16700SOL    HW154947   6.283   7.402   4.887 -0.4839 -1.1394  0.3160
16700SOL    HW254948   6.414   7.418   4.961 -1.3903 -1.7318  2.1053
16701SOL     OW54949   1.885   7.834   4.679  0.4046  0.3058  0.3670
16701SOL    HW154950   1.894   7.927   4.698 -0.0229  0.3494  0.3743
16701SOL    HW254951   1.970   7.796   4.700  0.5633  0.6862  0.4123
16702SOL     OW54952   3.122   0.851   6.469 -0.1987 -0.0443  0.1120
16702SOL    HW154953   3.049   0.808   6.514 -0.8372 -0.3032 -1.1234
16702SOL    HW254954   3.186   0.781   6.455 -1.5755 -0.9064 -2.6120
16703SOL     OW54955   5.904   3.629   8.674 -0.1988  0.4219  0.1249
16703SOL    HW154956   5.979   3.598   8.725 -0.3738  0.0286  0.1499
16703SOL    HW254957   5.933   3.711   8.635  0.8363 -0.5687 -1.2544
16704SOL     OW54958   3.895   4.466   2.808  0.1048 -0.4909 -0.5811
16704SOL    HW154959   3.868   4.463   2.900  0.3421  0.6767 -0.4561
16704SOL    HW254960   3.951   4.544   2.803 -1.6188  0.7083 -2.1629
16705SOL     OW54961   9.541   1.665   1.138 -0.2963 -0.6547  0.8643
16705SOL    HW154962   9.568   1.742   1.088  3.1138 -0.8940  2.0589
16705SOL    HW254963   9.453   1.646   1.107 -0.5202  2.5258 -0.8858
16706SOL     OW54964   8.908   1.178   8.307  0.3205 -0.6303  0.5865
16706SOL    HW154965   8.885   1.088   8.333  0.5594 -1.0690 -0.6188
16706SOL    HW254966   8.839   1.232   8.344 -0.0726 -1.3663  0.9650
16707SOL     OW54967   2.915   9.653   3.254  0.1657 -0.0497  0.1171
16707SOL    HW154968   2.855   9.723   3.282 -1.3043 -1.7177  1.3237
16707SOL    HW254969   3.001   9.694   3.254 -0.4111  1.3577  2.4578
16708SOL     OW54970   7.814   9.145   8.196  0.2206  0.1254 -0.2101
16708SOL    HW154971   7.766   9.125   8.116  0.5213 -0.8410 -0.1615
16708SOL    HW254972   7.906   9.142   8.170  0.3545 -1.0803  0.3460
16709SOL     OW54973   4.473   7.434   1.287 -0.0122  0.6077  0.3690
16709SOL    HW154974   4.481   7.503   1.354 -0.5810  0.8198  0.2218
16709SOL    HW254975   4.449   7.356   1.336  0.4540  0.5546  0.5161
16710SOL     OW54976   5.889   2.079   5.558  0.3780  0.1163  0.1833
16710SOL    HW154977   5.914   2.154   5.611 -0.2763  0.4749 -0.0041
16710SOL    HW254978   5.958   2.014   5.574  0.7131  0.5877  0.6870
16711SOL     OW54979   8.236   0.837   1.998 -0.0869 -0.0735  0.8585
16711SOL    HW154980   8.329   0.821   2.013  0.1716  0.5607 -0.0031
16711SOL    HW254981   8.197   0.839   2.086  0.4354 -1.8575  1.1766
16712SOL     OW54982   5.248   5.617   3.416  0.2423  0.0058  0.4217
16712SOL    HW154983   5.172   5.587   3.365 -0.4670  3.1575 -0.5572
16712SOL    HW254984   5.210   5.649   3.498  0.8998 -1.0224  1.1503
16713SOL     OW54985   4.103   8.482   9.539 -0.2761 -0.1627  0.0153
16713SOL    HW154986   4.033   8.481   9.473 -2.0701  0.8622  1.8061
16713SOL    HW254987   4.141   8.394   9.534 -1.0634 -0.4662 -1.6131
16714SOL     OW54988   7.337   9.662   5.314  0.7151  0.0754 -0.1433
16714SOL    HW154989   7.428   9.663   5.343  0.3532 -0.4427  1.0944
16714SOL    HW254990   7.303   9.748   5.340  1.0877  0.6259 -1.4459
16715SOL     OW54991   9.468   1.079   7.696 -0.4286 -0.0949  0.4304
16715SOL    HW154992   9.547   1.028   7.717  0.9809  1.0769 -1.7117
16715SOL    HW254993   9.431   1.035   7.620 -0.6929  0.5242  0.1986
16716SOL     OW54994   8.617   7.738   3.240  0.2413  0.1401  0.4657
16716SOL    HW154995   8.607   7.717   3.333  0.1211 -0.0612  0.4100
16716SOL    HW254996   8.711   7.745   3.227  0.2902 -0.4403  0.4770
16717SOL     OW54997   6.733   6.266   4.541  0.2895  0.3715 -0.2761
16717SOL    HW154998   6.650   6.219   4.529  0.5472  0.1225 -1.2380
16717SOL    HW254999   6.782   6.214   4.604  0.6062 -0.7421 -1.3970
16718SOL     OW55000   1.932   4.504   7.984  0.0139 -0.2604  0.3046
16718SOL    HW155001   1.888   4.571   7.931 -2.5781 -1.4089  0.8662
16718SOL    HW255002   1.963   4.552   8.062  2.2168  1.0677 -1.2792
16719SOL     OW55003   4.015   7.176   9.109  0.1325 -0.3071  0.0598
16719SOL    HW155004   3.968   7.098   9.138  2.5553 -1.2506  1.8601
16719SOL    HW255005   4.067   7.203   9.185  0.3888  2.3130 -0.9147
16720SOL     OW55006   6.488   1.845   8.237 -0.5633  0.4158 -0.6254
16720SOL    HW155007   6.405   1.821   8.279 -1.3450 -0.3638 -2.5135
16720SOL    HW255008   6.544   1.768   8.250  0.1472  1.1844  1.2069
16721SOL     OW55009   8.593   6.598   4.895 -0.1242  0.0286  0.2486
16721SOL    HW155010   8.526   6.530   4.887  1.2166 -1.2844 -0.2027
16721SOL    HW255011   8.561   6.670   4.841 -1.2918 -0.4515  0.2758
16722SOL     OW55012   2.558   5.420   0.398  0.2628  0.7260  0.8978
16722SOL    HW155013   2.466   5.444   0.400  0.1132  0.1720  0.9271
16722SOL    HW255014   2.603   5.493   0.441 -0.3219  0.3614  2.1820
16723SOL     OW55015   5.379   6.217   3.427  0.1134  0.5920  0.0572
16723SOL    HW155016   5.346   6.200   3.515  0.0194  0.6281  0.0279
16723SOL    HW255017   5.354   6.307   3.408 -1.1461  0.1340 -0.5804
16724SOL     OW55018   2.324   7.931   6.728 -0.6693  0.2566 -0.2214
16724SOL    HW155019   2.351   7.938   6.819  2.2739  0.6072 -1.0351
16724SOL    HW255020   2.406   7.927   6.678 -2.1673 -0.1633 -2.8505
16725SOL     OW55021   8.213   9.298   4.989  0.0825  0.2327  0.4810
16725SOL    HW155022   8.197   9.278   4.897 -0.2235  0.2254  0.5374
16725SOL    HW255023   8.155   9.372   5.009  1.1293  1.1316  0.3045
16726SOL     OW55024   1.104   9.660   2.019 -0.4711  0.5463  0.0618
16726SOL    HW155025   1.055   9.648   2.100 -1.4353 -1.5665 -0.7376
16726SOL    HW255026   1.191   9.625   2.037 -0.2805  1.2590  0.5392
16727SOL     OW55027   6.655   5.197   3.150  0.2428  0.0444 -0.6325
16727SOL    HW155028   6.593   5.126   3.169 -1.1317  0.4790 -3.1189
16727SOL    HW255029   6.698   5.214   3.234 -0.2648 -2.8473  0.3397
16728SOL     OW55030   9.652   1.843   0.398  0.0853  0.0466  0.0458
16728SOL    HW155031   9.560   1.844   0.427  0.3652  0.9943  0.9508
16728SOL    HW255032   9.653   1.781   0.324 -1.4393  0.6540 -0.5221
16729SOL     OW55033   1.412   1.456   0.041 -0.0997  0.3316  0.5617
16729SOL    HW155034   1.367   1.527   0.087  0.7233  0.8003  0.6637
16729SOL    HW255035   1.422   1.387   0.107  0.3864  0.6995  0.8828
16730SOL     OW55036   9.010   6.706   2.027  0.3732  0.0139 -0.3059
16730SOL    HW155037   9.030   6.786   2.076 -1.6107  0.2107  0.2373
16730SOL    HW255038   9.063   6.713   1.947  1.3003  1.1688  0.3779
16731SOL     OW55039   0.997   0.846   1.497  0.0224  0.4904 -0.2307
16731SOL    HW155040   0.950   0.884   1.571 -0.3436  0.2150 -0.3192
16731SOL    HW255041   1.085   0.884   1.502 -0.4727  1.7439 -0.5996
16732SOL     OW55042   9.049   0.878   3.619 -0.7012  0.0759 -0.2302
16732SOL    HW155043   9.145   0.885   3.611 -0.8953  1.1680 -2.8095
16732SOL    HW255044   9.019   0.866   3.529 -3.0091 -0.5257  0.5552
16733SOL     OW55045   5.881   3.622   4.867  0.2908  0.0394  0.7930
16733SOL    HW155046   5.867   3.532   4.897 -1.5746  0.7867  2.3622
16733SOL    HW255047   5.821   3.675   4.920  0.6567  2.1162 -0.7319
16734SOL     OW55048   8.073   7.927   5.853  0.5012 -0.1425 -0.6493
16734SOL    HW155049   8.126   8.006   5.852  0.0450  0.2034  0.5204
16734SOL    HW255050   8.064   7.902   5.761  0.2166  1.4667 -1.0823
16735SOL     OW55051   3.125   1.416   0.673 -0.3641 -0.1795  0.0950
16735SOL    HW155052   3.057   1.482   0.684  0.6015  0.5378  2.3183
16735SOL    HW255053   3.132   1.405   0.578  0.1238  3.6654 -0.4725
16736SOL     OW55054   0.162   2.368   5.788  0.0089  0.4752  0.4088
16736SOL    HW155055   0.250   2.395   5.761  0.0556 -0.3995 -0.3929
16736SOL    HW255056   0.158   2.275   5.765 -2.0239  1.0649 -2.1070
16737SOL     OW55057   5.344   0.317   8.926 -0.8382 -0.1848 -0.2927
16737SOL    HW155058   5.417   0.255   8.935  0.4888  1.0297 -1.9406
16737SOL    HW255059   5.286   0.297   8.999  0.2572 -2.3837  0.0602
16738SOL     OW55060   0.612   8.925   9.066  0.2863  0.3295  0.1245
16738SOL    HW155061   0.634   8.925   8.973  0.8893  0.5201  0.2645
16738SOL    HW255062   0.692   8.955   9.110  0.4458 -0.9705  0.7930
16739SOL     OW55063   8.746   9.470   5.368  0.1924 -0.2326 -0.1770
16739SOL    HW155064   8.791   9.535   5.314  2.0195 -0.6375  0.7621
16739SOL    HW255065   8.749   9.507   5.456  0.7015 -1.2728  0.2604
16740SOL     OW55066   4.187   1.489   0.561  0.4535 -0.4008  0.1034
16740SOL    HW155067   4.092   1.476   0.566  0.4366  0.0697  2.7520
16740SOL    HW255068   4.224   1.404   0.584  0.7103 -0.7589 -1.5739
16741SOL     OW55069   9.046   2.566   9.709 -0.4359 -0.4094  0.1981
16741SOL    HW155070   8.997   2.632   9.758 -0.5554  0.4593 -1.0543
16741SOL    HW255071   9.129   2.609   9.687 -0.1099 -1.0236  0.2021
16742SOL     OW55072   0.474   1.412   5.535  0.1469 -0.0757 -0.4233
16742SOL    HW155073   0.413   1.458   5.477  0.1307  0.6174  0.1338
16742SOL    HW255074   0.419   1.372   5.602  0.3193  0.9408  0.3483
16743SOL     OW55075   6.163   7.926   6.723 -0.2369  0.2567  0.1879
16743SOL    HW155076   6.155   7.935   6.818  0.1201  2.4642  0.0723
16743SOL    HW255077   6.234   7.987   6.700 -0.0938 -0.4887 -1.4640
16744SOL     OW55078   3.534   6.507   0.787 -0.1872  0.5525  0.2281
16744SOL    HW155079   3.548   6.587   0.735 -1.1717  0.8546  0.4046
16744SOL    HW255080   3.443   6.514   0.817 -0.8260 -1.4354 -1.0951
16745SOL     OW55081   1.703   2.467   2.259 -0.2176  0.1840  0.6178
16745SOL    HW155082   1.763   2.394   2.245  0.3830  1.2260 -3.7433
16745SOL    HW255083   1.741   2.516   2.332  2.3321 -1.0564  0.2488
16746SOL     OW55084   5.946   4.471   1.945  0.4111  0.0536 -0.0332
16746SOL    HW155085   5.900   4.553   1.962  1.0572  0.2124  1.0626
16746SOL    HW255086   5.892   4.404   1.987  0.7778  0.1461  0.5984
16747SOL     OW55087   0.971   9.567   8.579  0.2027 -0.0946  0.2921
16747SOL    HW155088   0.916   9.626   8.629  2.4394  1.6979  0.7750
16747SOL    HW255089   0.966   9.484   8.626  1.4379  1.2545  3.0243
16748SOL     OW55090   4.546   2.926   9.168  0.0864  0.1172  0.0143
16748SOL    HW155091   4.515   2.965   9.086 -0.4805 -0.4108 -0.0229
16748SOL    HW255092   4.485   2.959   9.234  0.3019  0.2161  0.1646
16749SOL     OW55093   0.598   4.599   6.653 -0.0296 -0.3545  0.0279
16749SOL    HW155094   0.593   4.504   6.648  1.1308 -0.3721 -1.5008
16749SOL    HW255095   0.669   4.623   6.594 -0.9860  1.5409 -0.4582
16750SOL     OW55096   9.605   0.571   8.666 -0.7077  0.6812  0.6293
16750SOL    HW155097   9.623   0.624   8.744 -0.4526  1.5287  0.0063
16750SOL    HW255098   9.630   0.627   8.592  0.3917 -0.6256 -0.0336
16751SOL     OW55099   5.761   3.377   3.612  0.4609 -0.6179  0.2498
16751SOL    HW155100   5.762   3.291   3.655  0.6877 -0.5373  0.4064
16751SOL    HW255101   5.696   3.368   3.541  0.6749 -0.9957  0.1024
16752SOL     OW55102   0.413   7.991   1.810  0.3627 -0.9115  0.2646
16752SOL    HW155103   0.379   8.031   1.730  0.7130 -0.3117  0.4074
16752SOL    HW255104   0.362   8.031   1.880  1.4574  0.1363  0.4964
16753SOL     OW55105   5.250   5.116   9.682  0.3148 -0.0263  0.0486
16753SOL    HW155106   5.175   5.057   9.671 -0.5008  1.1892 -1.2121
16753SOL    HW255107   5.211   5.201   9.701  1.4364  0.3403  0.7786
16754SOL     OW55108   3.990   8.186   0.524  0.7481 -0.2515  0.3757
16754SOL    HW155109   4.013   8.191   0.431 -1.2792  0.8362 -0.1376
16754SOL    HW255110   3.915   8.127   0.527  1.1192 -0.6886  1.4000
16755SOL     OW55111   4.166   3.538   3.312 -0.4846  0.1535  0.1129
16755SOL    HW155112   4.166   3.465   3.374 -1.6793 -0.1346 -0.1970
16755SOL    HW255113   4.074   3.561   3.303 -0.1069  1.9665  0.4925
16756SOL     OW55114   3.795   5.383   5.501  0.2544 -0.0247 -0.3316
16756SOL    HW155115   3.865   5.424   5.450 -0.9112  0.0573 -1.9616
16756SOL    HW255116   3.773   5.447   5.569  2.5891 -0.5953  1.0465
16757SOL     OW55117   5.029   0.225   1.430 -0.4805  0.4025 -0.1165
16757SOL    HW155118   4.960   0.191   1.487 -0.5180  0.0136 -0.3937
16757SOL    HW255119   5.110   0.200   1.474 -0.4876 -0.8477 -0.7598
16758SOL     OW55120   6.364   5.377   3.319 -0.1114  0.0363 -0.5596
16758SOL    HW155121   6.395   5.399   3.231  0.2478 -0.3716 -0.5406
16758SOL    HW255122   6.334   5.286   3.311  0.4758 -0.2033 -0.1258
16759SOL     OW55123   3.992   1.352   3.834  0.2885  0.6659  0.3686
16759SOL    HW155124   4.049   1.352   3.910  0.2860 -1.0209  0.4032
16759SOL    HW255125   3.905   1.372   3.868  0.6719  2.3938  0.4305
16760SOL     OW55126   8.990   9.396   2.235 -0.0661 -0.2873 -0.1315
16760SOL    HW155127   8.983   9.310   2.276 -0.1255  0.0146  0.5121
16760SOL    HW255128   8.948   9.386   2.150 -2.3960 -0.2754  0.9308
16761SOL     OW55129   0.191   7.537   9.740  0.0018 -0.6021  0.5788
16761SOL    HW155130   0.280   7.501   9.731  0.6958  1.0967  0.2641
16761SOL    HW255131   0.147   7.509   9.660  1.0455  0.5978 -0.4542
16762SOL     OW55132   7.364   0.094   5.062 -0.4934 -0.0513  0.1810
16762SOL    HW155133   7.387   0.141   4.982 -0.0677  0.0164  0.3389
16762SOL    HW255134   7.371   0.002   5.038  0.0962 -0.0339  0.2625
16763SOL     OW55135   5.822   4.048   6.580 -0.3735  0.0521 -0.0687
16763SOL    HW155136   5.782   3.961   6.583 -1.3113  0.5099  1.5403
16763SOL    HW255137   5.759   4.102   6.533  0.3367 -0.1666 -1.3191
16764SOL     OW55138   3.114   4.067   7.502 -0.4264 -0.2055  0.4091
16764SOL    HW155139   3.090   4.149   7.545 -0.8086  0.0472 -0.2763
16764SOL    HW255140   3.035   4.014   7.506 -0.4218 -0.2324  0.1437
16765SOL     OW55141   6.891   6.394   9.604 -0.1835  0.2168  0.1206
16765SOL    HW155142   6.831   6.372   9.675 -0.0201  0.0946  0.2194
16765SOL    HW255143   6.834   6.414   9.530 -0.3665  0.7009  0.3848
16766SOL     OW55144   7.525   6.119   6.405  0.5013  0.3090  0.6033
16766SOL    HW155145   7.466   6.098   6.332  0.5665 -0.7076  0.8382
16766SOL    HW255146   7.578   6.040   6.417  2.6952  1.5444 -0.3114
16767SOL     OW55147   6.471   4.913   4.211  0.4885 -0.2469  0.9634
16767SOL    HW155148   6.445   4.882   4.124  1.0498  1.2121  0.2472
16767SOL    HW255149   6.394   4.956   4.246  0.8314  0.9022  0.3449
16768SOL     OW55150   2.928   1.201   3.503  0.1696  0.2747 -0.0789
16768SOL    HW155151   2.850   1.196   3.447 -0.5399  1.3710  0.7797
16768SOL    HW255152   2.966   1.287   3.485  0.3577  0.3350  0.5700
16769SOL     OW55153   0.584   9.575   5.699  0.1297 -0.7915  0.0882
16769SOL    HW155154   0.609   9.516   5.769 -0.3981  0.1008  1.0571
16769SOL    HW255155   0.654   9.640   5.696  0.4107 -1.1058 -0.5820
16770SOL     OW55156   6.901   0.041   8.992  0.2913 -0.6641 -0.1058
16770SOL    HW155157   6.900  -0.048   8.956  0.0339  0.3977 -3.0320
16770SOL    HW255158   6.965   0.088   8.939  0.8535  0.8064  1.7554
16771SOL     OW55159   7.048   2.579   1.141  0.1139 -0.0059 -0.6548
16771SOL    HW155160   7.036   2.546   1.052 -1.4053 -1.8024  0.1608
16771SOL    HW255161   7.138   2.556   1.162 -0.4696 -2.5470 -0.6240
16772SOL     OW55162   1.215   6.433   9.097  0.0982  0.1393 -0.0765
16772SOL    HW155163   1.141   6.372   9.089  1.4852 -1.9297  1.8068
16772SOL    HW255164   1.186   6.511   9.049 -3.5757 -0.2981  1.0573
16773SOL     OW55165   7.372   6.927   5.039 -0.4618  0.2702  0.3017
16773SOL    HW155166   7.362   7.022   5.038 -1.5608  0.2467  2.5187
16773SOL    HW255167   7.329   6.899   5.120 -0.6396 -2.1771 -0.5468
16774SOL     OW55168   6.906   7.335   7.935  0.0739  0.0610 -0.5652
16774SOL    HW155169   6.996   7.304   7.931  0.0954  0.1693 -1.0050
16774SOL    HW255170   6.901   7.404   7.869 -0.0336  0.8367  0.2402
16775SOL     OW55171   0.535   8.464   6.290 -0.3347  0.3600 -0.2915
16775SOL    HW155172   0.571   8.509   6.366  0.9429  0.3948 -0.8891
16775SOL    HW255173   0.542   8.371   6.311 -1.3896  0.3982  0.2462
16776SOL     OW55174   4.641   1.957   7.316  0.0058 -0.3194 -0.3554
16776SOL    HW155175   4.555   1.955   7.272 -0.8929  1.5089  1.2006
16776SOL    HW255176   4.691   2.022   7.268  0.4585 -1.1908 -1.0932
16777SOL     OW55177   6.819   2.909   1.718 -0.3977  0.1740 -0.0330
16777SOL    HW155178   6.749   2.971   1.738 -1.5808 -1.1031 -0.1147
16777SOL    HW255179   6.789   2.826   1.755  0.8379 -0.5286 -0.5457
16778SOL     OW55180   7.950   1.246   5.147 -0.0179  0.2567  0.0514
16778SOL    HW155181   7.855   1.230   5.140 -0.0811  0.1498  1.0509
16778SOL    HW255182   7.975   1.207   5.230  0.9562  0.1028 -0.3014
16779SOL     OW55183   8.645   8.953   2.289  0.7973  0.2498  0.8556
16779SOL    HW155184   8.677   9.042   2.301 -1.5767  0.9300  2.7979
16779SOL    HW255185   8.652   8.912   2.375  2.9380 -1.9165 -0.2388
16780SOL     OW55186   0.589   0.085   1.514 -0.0103 -0.6918 -0.5250
16780SOL    HW155187   0.614   0.177   1.516 -0.4937 -0.5780  0.7227
16780SOL    HW255188   0.570   0.067   1.422  1.3909  0.0897 -0.9985
16781SOL     OW55189   7.196   2.911   5.507 -0.4228 -0.3341 -0.5051
16781SOL    HW155190   7.108   2.921   5.471 -0.4881  0.1984 -0.2156
16781SOL    HW255191   7.208   2.817   5.517 -1.5410 -0.3645  0.8501
16782SOL     OW55192   2.821   2.329   8.479  0.2182 -0.3677 -0.0278
16782SOL    HW155193   2.799   2.280   8.558  0.6746  0.1379  0.4160
16782SOL    HW255194   2.819   2.264   8.409 -1.6032 -0.5647  0.1560
16783SOL     OW55195   9.303   2.339   2.300 -0.6728  0.2007 -0.3190
16783SOL    HW155196   9.317   2.411   2.239 -2.5486  0.4569 -0.5224
16783SOL    HW255197   9.277   2.381   2.381 -1.3294 -0.2194 -0.3039
16784SOL     OW55198   0.978   2.384   3.990 -0.8413  0.1349 -0.2941
16784SOL    HW155199   0.957   2.291   3.983  1.4169 -0.4015 -0.8866
16784SOL    HW255200   0.941   2.423   3.911 -2.6997 -0.0241  0.4575
16785SOL     OW55201   7.703   1.296   6.219  0.2864  0.0460 -0.4826
16785SOL    HW155202   7.707   1.296   6.315  1.9640  0.7497 -0.5205
16785SOL    HW255203   7.789   1.326   6.191 -0.1333 -0.2552 -2.2327
16786SOL     OW55204   4.935   3.306   6.980  0.2323  0.3539  0.5739
16786SOL    HW155205   4.999   3.268   6.919  0.4590  1.9490 -0.2548
16786SOL    HW255206   4.963   3.397   6.989 -0.7189  0.5349  1.8651
16787SOL     OW55207   4.213   5.073   5.126 -0.6412 -0.4933  1.0337
16787SOL    HW155208   4.170   5.147   5.084 -0.5975 -0.4698  1.0295
16787SOL    HW255209   4.264   5.113   5.197 -0.4740 -0.4989  0.9190
16788SOL     OW55210   6.623   1.938   6.200 -0.0093 -0.2445 -0.1887
16788SOL    HW155211   6.662   1.929   6.113  1.6336  1.7254  0.2581
16788SOL    HW255212   6.567   2.016   6.193 -1.1383 -1.0006  0.1233
16789SOL     OW55213   6.469   7.362   4.029  0.9747 -0.0925  0.6086
16789SOL    HW155214   6.530   7.339   3.959 -1.4354 -1.2664 -1.2435
16789SOL    HW255215   6.489   7.454   4.049  1.6955  0.3102 -1.7019
16790SOL     OW55216   6.089   4.366   2.981  0.5317 -0.0272 -0.1615
16790SOL    HW155217   6.056   4.280   2.953  0.0973  0.4677 -1.2663
16790SOL    HW255218   6.020   4.400   3.037 -0.4113  0.5708 -1.6363
16791SOL     OW55219   2.528   1.048   4.493  0.0455 -0.5381 -0.8745
16791SOL    HW155220   2.547   1.109   4.564  0.2427  0.7733 -2.0074
16791SOL    HW255221   2.535   1.100   4.413 -0.9691 -1.7587 -1.8268
16792SOL     OW55222   7.010   8.054   8.737 -0.3807 -0.0879 -0.0879
16792SOL    HW155223   7.005   8.108   8.816 -0.4171  2.1490 -1.5510
16792SOL    HW255224   6.919   8.028   8.721 -0.5716  0.5786 -0.1256
16793SOL     OW55225   3.893   2.256   8.279 -0.1822  0.5685  0.4241
16793SOL    HW155226   3.841   2.282   8.355 -1.2414 -1.5045  0.4813
16793SOL    HW255227   3.982   2.281   8.300 -0.5652  0.6292  2.0658
16794SOL     OW55228   2.065   6.714   7.906 -0.2747 -0.4481  0.3105
16794SOL    HW155229   2.016   6.657   7.846 -0.0360 -2.0303  1.5288
16794SOL    HW255230   2.068   6.799   7.863 -0.3751 -1.4466 -1.7543
16795SOL     OW55231   4.287   3.097   2.423  0.6662  0.0497  0.2618
16795SOL    HW155232   4.331   3.144   2.351 -0.5600  2.0217  0.7434
16795SOL    HW255233   4.256   3.016   2.382  2.7519 -0.3920 -0.6182
16796SOL     OW55234   8.128   3.423   6.326 -0.5989 -0.5404  0.5767
16796SOL    HW155235   8.155   3.510   6.299 -0.8156  0.0764  2.2121
16796SOL    HW255236   8.159   3.365   6.256  0.3974  0.7216 -0.0672
16797SOL     OW55237   5.200   6.277   9.482  0.3370 -0.5473  0.1499
16797SOL    HW155238   5.121   6.327   9.462 -0.2613 -1.7308 -0.5994
16797SOL    HW255239   5.272   6.332   9.454 -0.1712  0.8408  1.4595
16798SOL     OW55240   1.969   7.051   4.418  0.4978 -0.0489 -0.1915
16798SOL    HW155241   2.063   7.069   4.425  0.2716  0.6216  1.3980
16798SOL    HW255242   1.964   6.956   4.413  1.3030 -0.0590 -1.4715
16799SOL     OW55243   5.473   1.387   0.659  0.2402 -0.4374 -0.0583
16799SOL    HW155244   5.466   1.308   0.712 -0.0164 -1.4588 -1.5337
16799SOL    HW255245   5.445   1.359   0.571  0.4757  1.2102 -0.6940
16800SOL     OW55246   9.667   2.991   2.586 -0.4503  0.0040 -0.6404
16800SOL    HW155247   9.666   2.944   2.502 -0.9028 -1.2369  0.0378
16800SOL    HW255248   9.611   2.939   2.643  0.2093  0.5909  0.5687
16801SOL     OW55249   0.630   8.910   3.664 -0.5149 -0.2387  0.6182
16801SOL    HW155250   0.606   8.917   3.757 -2.6115 -2.0181  0.2948
16801SOL    HW255251   0.636   8.816   3.647  2.2056  0.0557 -0.5746
16802SOL     OW55252   4.146   6.068   1.962 -0.4228  0.4967 -0.0635
16802SOL    HW155253   4.181   5.984   1.933 -1.8588 -0.1271 -0.0681
16802SOL    HW255254   4.093   6.099   1.889  1.3814  2.2406 -0.7142
16803SOL     OW55255   5.224   3.879   7.653  0.0788 -0.1202 -0.5556
16803SOL    HW155256   5.185   3.965   7.639  1.8943  0.9431  0.6522
16803SOL    HW255257   5.167   3.837   7.718  1.5733  1.9614  2.2927
16804SOL     OW55258   4.892   0.082   3.871  0.0362 -0.4862  0.3252
16804SOL    HW155259   4.915   0.061   3.780  0.6301  0.6976  0.1771
16804SOL    HW255260   4.814   0.137   3.864  0.7015  0.5091  0.4352
16805SOL     OW55261   0.718   7.301   1.452 -0.2938 -0.4118  0.0844
16805SOL    HW155262   0.633   7.283   1.492  0.4186 -0.1593  1.7998
16805SOL    HW255263   0.780   7.250   1.504  0.6620 -0.2819 -0.8877
16806SOL     OW55264   7.174   7.558   0.223  0.5214  0.6292 -0.2933
16806SOL    HW155265   7.137   7.643   0.199  0.3996  0.3806 -0.9966
16806SOL    HW255266   7.268   7.573   0.223  0.5713  0.4670 -1.6498
16807SOL     OW55267   6.101   9.291   6.265 -0.3195  0.5106 -0.0440
16807SOL    HW155268   6.006   9.297   6.278 -0.4989  1.0290 -1.3529
16807SOL    HW255269   6.114   9.202   6.233 -0.7817  1.2250 -2.4668
16808SOL     OW55270   4.055   9.400   8.333 -0.0424 -0.4262  0.1716
16808SOL    HW155271   4.124   9.334   8.322  0.7364  0.0564  1.9120
16808SOL    HW255272   4.097   9.483   8.311 -0.4243 -0.2518  0.0832
16809SOL     OW55273   4.623   0.916   3.156 -0.0015 -0.1745  0.2013
16809SOL    HW155274   4.540   0.936   3.114  0.0204 -1.5182 -0.5600
16809SOL    HW255275   4.604   0.840   3.212  0.6873 -0.4749  0.0426
16810SOL     OW55276   3.309   4.364   8.431 -0.0488  0.3688  0.4522
16810SOL    HW155277   3.259   4.282   8.442  1.0822 -0.4732 -0.4861
16810SOL    HW255278   3.244   4.433   8.444 -0.9424 -0.6577  1.7324
16811SOL     OW55279   3.947   6.534   4.191 -0.0700 -0.3562 -0.5643
16811SOL    HW155280   4.015   6.515   4.126  0.0640 -0.1999 -0.4702
16811SOL    HW255281   3.966   6.475   4.264 -0.7543 -1.1787 -1.0303
16812SOL     OW55282   4.392   4.853   1.628  0.7583 -0.3442  0.0668
16812SOL    HW155283   4.313   4.812   1.662  2.1998 -1.8113  1.8742
16812SOL    HW255284   4.374   4.865   1.535 -1.7496 -0.1598  0.5015
16813SOL     OW55285   1.665   2.918   9.075  0.1637  0.4765  0.3009
16813SOL    HW155286   1.572   2.915   9.052  0.2337 -0.1216  0.0537
16813SOL    HW255287   1.667   2.944   9.167 -0.1771  1.9110 -0.0743
16814SOL     OW55288   5.992   2.171   1.432 -0.0129  0.3900  0.2909
16814SOL    HW155289   6.079   2.210   1.438  1.3154 -1.7390 -2.9383
16814SOL    HW255290   5.991   2.104   1.501  0.5434  0.9993  0.9102
16815SOL     OW55291   7.905   8.827   1.732 -0.4626 -0.2698 -0.0728
16815SOL    HW155292   7.932   8.801   1.821 -0.5737  0.8213  0.2914
16815SOL    HW255293   7.893   8.744   1.686 -1.3367 -0.8911  1.2015
16816SOL     OW55294   9.584   1.242   5.764  0.5284 -0.0482  0.3502
16816SOL    HW155295   9.535   1.162   5.783  0.9899 -0.4671 -0.1916
16816SOL    HW255296   9.531   1.313   5.802  0.2135 -0.6249  0.9990
16817SOL     OW55297   7.419   9.524   8.438 -0.0376  0.0598 -0.4709
16817SOL    HW155298   7.466   9.597   8.396  1.4486  0.0836  1.1102
16817SOL    HW255299   7.470   9.505   8.516 -2.2321 -0.5173  0.9128
16818SOL     OW55300   6.215   5.675   6.356  0.5428  0.0729 -0.0051
16818SOL    HW155301   6.158   5.752   6.362  1.3127  0.7375 -0.7270
16818SOL    HW255302   6.217   5.655   6.262  1.5056  0.0934  0.0006
16819SOL     OW55303   5.216   6.984   9.364 -0.0089 -0.3204 -0.3035
16819SOL    HW155304   5.296   6.938   9.338  0.1266 -0.1748 -0.1512
16819SOL    HW255305   5.214   7.061   9.307  0.4474  0.1575  0.3083
16820SOL     OW55306   8.101   5.442   0.532 -0.1480 -0.1034 -0.3106
16820SOL    HW155307   8.128   5.472   0.618  0.5880  0.1957 -0.6407
16820SOL    HW255308   8.092   5.523   0.480  1.4434 -0.3844 -1.0864
16821SOL     OW55309   0.438   1.243   0.152  0.1689 -0.2009  0.9280
16821SOL    HW155310   0.473   1.229   0.064  1.9600  0.4992  1.4925
16821SOL    HW255311   0.360   1.298   0.139  0.0524 -0.6325 -0.2550
16822SOL     OW55312   2.242   6.980   2.880  0.2723 -0.4218 -0.4983
16822SOL    HW155313   2.231   7.061   2.930  0.0014 -0.6502 -0.1895
16822SOL    HW255314   2.153   6.951   2.861  0.3672 -0.2037 -1.3424
16823SOL     OW55315   2.296   3.908   6.349  0.1808  0.1488  0.7170
16823SOL    HW155316   2.241   3.984   6.368 -0.9040 -0.6205  0.7200
16823SOL    HW255317   2.357   3.903   6.423 -2.3785 -1.3618  2.9028
16824SOL     OW55318   1.652   3.980   5.057  0.2114  0.3317  0.4369
16824SOL    HW155319   1.602   4.018   5.129  1.7558  0.7764  1.3128
16824SOL    HW255320   1.596   3.991   4.980 -1.3943  0.0036  1.5124
16825SOL     OW55321   5.467   6.190   6.993 -0.3366  0.6610  0.2280
16825SOL    HW155322   5.433   6.103   6.974 -1.6453  0.9433  1.2243
16825SOL    HW255323   5.555   6.174   7.027 -0.4021 -0.2372 -0.0023
16826SOL     OW55324   1.843   2.929   7.684  0.0242 -0.1894  0.3033
16826SOL    HW155325   1.751   2.942   7.709 -0.2660 -0.0161 -0.8219
16826SOL    HW255326   1.841   2.919   7.589  1.0907 -0.9799  0.3463
16827SOL     OW55327   3.755   1.426   3.448  0.4612  0.6920  0.0839
16827SOL    HW155328   3.720   1.337   3.438  1.0295  0.4929 -0.1972
16827SOL    HW255329   3.834   1.415   3.502  1.0671  0.8823 -0.7340
16828SOL     OW55330   7.716   0.669   1.620 -0.1944 -0.1384 -0.0312
16828SOL    HW155331   7.723   0.765   1.618  1.3204 -0.2137  0.4411
16828SOL    HW255332   7.793   0.641   1.670 -0.0627 -1.6508 -1.0376
16829SOL     OW55333   2.771   2.212   8.232  0.1881 -0.0438 -0.2350
16829SOL    HW155334   2.766   2.303   8.204 -0.5265  0.4884  1.5368
16829SOL    HW255335   2.805   2.166   8.155  1.8814  1.8926 -0.7302
16830SOL     OW55336   8.940   3.830   6.345 -0.6100 -0.3892  0.4230
16830SOL    HW155337   8.998   3.906   6.345 -2.2232  0.9362  1.5507
16830SOL    HW255338   8.975   3.774   6.414 -0.5037  0.2801  0.9287
16831SOL     OW55339   5.224   0.884   8.373  0.3156  0.7078 -0.3761
16831SOL    HW155340   5.140   0.917   8.342  0.3640  1.6053  0.4158
16831SOL    HW255341   5.205   0.840   8.456  0.1008 -2.1609 -1.7991
16832SOL     OW55342   3.034   1.902   7.780 -0.3318  0.1800  0.3942
16832SOL    HW155343   3.048   1.979   7.725  0.5862  0.1729  0.6010
16832SOL    HW255344   2.939   1.895   7.789 -0.4351  1.0008 -0.0297
16833SOL     OW55345   1.143   2.055   1.611 -0.0277  0.4079  0.0912
16833SOL    HW155346   1.214   2.110   1.644  1.1796 -0.8880 -0.2491
16833SOL    HW255347   1.187   1.986   1.563 -1.5984  0.2722 -1.2324
16834SOL     OW55348   2.848   6.890   1.310 -0.1376 -0.4959  0.2323
16834SOL    HW155349   2.859   6.795   1.305 -1.3363 -0.6552  0.2960
16834SOL    HW255350   2.888   6.923   1.229 -0.4512 -1.1341 -0.1927
16835SOL     OW55351   0.389   2.279   6.177 -0.0281 -0.4081  0.4654
16835SOL    HW155352   0.403   2.228   6.256 -1.5529 -2.5837 -0.5741
16835SOL    HW255353   0.295   2.272   6.160 -0.0867  1.7511 -0.4304
16836SOL     OW55354   8.368   0.415   4.083 -0.5359 -0.4776 -0.0721
16836SOL    HW155355   8.463   0.421   4.093 -0.1721 -1.9680 -2.0188
16836SOL    HW255356   8.334   0.409   4.173  1.0662  1.2740  0.7148
16837SOL     OW55357   2.749   3.401   5.497  0.0730  0.0811 -0.2274
16837SOL    HW155358   2.747   3.321   5.550 -2.6623 -0.9262 -1.6079
16837SOL    HW255359   2.697   3.379   5.420  0.7210  2.6831 -1.5144
16838SOL     OW55360   0.508   2.721   1.415 -0.0283 -0.0453  0.5711
16838SOL    HW155361   0.568   2.647   1.418  0.7998  0.6048  0.4731
16838SOL    HW255362   0.480   2.733   1.505 -2.2020 -2.0603  0.2623
16839SOL     OW55363   4.915   6.146   0.039  0.2296  0.7832  0.1908
16839SOL    HW155364   4.904   6.227  -0.010  2.2943  1.1224  0.1926
16839SOL    HW255365   4.965   6.089  -0.020  0.1495  0.0913  0.7757
16840SOL     OW55366   8.197   7.596   0.781  0.1080  0.2561  0.8431
16840SOL    HW155367   8.266   7.662   0.773  1.5793 -1.3040 -0.2062
16840SOL    HW255368   8.118   7.645   0.802  1.0320  2.3880 -0.4063
16841SOL     OW55369   7.753   6.715   5.895  0.2896 -0.0435 -0.1465
16841SOL    HW155370   7.831   6.746   5.941  1.3161 -1.2644 -0.9850
16841SOL    HW255371   7.704   6.666   5.961 -0.7455  2.1967  0.8703
16842SOL     OW55372   2.727   3.502   0.976  0.2326 -0.3563 -0.0081
16842SOL    HW155373   2.774   3.577   0.941 -0.1152  0.1215  0.5226
16842SOL    HW255374   2.667   3.476   0.907  0.8118 -0.5661 -0.4440
16843SOL     OW55375   7.778   5.223   9.679 -0.0244 -0.0042  0.0893
16843SOL    HW155376   7.826   5.151   9.639 -0.0967 -0.2674  0.4688
16843SOL    HW255377   7.688   5.192   9.684  0.0145 -0.0470  0.6099
16844SOL     OW55378   8.522   7.571   2.670 -0.3039 -0.5111  0.7715
16844SOL    HW155379   8.454   7.601   2.611  0.6944 -1.1515 -0.7721
16844SOL    HW255380   8.502   7.479   2.685  0.6483 -0.9401 -0.3919
16845SOL     OW55381   2.524   6.102   8.422  0.4138  0.0892 -0.1454
16845SOL    HW155382   2.483   6.170   8.475  2.0823  0.0272  1.3093
16845SOL    HW255383   2.602   6.076   8.472  1.9375 -0.1664 -2.5038
16846SOL     OW55384   0.255   9.017   5.861 -0.3211  0.4616 -0.5767
16846SOL    HW155385   0.215   8.951   5.918  2.8022 -0.9521  0.1956
16846SOL    HW255386   0.287   9.084   5.922 -1.2663  1.4831 -1.1642
16847SOL     OW55387   7.320   8.179   5.720 -0.4636  0.1813 -0.0474
16847SOL    HW155388   7.311   8.270   5.694  0.9161  1.7921  4.2891
16847SOL    HW255389   7.388   8.179   5.787 -2.3707 -3.5731  2.2489
16848SOL     OW55390   1.345   0.260   9.486 -0.0085  0.1200  0.0441
16848SOL    HW155391   1.276   0.232   9.426  0.5782  0.7254 -0.9328
16848SOL    HW255392   1.354   0.354   9.469  0.3300  0.2507  0.9132
16849SOL     OW55393   1.316   6.838   0.716  0.0927  0.2116 -0.3191
16849SOL    HW155394   1.233   6.861   0.757 -0.6998 -0.1533 -1.6471
16849SOL    HW255395   1.334   6.910   0.656  0.5253  0.0905 -0.3361
16850SOL     OW55396   0.904   6.267   0.511  0.2340  0.1983 -0.0386
16850SOL    HW155397   0.903   6.181   0.554 -0.9483 -0.8907 -2.1023
16850SOL    HW255398   0.977   6.261   0.449 -0.3842  0.3583 -0.7840
16851SOL     OW55399   9.129   9.285   0.180  0.0976 -0.2580 -0.3703
16851SOL    HW155400   9.216   9.258   0.210  0.2570  0.2908 -0.3310
16851SOL    HW255401   9.091   9.330   0.255 -0.5546 -1.2360 -0.1058
16852SOL     OW55402   0.467   4.648   1.415  0.5992 -0.3090  0.2538
16852SOL    HW155403   0.448   4.676   1.326  2.0150  1.7759  0.5302
16852SOL    HW255404   0.393   4.677   1.467 -0.2211 -1.5144 -0.1888
16853SOL     OW55405   1.953   8.566   9.095 -0.0990 -0.0067 -0.3909
16853SOL    HW155406   1.958   8.476   9.064  0.2289 -0.4194  0.7895
16853SOL    HW255407   1.919   8.616   9.021 -0.9338 -1.2118 -0.8401
16854SOL     OW55408   4.716   5.824   0.683 -0.1395 -0.4111 -0.4565
16854SOL    HW155409   4.665   5.875   0.746  0.8800  0.7532 -0.5410
16854SOL    HW255410   4.767   5.764   0.737  2.0717  1.7827  0.0421
16855SOL     OW55411   7.326   8.985   7.689 -0.3730 -0.0665  0.0543
16855SOL    HW155412   7.335   8.892   7.710  0.1050 -0.0100  0.0966
16855SOL    HW255413   7.409   9.009   7.650 -0.3922  0.4133  0.3021
16856SOL     OW55414   2.470   6.099   4.661 -0.5980  0.9315 -0.3403
16856SOL    HW155415   2.539   6.036   4.683  0.0792  2.1188  1.0872
16856SOL    HW255416   2.483   6.117   4.568 -1.3802 -1.6774 -1.0337
16857SOL     OW55417   9.101   5.530   8.635  0.0561  0.2002  0.2059
16857SOL    HW155418   9.190   5.554   8.661  1.5276 -1.8226 -2.4434
16857SOL    HW255419   9.057   5.505   8.717  1.5101  2.2156  1.7056
16858SOL     OW55420   6.654   1.922   4.174  0.0311 -0.7011 -0.3315
16858SOL    HW155421   6.573   1.887   4.137 -1.3692  2.3704 -0.4983
16858SOL    HW255422   6.697   1.964   4.100  0.0828  0.5437  0.3827
16859SOL     OW55423   7.433   9.115   2.057 -0.0242  0.4619 -0.0094
16859SOL    HW155424   7.465   9.082   2.141 -0.1209 -0.0290 -0.1653
16859SOL    HW255425   7.373   9.186   2.081 -2.1838 -1.4192  0.4780
16860SOL     OW55426   8.147   5.785   7.160  0.6022 -0.7591 -0.0001
16860SOL    HW155427   8.117   5.711   7.106  0.4164 -1.3640  0.9053
16860SOL    HW255428   8.126   5.759   7.249  0.7927  0.2836  0.3595
16861SOL     OW55429   0.076   9.661   8.744  0.1926  0.1688  0.0577
16861SOL    HW155430   0.081   9.573   8.706 -1.5388 -0.7613  1.7910
16861SOL    HW255431   0.143   9.661   8.813 -0.1172  0.0336  0.3611
16862SOL     OW55432   5.833   3.522   7.125 -0.2480  0.2585 -0.9104
16862SOL    HW155433   5.903   3.568   7.172 -2.5306 -0.9273  4.3645
16862SOL    HW255434   5.864   3.432   7.120 -0.2646  0.2693 -1.2191
16863SOL     OW55435   5.971   0.750   1.648 -0.4316  0.0784 -0.4659
16863SOL    HW155436   5.971   0.665   1.692 -1.6215  0.6032  0.6015
16863SOL    HW255437   5.970   0.814   1.719 -0.2269  0.9865 -1.2539
16864SOL     OW55438   8.343   3.091   7.307  0.4217 -0.2260 -0.4141
16864SOL    HW155439   8.304   3.177   7.320 -0.6798 -1.1680  4.1432
16864SOL    HW255440   8.268   3.033   7.291  0.4904 -1.0385  1.8649
16865SOL     OW55441   3.639   0.924   1.178  0.6426 -0.3727  0.0223
16865SOL    HW155442   3.636   0.965   1.092  0.1991  0.6993  0.5322
16865SOL    HW255443   3.723   0.952   1.215  0.4958 -0.2021  0.2311
16866SOL     OW55444   0.583   8.958   7.248 -0.7379  0.0397  0.0468
16866SOL    HW155445   0.489   8.960   7.267 -0.4461 -2.3548  2.2968
16866SOL    HW255446   0.622   8.920   7.327  1.5847 -3.6541 -2.5997
16867SOL     OW55447   9.636   0.978   2.070 -0.4024  0.2908  0.1629
16867SOL    HW155448   9.706   0.916   2.092 -1.0584 -0.3401  0.5161
16867SOL    HW255449   9.630   0.974   1.974 -0.5950 -0.3917  0.1912
16868SOL     OW55450   6.964   8.992   9.544 -0.0348  0.0287  0.2074
16868SOL    HW155451   7.038   9.044   9.512 -1.4189 -0.2128 -3.9943
16868SOL    HW255452   7.001   8.905   9.562  1.2094  0.7681  1.3813
16869SOL     OW55453   2.453   6.017   3.389 -0.3202 -0.0554  0.3361
16869SOL    HW155454   2.378   6.018   3.448 -0.6499 -2.4322  0.0603
16869SOL    HW255455   2.417   5.998   3.303  0.3609  1.4900 -0.3410
16870SOL     OW55456   7.467   9.611   2.603  0.2830 -0.5058 -0.3366
16870SOL    HW155457   7.523   9.575   2.671  0.3607  1.1028  0.5065
16870SOL    HW255458   7.438   9.695   2.638  0.7239  0.6164 -2.4756
16871SOL     OW55459   6.575   8.594   2.435  0.6622 -0.3353  0.3508
16871SOL    HW155460   6.604   8.671   2.484 -0.4763  0.2578  0.1284
16871SOL    HW255461   6.628   8.595   2.355  1.6640 -0.6174  0.9903
16872SOL     OW55462   6.511   2.539   4.422  0.4617 -0.0446  0.2107
16872SOL    HW155463   6.558   2.571   4.345  0.5727 -1.1680 -0.2088
16872SOL    HW255464   6.515   2.611   4.484 -0.1082  1.0905 -1.0267
16873SOL     OW55465   8.006   4.823   4.997  0.2799 -0.4975  0.2870
16873SOL    HW155466   8.094   4.798   4.967  0.6022  0.0104  0.7995
16873SOL    HW255467   8.009   4.813   5.092 -0.0537  0.0191  0.3542
16874SOL     OW55468   0.376   9.486   6.130  0.3069 -0.0726 -0.0511
16874SOL    HW155469   0.314   9.488   6.203  3.8122 -0.0610  3.2405
16874SOL    HW255470   0.388   9.577   6.106  0.6258  0.1271  0.8184
16875SOL     OW55471   7.217   4.088   0.114 -0.1733 -0.5335 -0.5805
16875SOL    HW155472   7.212   4.073   0.020  0.3773  0.5450 -0.8044
16875SOL    HW255473   7.304   4.055   0.139 -0.0650 -0.2520 -0.5755
16876SOL     OW55474   3.101   6.980   2.941  0.5850 -0.4265  0.5367
16876SOL    HW155475   3.048   7.048   2.983  1.4637  0.8050 -0.2875
16876SOL    HW255476   3.037   6.922   2.900 -0.1672  0.3897  0.5264
16877SOL     OW55477   6.431   5.569   1.343 -0.0973  0.2488 -0.3873
16877SOL    HW155478   6.507   5.628   1.345 -0.3110  0.5206 -0.2551
16877SOL    HW255479   6.469   5.482   1.334  0.2485  0.3465  0.0797
16878SOL     OW55480   9.029   2.606   7.287  0.5352 -0.2458  0.2148
16878SOL    HW155481   9.121   2.582   7.295 -0.0291 -2.4563  0.7207
16878SOL    HW255482   8.985   2.525   7.263 -1.3747  0.6202  0.5847
16879SOL     OW55483   3.975   1.269   1.463 -0.0384  0.0332  0.6150
16879SOL    HW155484   4.038   1.337   1.487  1.0857 -1.0121  0.7502
16879SOL    HW255485   3.975   1.209   1.538 -1.9640  0.5127  1.0538
16880SOL     OW55486   8.791   3.682   0.117  0.8979 -0.3258 -0.6570
16880SOL    HW155487   8.792   3.667   0.022 -1.7225  0.2480 -0.8420
16880SOL    HW255488   8.800   3.776   0.126  2.4093 -0.4919 -0.2382
16881SOL     OW55489   8.788   3.087   8.609  0.4102 -0.4724 -0.0122
16881SOL    HW155490   8.729   3.140   8.662 -0.4105 -0.8060 -0.5793
16881SOL    HW255491   8.866   3.076   8.664  0.4887  1.0659  0.2427
16882SOL     OW55492   7.531   4.332   6.213 -0.3056 -0.0865  0.1160
16882SOL    HW155493   7.464   4.400   6.221 -0.2939 -0.2149  1.4887
16882SOL    HW255494   7.602   4.360   6.271  0.7989 -0.0191 -1.2180
16883SOL     OW55495   3.953   8.866   0.478 -0.0309 -0.0535 -0.0725
16883SOL    HW155496   3.935   8.864   0.384  0.7791 -0.9021 -0.2208
16883SOL    HW255497   3.867   8.881   0.518 -0.9820 -2.8248 -0.8185
16884SOL     OW55498   7.396   5.601   1.323  0.1309  0.3562 -0.2574
16884SOL    HW155499   7.311   5.628   1.357 -0.3733 -0.4930 -0.7925
16884SOL    HW255500   7.406   5.649   1.240 -0.9086 -1.2339 -1.3699
16885SOL     OW55501   5.284   8.103   5.873  0.1195 -0.1928  0.0981
16885SOL    HW155502   5.334   8.133   5.949  1.2569  0.3013 -0.8273
16885SOL    HW255503   5.334   8.133   5.797 -1.2569 -0.2396 -0.8630
16886SOL     OW55504   9.274   6.882   2.306 -0.3866  0.2311  0.0748
16886SOL    HW155505   9.207   6.909   2.369  1.9348  2.5963  1.7417
16886SOL    HW255506   9.254   6.932   2.227 -0.9234  0.4373  0.3340
16887SOL     OW55507   7.924   4.458   9.242  0.0878 -0.4080  0.6557
16887SOL    HW155508   7.995   4.438   9.181 -0.6781 -1.7842  0.1619
16887SOL    HW255509   7.939   4.401   9.317 -0.7172 -1.0278  0.3606
16888SOL     OW55510   2.490   9.624   1.673 -0.4508 -0.2240  0.4642
16888SOL    HW155511   2.427   9.636   1.744 -0.4138 -0.4806  0.5425
16888SOL    HW255512   2.502   9.711   1.636 -1.8040 -0.3814 -0.3852
16889SOL     OW55513   4.440   1.175   6.603 -0.0286 -0.4469  0.5777
16889SOL    HW155514   4.386   1.178   6.524 -0.4641  1.4063  0.8999
16889SOL    HW255515   4.409   1.098   6.650  0.9869 -2.2739 -1.5288
16890SOL     OW55516   7.760   2.805   6.426  0.0285 -0.3081 -0.3047
16890SOL    HW155517   7.819   2.744   6.380  0.5777 -1.8178  2.1842
16890SOL    HW255518   7.803   2.890   6.418 -0.1076 -0.3908 -2.8082
16891SOL     OW55519   7.728   5.815   0.096  0.0774  0.3563 -0.3837
16891SOL    HW155520   7.655   5.837   0.153  0.5371  1.4364 -0.1700
16891SOL    HW255521   7.688   5.776   0.018 -0.5318 -1.4762  0.8022
16892SOL     OW55522   8.720   2.244   1.102 -0.1620  0.3899 -0.1462
16892SOL    HW155523   8.774   2.291   1.165 -1.4078 -0.3836  1.5815
16892SOL    HW255524   8.630   2.267   1.126 -0.6930 -0.5614 -1.1297
16893SOL     OW55525   9.214   6.346   2.456 -0.0560  0.0773  0.7493
16893SOL    HW155526   9.203   6.441   2.462  2.4454  0.4294  0.7749
16893SOL    HW255527   9.275   6.324   2.526  1.3529 -1.1518 -0.7784
16894SOL     OW55528   3.214   6.719   5.179  0.0160  0.1990 -0.2786
16894SOL    HW155529   3.130   6.698   5.219 -0.5398 -0.7332 -1.8420
16894SOL    HW255530   3.208   6.812   5.157 -0.0807  0.4557  0.7734
16895SOL     OW55531   1.669   4.151   5.685  0.3800  0.0419  0.2779
16895SOL    HW155532   1.723   4.229   5.673  0.1359  0.3053  0.8473
16895SOL    HW255533   1.602   4.178   5.748 -0.8229 -0.0721 -0.9128
16896SOL     OW55534   8.905   3.488   9.632 -0.2760 -0.0725 -0.0824
16896SOL    HW155535   8.844   3.506   9.560 -0.0480  0.4200 -0.1551
16896SOL    HW255536   8.984   3.536   9.609  0.3080 -1.0559 -0.2074
16897SOL     OW55537   9.653   7.860   2.780  0.3986 -0.5140 -0.1322
16897SOL    HW155538   9.564   7.895   2.791  1.1625  1.6050 -0.0911
16897SOL    HW255539   9.655   7.825   2.692 -0.1959  0.4521 -0.5511
16898SOL     OW55540   3.722   4.046   1.903 -0.7409 -0.1592  0.1908
16898SOL    HW155541   3.685   3.962   1.877 -0.7383  0.3418 -1.5944
16898SOL    HW255542   3.696   4.106   1.833  0.3065  1.0474  0.7872
16899SOL     OW55543   2.117   8.229   1.354  0.0718  0.1437  0.3981
16899SOL    HW155544   2.075   8.235   1.268 -0.3142 -2.0241  0.3832
16899SOL    HW255545   2.201   8.274   1.343 -1.0974  2.2872 -0.2980
16900SOL     OW55546   7.220   1.112   8.417  0.1058 -0.1126  0.7929
16900SOL    HW155547   7.204   1.146   8.330  1.3886 -2.2112 -0.3593
16900SOL    HW255548   7.135   1.076   8.445 -0.1475 -0.0435  0.1210
16901SOL     OW55549   7.673   1.381   4.438 -0.2048 -0.0817  0.0713
16901SOL    HW155550   7.692   1.316   4.506  0.9858 -0.1053 -0.2752
16901SOL    HW255551   7.587   1.415   4.462 -0.4287 -1.1065  0.7889
16902SOL     OW55552   4.563   5.994   0.845 -0.7670 -0.0894  0.3824
16902SOL    HW155553   4.481   6.014   0.890 -0.1230  0.0349  1.5563
16902SOL    HW255554   4.605   6.079   0.832 -1.5913  0.0404 -1.8407
16903SOL     OW55555   7.670   7.644   7.867 -0.0267 -0.0828 -0.6735
16903SOL    HW155556   7.656   7.551   7.851 -2.6472 -0.5884  3.2272
16903SOL    HW255557   7.747   7.647   7.924 -0.2491  0.0525 -0.3757
16904SOL     OW55558   9.167   4.974   5.645  0.1824  0.0619  0.0053
16904SOL    HW155559   9.116   5.034   5.590 -1.2256 -0.5072  0.6364
16904SOL    HW255560   9.112   4.896   5.653  1.6103 -0.9974 -0.1056
16905SOL     OW55561   0.796   7.042   3.380 -0.4416 -0.4703  1.0912
16905SOL    HW155562   0.839   6.960   3.358  0.1168 -0.1531  0.9868
16905SOL    HW255563   0.756   7.071   3.299  0.2731 -0.1006  0.8662
16906SOL     OW55564   0.746   4.945   7.295  0.2745  0.2440  0.1517
16906SOL    HW155565   0.727   4.873   7.356  0.2727  1.2521  1.3744
16906SOL    HW255566   0.839   4.934   7.274  0.4483  0.2789  0.8775
16907SOL     OW55567   2.051   5.000   7.011  0.6832  0.8794 -0.2517
16907SOL    HW155568   2.000   4.992   7.092 -0.4190 -0.7522 -1.0379
16907SOL    HW255569   2.125   5.056   7.034 -0.5595  1.9364  1.3946
16908SOL     OW55570   7.596   6.686   9.231 -0.4302 -0.5307 -0.2486
16908SOL    HW155571   7.594   6.782   9.236 -0.6702 -0.4550 -1.4014
16908SOL    HW255572   7.557   6.666   9.145 -0.0301 -1.6400 -0.1875
16909SOL     OW55573   4.007   7.750   0.507 -0.0582  0.2553 -0.4674
16909SOL    HW155574   3.956   7.671   0.525  0.8718 -0.1822  0.3629
16909SOL    HW255575   3.949   7.805   0.454 -0.0603 -1.7639 -2.6857
16910SOL     OW55576   0.541   4.718   0.847 -0.7372  0.0502  0.0262
16910SOL    HW155577   0.484   4.785   0.809 -2.5358 -1.6667 -0.4339
16910SOL    HW255578   0.529   4.641   0.791  2.8938 -0.1436 -0.7515
16911SOL     OW55579   1.697   7.693   4.840  0.0298 -0.0555 -0.1390
16911SOL    HW155580   1.625   7.757   4.839 -1.1745 -1.3809 -0.2097
16911SOL    HW255581   1.758   7.726   4.773  0.2521  1.8970  0.9533
16912SOL     OW55582   5.954   1.596   0.907 -0.3282  0.1378 -0.0270
16912SOL    HW155583   5.996   1.672   0.867  3.0146 -1.8829 -0.8217
16912SOL    HW255584   5.941   1.535   0.834  3.3755 -2.5643  1.2668
16913SOL     OW55585   2.510   0.703   3.280 -0.1586 -0.5210  0.1588
16913SOL    HW155586   2.420   0.700   3.312 -0.4031  0.0400 -0.4698
16913SOL    HW255587   2.559   0.650   3.343 -0.3448  1.7200  2.3512
16914SOL     OW55588   3.543   4.778   9.547 -0.5899  0.4596 -0.1821
16914SOL    HW155589   3.635   4.757   9.529 -0.1616  1.4137  0.7275
16914SOL    HW255590   3.493   4.726   9.485  0.5359 -0.6909 -0.1622
16915SOL     OW55591   2.511   9.454   2.535  0.1292  0.1562 -0.5443
16915SOL    HW155592   2.592   9.507   2.535 -0.0150  0.4700  1.4077
16915SOL    HW255593   2.514   9.407   2.618 -2.3212  1.2230  0.2506
16916SOL     OW55594   1.619   8.813   9.111  0.2441  0.2194 -0.1031
16916SOL    HW155595   1.694   8.804   9.053  1.1831  2.1343  0.7273
16916SOL    HW255596   1.656   8.809   9.199 -0.8877 -0.6132  0.3557
16917SOL     OW55597   5.447   7.082   7.696 -0.0828  0.5986 -0.3026
16917SOL    HW155598   5.374   7.019   7.700 -1.5490  2.2496  0.1150
16917SOL    HW255599   5.436   7.124   7.611  1.3152 -0.1430 -0.8832
16918SOL     OW55600   7.079   5.045   3.314 -0.0077  0.1009  0.6382
16918SOL    HW155601   7.129   4.981   3.263  1.9373  1.3776  0.8219
16918SOL    HW255602   7.113   5.130   3.284 -2.0790  1.0458  0.8380
16919SOL     OW55603   0.988   5.970   0.191 -0.1825  0.0509 -0.5441
16919SOL    HW155604   0.911   5.943   0.240  0.1637  1.5904  0.9365
16919SOL    HW255605   1.023   6.045   0.239  2.0856 -0.4079 -1.3262
16920SOL     OW55606   3.687   9.105   8.846 -0.7538 -0.7656  0.1218
16920SOL    HW155607   3.669   9.198   8.834 -1.1795 -0.8744 -0.0814
16920SOL    HW255608   3.602   9.066   8.867 -0.5381 -1.0719  0.4505
16921SOL     OW55609   4.106   8.252   8.691  0.0979 -0.3358 -0.0625
16921SOL    HW155610   4.042   8.322   8.706 -1.9653 -2.4002  1.4670
16921SOL    HW255611   4.075   8.208   8.612  0.0586 -0.8769  0.2482
16922SOL     OW55612   5.844   6.982   2.349  0.6005 -0.1121  0.3921
16922SOL    HW155613   5.802   7.060   2.312  1.6155 -0.1869 -0.9861
16922SOL    HW255614   5.781   6.949   2.412 -1.2342  0.0231 -1.2918
16923SOL     OW55615   5.188   9.092   8.661 -0.1346  0.0536 -0.5855
16923SOL    HW155616   5.264   9.139   8.628 -0.9777  0.3390 -2.2127
16923SOL    HW255617   5.203   9.000   8.636  0.4150 -0.1818  0.5397
16924SOL     OW55618   8.669   5.398   1.874  0.5178 -0.2444 -0.2948
16924SOL    HW155619   8.656   5.471   1.934  0.8884  1.0343 -1.6887
16924SOL    HW255620   8.707   5.328   1.927  0.6715  0.7675  0.9577
16925SOL     OW55621   5.932   5.345   6.621  0.3293 -0.0422 -0.2444
16925SOL    HW155622   5.926   5.394   6.540  2.6605  0.5011 -0.1748
16925SOL    HW255623   5.949   5.411   6.688  1.8439 -0.7518  0.1105
16926SOL     OW55624   2.660   9.347   9.021 -0.5835  0.1809 -0.1486
16926SOL    HW155625   2.661   9.252   9.034 -0.7535  0.1529 -0.3354
16926SOL    HW255626   2.663   9.384   9.110  1.0131  0.0119 -0.1159
16927SOL     OW55627   0.910   3.686   4.533 -0.2905 -0.2541 -0.0294
16927SOL    HW155628   0.958   3.610   4.566  0.8938 -0.2814 -1.6978
16927SOL    HW255629   0.883   3.662   4.445  0.3544  1.3180 -0.7046
16928SOL     OW55630   8.067   5.593   0.259  0.2525  0.3877  0.0073
16928SOL    HW155631   8.007   5.655   0.218 -1.5737 -1.0363  0.4288
16928SOL    HW255632   8.154   5.633   0.247 -0.4666  1.3615 -2.7430
16929SOL     OW55633   4.469   0.983   3.519 -0.0572 -0.4868 -0.0196
16929SOL    HW155634   4.440   0.985   3.428  0.1558  0.8315 -0.0733
16929SOL    HW255635   4.561   0.958   3.514 -0.1372 -0.7719 -0.1286
16930SOL     OW55636   6.693   1.610   8.236  0.2247 -0.1815  0.5307
16930SOL    HW155637   6.784   1.636   8.252  0.5100 -1.2308  0.6758
16930SOL    HW255638   6.688   1.519   8.266 -1.0789  0.0995  1.2391
16931SOL     OW55639   4.466   6.226   7.247  0.8726  0.1056  0.1380
16931SOL    HW155640   4.408   6.302   7.248  3.0327  1.8802 -0.6457
16931SOL    HW255641   4.439   6.176   7.171 -0.4357  0.1998  0.5259
16932SOL     OW55642   0.331   2.186   2.880 -0.5583 -0.1172 -0.4507
16932SOL    HW155643   0.379   2.195   2.962  0.3094  1.7711 -1.1023
16932SOL    HW255644   0.355   2.264   2.830 -1.8588 -0.7157 -2.0930
16933SOL     OW55645   0.062   9.455   0.122  0.0972  0.1910 -0.1369
16933SOL    HW155646   0.031   9.545   0.108  0.8862  0.3667 -0.7991
16933SOL    HW255647   0.157   9.460   0.113  0.1973 -0.6248  0.3405
16934SOL     OW55648   5.927   0.580   4.417 -0.5209  0.5600  0.0311
16934SOL    HW155649   5.942   0.531   4.497 -4.1711  0.6168  0.9265
16934SOL    HW255650   5.953   0.670   4.438 -0.5077  0.3786  0.7955
16935SOL     OW55651   8.357   6.124   1.882  0.2046  0.2675 -0.0007
16935SOL    HW155652   8.360   6.029   1.866 -2.2928 -0.1339  1.4922
16935SOL    HW255653   8.301   6.134   1.959  0.5468  2.9780 -0.0068
16936SOL     OW55654   8.259   9.710   9.743 -0.2886 -0.1370 -0.0351
16936SOL    HW155655   8.289   9.705   9.834  0.9185 -0.6126 -0.4307
16936SOL    HW255656   8.219   9.796   9.735  0.9615  0.5294  0.5668
16937SOL     OW55657   4.997   8.096   3.860 -0.2356  0.2075 -0.4701
16937SOL    HW155658   5.049   8.147   3.798  0.3842 -0.4124 -0.4728
16937SOL    HW255659   4.910   8.134   3.856 -0.0231  0.6259 -1.1989
16938SOL     OW55660   7.574   1.770   5.797  0.1987  0.4859  0.3300
16938SOL    HW155661   7.636   1.772   5.869 -0.1603 -1.2098  0.7528
16938SOL    HW255662   7.558   1.676   5.783 -2.2864  0.8405  0.3030
16939SOL     OW55663   8.483   0.205   9.222 -0.5706 -0.5277 -0.0226
16939SOL    HW155664   8.488   0.206   9.318  0.9874 -0.3167 -0.0825
16939SOL    HW255665   8.538   0.278   9.194 -1.3027 -0.3579 -1.0828
16940SOL     OW55666   6.191   8.653   8.710 -0.1872 -0.1930  0.3115
16940SOL    HW155667   6.122   8.626   8.769 -0.6278 -0.1455 -0.1750
16940SOL    HW255668   6.147   8.668   8.626  0.3522  0.1813  0.0870
16941SOL     OW55669   7.327   4.979   3.536 -0.1419  0.0699 -0.3285
16941SOL    HW155670   7.314   4.990   3.630  0.0796  1.4689 -0.4372
16941SOL    HW255671   7.254   4.923   3.508  1.1430 -2.4027  1.0287
16942SOL     OW55672   6.112   6.520   2.191  0.1280 -0.2830 -0.1746
16942SOL    HW155673   6.094   6.574   2.268 -0.0357 -0.6372  0.0394
16942SOL    HW255674   6.147   6.581   2.126  1.2131 -0.1449  0.5135
16943SOL     OW55675   7.004   2.659   7.986 -0.3110  0.7997 -0.1349
16943SOL    HW155676   7.033   2.629   7.899 -1.9907 -0.8035 -0.2221
16943SOL    HW255677   6.993   2.753   7.977  0.9039  0.8541 -1.2439
16944SOL     OW55678   6.591   0.159   3.214  0.2348 -0.9274 -0.2457
16944SOL    HW155679   6.571   0.072   3.249 -2.0802  0.2214  1.5754
16944SOL    HW255680   6.643   0.201   3.282  1.0770 -0.7412 -0.9844
16945SOL     OW55681   2.794   7.090   2.240  0.0404 -0.7105  0.9316
16945SOL    HW155682   2.721   7.047   2.283  0.2887 -1.2773  0.7959
16945SOL    HW255683   2.758   7.123   2.158 -1.1839  2.8600  2.6868
16946SOL     OW55684   6.003   7.036   8.270 -0.5153 -0.4557 -0.6643
16946SOL    HW155685   6.006   6.941   8.277  0.0293 -0.4299 -0.5488
16946SOL    HW255686   5.941   7.062   8.338  0.9943 -0.5782  0.8330
16947SOL     OW55687   9.628   3.043   4.982  0.5447  0.2251  0.0100
16947SOL    HW155688   9.555   3.026   4.921  3.0690 -2.3552 -2.5997
16947SOL    HW255689   9.603   3.124   5.026 -3.6018 -0.1938 -1.1266
16948SOL     OW55690   8.172   7.782   2.793  0.2886  0.1832 -0.1963
16948SOL    HW155691   8.227   7.712   2.828  1.5100  0.5408 -1.3209
16948SOL    HW255692   8.085   7.764   2.829  1.5094  0.9268  3.6295
16949SOL     OW55693   4.409   6.123   5.877  0.6426  0.1435 -0.3075
16949SOL    HW155694   4.419   6.212   5.842 -0.8127  0.2712 -0.4912
16949SOL    HW255695   4.315   6.106   5.872  0.6934 -0.8105  1.2127
16950SOL     OW55696   5.030   2.077   3.108 -0.7405 -0.0414 -0.0742
16950SOL    HW155697   4.951   2.033   3.076 -1.6503 -0.8325  2.8993
16950SOL    HW255698   5.102   2.022   3.077 -1.6599 -1.7475  0.6599
16951SOL     OW55699   8.793   6.969   6.305  0.2328 -0.2352 -0.8086
16951SOL    HW155700   8.738   7.002   6.234  2.4234  0.8231 -2.0971
16951SOL    HW255701   8.823   7.048   6.350  2.1467 -0.6538 -1.2772
16952SOL     OW55702   8.739   6.616   3.615  0.1630  0.3735 -0.0120
16952SOL    HW155703   8.705   6.609   3.525 -2.5532 -0.8636  0.9880
16952SOL    HW255704   8.786   6.534   3.629  1.6689  1.0926 -0.6481
16953SOL     OW55705   8.702   8.713   3.440  0.6548  0.6251  0.5856
16953SOL    HW155706   8.732   8.803   3.454 -2.0675  1.5498  1.0262
16953SOL    HW255707   8.618   8.708   3.485 -1.1164 -0.9738 -2.5502
16954SOL     OW55708   9.671   1.657   0.172  0.4486 -0.4025  0.1235
16954SOL    HW155709   9.580   1.671   0.196  0.0878  1.1157 -1.8045
16954SOL    HW255710   9.675   1.567   0.141 -0.7792 -0.0556 -1.1384
16955SOL     OW55711   5.288   1.515   4.433 -0.3113 -0.1291 -0.4987
16955SOL    HW155712   5.363   1.574   4.444 -0.0044 -0.4080 -1.0663
16955SOL    HW255713   5.327   1.428   4.424 -0.6931 -0.2581 -0.9495
16956SOL     OW55714   5.040   1.931   3.989 -0.2126  0.8016  0.2718
16956SOL    HW155715   5.081   1.995   3.931  1.0959 -1.0664 -0.9821
16956SOL    HW255716   4.958   1.908   3.945  0.0880  0.4536 -0.1158
16957SOL     OW55717   0.842   3.250   7.740 -0.0856  0.2395 -0.3586
16957SOL    HW155718   0.904   3.195   7.789 -1.4381 -1.2098 -0.1972
16957SOL    HW255719   0.843   3.334   7.785  0.7036 -0.2101  0.4970
16958SOL     OW55720   2.980   0.969   0.108  0.3169  0.3984 -0.1070
16958SOL    HW155721   2.968   0.876   0.125  0.1722  0.6937  1.5605
16958SOL    HW255722   3.008   0.974   0.017  0.2183 -1.2590 -0.2425
16959SOL     OW55723   2.893   6.763   6.286 -0.2187 -0.0872  0.5105
16959SOL    HW155724   2.888   6.778   6.380  0.0811 -1.7216  0.8173
16959SOL    HW255725   2.983   6.788   6.263 -0.0986 -0.2645  0.7812
16960SOL     OW55726   1.084   5.026   9.614  0.2956  0.1612  0.0958
16960SOL    HW155727   1.059   4.935   9.600 -1.3351  0.8100 -1.7528
16960SOL    HW255728   1.004   5.068   9.645 -0.1282  1.6289 -2.6279
16961SOL     OW55729   6.489   4.774   5.703 -0.5770 -0.5195  0.9181
16961SOL    HW155730   6.559   4.757   5.640 -0.5124 -1.9866  1.3437
16961SOL    HW255731   6.493   4.869   5.718  0.5780 -0.4097  0.0862
16962SOL     OW55732   7.058   9.440   7.389  0.3716 -0.1695  0.4893
16962SOL    HW155733   7.108   9.400   7.461  1.1921 -1.3730 -0.6956
16962SOL    HW255734   7.081   9.533   7.393  0.5429 -0.2375  1.6613
16963SOL     OW55735   6.558   7.172   7.319  0.4901 -0.3533  0.0221
16963SOL    HW155736   6.485   7.230   7.341  1.6405  0.3875  2.0417
16963SOL    HW255737   6.579   7.194   7.228 -1.4502 -0.2561 -0.4660
16964SOL     OW55738   8.208   0.528   5.530  0.4870 -0.1661 -0.1996
16964SOL    HW155739   8.269   0.522   5.457 -0.0318 -0.0385 -0.6561
16964SOL    HW255740   8.191   0.437   5.554 -0.2246 -0.2641 -1.0067
16965SOL     OW55741   7.645   6.238   1.133  0.5371  0.3329 -0.4510
16965SOL    HW155742   7.643   6.202   1.222  0.6249  0.3956 -0.4229
16965SOL    HW255743   7.725   6.203   1.095  1.0833  1.1854 -0.1240
16966SOL     OW55744   1.449   5.968   0.198 -0.3791  0.2012  1.2037
16966SOL    HW155745   1.537   5.933   0.208 -1.2493 -1.7542  2.5611
16966SOL    HW255746   1.416   5.975   0.288 -1.2132  2.0445  0.7917
16967SOL     OW55747   0.696   8.468   9.239  0.5825  0.3195 -0.2261
16967SOL    HW155748   0.770   8.417   9.206 -0.7485 -0.7761 -1.7170
16967SOL    HW255749   0.699   8.550   9.188  1.4012  0.7829  0.5411
16968SOL     OW55750   7.071   9.318   1.747  0.8794 -0.4039  0.0130
16968SOL    HW155751   7.076   9.413   1.753 -2.2422 -0.1182 -0.4227
16968SOL    HW255752   7.045   9.300   1.657  2.6970 -1.8138 -0.2935
16969SOL     OW55753   3.870   7.411   2.155 -0.0053 -0.4163  0.0070
16969SOL    HW155754   3.837   7.429   2.067 -0.9331 -0.8596  0.2457
16969SOL    HW255755   3.807   7.348   2.191  1.0133 -1.1427  0.5645
16970SOL     OW55756   7.795   3.351   8.297 -0.1647  0.1498  0.4845
16970SOL    HW155757   7.807   3.281   8.232  1.4457 -0.7303  1.6628
16970SOL    HW255758   7.808   3.432   8.248 -2.7986 -0.2327 -1.0866
16971SOL     OW55759   5.797   7.154   4.677 -0.1869  0.0588 -0.2861
16971SOL    HW155760   5.826   7.101   4.602  0.4625 -0.0573  0.0380
16971SOL    HW255761   5.876   7.163   4.731 -0.5597  0.4621  0.1931
16972SOL     OW55762   9.586   5.307   5.776 -0.1859  0.3634 -0.6046
16972SOL    HW155763   9.596   5.232   5.716 -1.0431 -0.6109  0.4134
16972SOL    HW255764   9.531   5.368   5.728  0.7071  0.4598 -1.5408
16973SOL     OW55765   2.042   8.597   3.004 -0.9440  0.0792  0.2709
16973SOL    HW155766   2.098   8.529   3.041 -1.1238 -0.1109  0.1944
16973SOL    HW255767   1.958   8.585   3.049 -1.3203 -0.4786 -0.5651
16974SOL     OW55768   5.723   0.561   0.235  0.4587 -0.4157  0.5400
16974SOL    HW155769   5.660   0.571   0.164  0.7619 -3.1287 -0.2383
16974SOL    HW255770   5.672   0.522   0.306  0.4875  0.8848  1.2962
16975SOL     OW55771   5.375   3.342   2.573 -0.1415  0.4167 -0.0185
16975SOL    HW155772   5.315   3.268   2.567  0.5392 -0.0835 -0.8174
16975SOL    HW255773   5.406   3.340   2.664  0.8034 -1.0354 -0.3443
16976SOL     OW55774   9.043   7.014   5.889  0.1404 -0.5141  0.3126
16976SOL    HW155775   8.980   7.057   5.945 -0.9903 -0.0525 -1.2521
16976SOL    HW255776   8.991   6.979   5.816  1.3425 -2.3844  0.2808
16977SOL     OW55777   0.126   6.598   9.670  0.2239 -0.0754 -0.3684
16977SOL    HW155778   0.214   6.565   9.686  0.8272  1.7029  0.3140
16977SOL    HW255779   0.107   6.653   9.746 -1.8258 -1.0458 -0.1089
16978SOL     OW55780   7.795   9.219   3.037 -0.0105  0.2604 -0.2478
16978SOL    HW155781   7.844   9.242   3.116 -1.7685  1.0793  0.6450
16978SOL    HW255782   7.833   9.274   2.968  0.4429  0.7471  0.3817
16979SOL     OW55783   1.492   4.079   4.880  0.2044 -0.4058 -0.5800
16979SOL    HW155784   1.419   4.131   4.914 -0.5172 -0.7110 -1.5846
16979SOL    HW255785   1.507   4.113   4.792  1.0832 -0.5442 -0.4858
16980SOL     OW55786   6.354   8.610   9.139 -0.1105 -0.1806  0.3732
16980SOL    HW155787   6.267   8.608   9.098  0.0575 -1.6646 -0.0050
16980SOL    HW255788   6.368   8.520   9.168  1.7097 -0.2219 -0.4877
16981SOL     OW55789   8.099   5.312   2.858 -0.5238  0.1823  0.1970
16981SOL    HW155790   8.081   5.396   2.817 -0.4390 -0.9518 -2.3696
16981SOL    HW255791   8.175   5.278   2.812  1.6017  0.0763  3.4659
16982SOL     OW55792   8.022   6.404   5.274  0.1317  0.2427 -0.0967
16982SOL    HW155793   8.118   6.407   5.270  0.0624  1.6270 -1.4993
16982SOL    HW255794   7.999   6.330   5.217  0.3606 -0.5376  0.7908
16983SOL     OW55795   4.795   8.965   7.346  0.2225 -0.4702 -0.3403
16983SOL    HW155796   4.709   9.006   7.336  1.1188  2.0689  1.4053
16983SOL    HW255797   4.844   8.991   7.268  0.1196  0.0219 -0.2416
16984SOL     OW55798   1.727   7.924   8.702 -0.0791 -0.5867  0.4195
16984SOL    HW155799   1.732   8.015   8.731 -0.4879  0.4217 -2.3320
16984SOL    HW255800   1.816   7.891   8.709  0.4804  0.6866 -0.3999
16985SOL     OW55801   4.949   4.900   3.418 -0.2195 -0.2539  0.6160
16985SOL    HW155802   5.026   4.849   3.445 -1.0450 -1.2439  1.2011
16985SOL    HW255803   4.983   4.968   3.361  0.9394 -1.4909 -0.2185
16986SOL     OW55804   9.666   6.947   0.743  0.5305 -0.2318  0.5343
16986SOL    HW155805   9.694   7.038   0.735  1.1966 -0.3215  1.6456
16986SOL    HW255806   9.570   6.951   0.740  0.5767  0.2965 -1.2780
16987SOL     OW55807   0.133   8.829   9.035 -0.1790  0.0536  0.2663
16987SOL    HW155808   0.166   8.870   8.955  0.8734 -3.6768 -1.4496
16987SOL    HW255809   0.044   8.803   9.013 -0.8829  1.3778  1.3794
16988SOL     OW55810   3.619   2.159   4.761 -0.6181 -0.1377  0.4524
16988SOL    HW155811   3.632   2.111   4.679  0.8487 -0.1695  0.6703
16988SOL    HW255812   3.576   2.096   4.819  2.0686 -1.6105  1.0257
16989SOL     OW55813   0.616   4.417   7.528 -0.1052 -0.1904 -0.2643
16989SOL    HW155814   0.524   4.422   7.503 -0.1011 -0.6564 -0.3692
16989SOL    HW255815   0.657   4.364   7.460  0.1754 -0.2718 -0.0349
16990SOL     OW55816   9.700   2.184   4.526  0.3948  0.4746 -0.1147
16990SOL    HW155817   9.781   2.136   4.507  0.6369  0.0646  1.6944
16990SOL    HW255818   9.661   2.136   4.599 -1.4288  0.7597 -0.8544
16991SOL     OW55819   3.890   0.081   0.424 -0.3813  0.3191 -0.2451
16991SOL    HW155820   3.856   0.028   0.353  0.6256  1.5283 -1.6885
16991SOL    HW255821   3.952   0.142   0.382 -1.0630  2.2603  1.3815
16992SOL     OW55822   4.110   4.683   0.215 -0.0802  0.1051 -0.0370
16992SOL    HW155823   4.135   4.690   0.122  0.6165  3.1736  0.2841
16992SOL    HW255824   4.157   4.755   0.258 -2.3170  0.3049  2.2841
16993SOL     OW55825   5.052   1.402   1.859  0.4556 -0.0406  0.1060
16993SOL    HW155826   4.964   1.438   1.869  0.9770  1.6664 -1.0205
16993SOL    HW255827   5.096   1.420   1.942  0.2410  0.6112  0.0811
16994SOL     OW55828   3.831   9.321   7.414  0.1976  0.2709  0.3569
16994SOL    HW155829   3.849   9.392   7.353  1.5385 -1.0792 -0.8832
16994SOL    HW255830   3.910   9.267   7.413 -0.2233 -0.4935  2.3554
16995SOL     OW55831   8.598   8.949   6.291 -0.2172  0.3832 -0.4139
16995SOL    HW155832   8.643   8.944   6.207 -0.5381  1.3393 -0.6637
16995SOL    HW255833   8.615   9.038   6.321 -0.2220  0.0876  0.4721
16996SOL     OW55834   6.364   8.801   0.859  0.0794  0.0319  0.4858
16996SOL    HW155835   6.299   8.869   0.846  1.0753  0.9228  0.0583
16996SOL    HW255836   6.409   8.793   0.775  0.4197 -0.6887  0.7218
16997SOL     OW55837   5.578   6.697   7.485 -0.8484  0.5695  0.3714
16997SOL    HW155838   5.594   6.755   7.559  1.1370  0.7862 -0.1858
16997SOL    HW255839   5.483   6.700   7.473 -1.2948  0.1494  3.1788
16998SOL     OW55840   4.875   2.547   9.662 -0.0437 -0.0893  0.2358
16998SOL    HW155841   4.827   2.606   9.720  0.7642  0.0677  0.7579
16998SOL    HW255842   4.828   2.552   9.578 -1.2216 -0.3258  0.8601
16999SOL     OW55843   7.287   3.022   5.831 -0.4392  0.1291  1.1811
16999SOL    HW155844   7.211   3.005   5.775  0.5259 -1.5667  0.3059
16999SOL    HW255845   7.262   3.098   5.883 -2.2846  0.3142  0.1060
17000SOL     OW55846   7.512   3.730   3.031 -0.9478 -0.5636 -0.1423
17000SOL    HW155847   7.479   3.675   3.102 -0.0764 -0.0294  0.6956
17000SOL    HW255848   7.606   3.737   3.048 -0.7546 -0.2680 -1.2520
17001SOL     OW55849   0.539   4.027   4.768 -0.1565 -0.1609  0.1774
17001SOL    HW155850   0.551   4.008   4.675  0.3149 -1.1135  0.4150
17001SOL    HW255851   0.537   3.941   4.810  0.4289  0.2729  1.1442
17002SOL     OW55852   9.396   6.353   0.860 -0.3850  0.2134  0.3385
17002SOL    HW155853   9.367   6.410   0.932  1.9422  1.7343  0.1566
17002SOL    HW255854   9.314   6.320   0.823 -1.7057 -0.3557  3.3956
17003SOL     OW55855   7.206   5.893   4.052 -0.0439  0.1910 -0.2495
17003SOL    HW155856   7.254   5.906   4.134  1.0739  0.4000 -0.9171
17003SOL    HW255857   7.117   5.925   4.071  0.9460  3.0763  0.0285
17004SOL     OW55858   8.089   3.999   9.304  0.0447  0.3897 -0.1324
17004SOL    HW155859   8.098   4.088   9.337  1.0375  0.3024 -0.1467
17004SOL    HW255860   8.095   3.944   9.382 -2.7244  0.3889  0.1867
17005SOL     OW55861   8.357   3.850   6.560 -0.4749  0.1102 -0.2166
17005SOL    HW155862   8.361   3.776   6.500 -1.7394 -0.1792  0.0333
17005SOL    HW255863   8.293   3.825   6.626  2.3215 -0.4475  2.5154
17006SOL     OW55864   5.177   9.328   5.481 -0.2005  0.0022 -0.2178
17006SOL    HW155865   5.111   9.267   5.448 -1.4394  0.5941  1.0344
17006SOL    HW255866   5.163   9.329   5.576  0.8713  1.0128 -0.0459
17007SOL     OW55867   1.838   7.527   7.480  0.0587 -0.4697  0.5382
17007SOL    HW155868   1.776   7.600   7.472  1.9707  1.1308 -0.4889
17007SOL    HW255869   1.868   7.530   7.571  1.8650  1.5911 -0.0591
17008SOL     OW55870   3.339   8.644   3.274 -0.2076 -0.3995 -0.4709
17008SOL    HW155871   3.335   8.687   3.189 -1.6676  1.3581  0.4044
17008SOL    HW255872   3.254   8.603   3.285 -0.0776 -0.5168  0.1782
17009SOL     OW55873   8.046   2.530   1.919  0.0975 -0.0318  0.1303
17009SOL    HW155874   8.035   2.608   1.974 -2.4653  0.1594 -0.5670
17009SOL    HW255875   8.111   2.557   1.854  1.5896  0.4394  1.7196
17010SOL     OW55876   2.437   7.616   0.118  1.5275 -0.2641 -0.5273
17010SOL    HW155877   2.434   7.606   0.022 -1.2441 -0.8952 -0.4827
17010SOL    HW255878   2.427   7.710   0.133  0.5551 -0.2988 -0.8795
17011SOL     OW55879   1.412   7.170   5.678  1.3113  0.6171  0.4227
17011SOL    HW155880   1.480   7.127   5.730  0.7206  0.3715  1.0153
17011SOL    HW255881   1.336   7.112   5.685  1.6623 -0.2164 -2.0420
17012SOL     OW55882   6.182   6.262   5.704  0.0250  0.5474  0.5134
17012SOL    HW155883   6.239   6.271   5.628  0.2913 -1.7676  0.3663
17012SOL    HW255884   6.094   6.284   5.671  0.4474  1.8005  0.1591
17013SOL     OW55885   8.478   5.665   9.235 -0.2374 -0.1115  0.3924
17013SOL    HW155886   8.419   5.606   9.283 -1.4388  1.8816  1.5048
17013SOL    HW255887   8.549   5.609   9.206 -1.4441 -2.1545  1.1696
17014SOL     OW55888   4.531   3.009   2.802 -0.4289 -0.6163 -0.4453
17014SOL    HW155889   4.456   2.956   2.830  0.7463 -1.5771  1.0518
17014SOL    HW255890   4.604   2.949   2.800  0.3879  0.3698 -1.6028
17015SOL     OW55891   1.455   2.966   6.930  0.3282 -0.2437  0.2554
17015SOL    HW155892   1.470   2.878   6.966  0.1436 -0.4992 -0.2708
17015SOL    HW255893   1.395   3.008   6.991  0.4195 -0.4844  0.5119
17016SOL     OW55894   3.138   2.902   3.090 -0.3656 -0.3093  0.2626
17016SOL    HW155895   3.173   2.821   3.052 -1.1051  0.3933 -2.1186
17016SOL    HW255896   3.055   2.877   3.129 -1.8858 -0.3736 -2.7374
17017SOL     OW55897   9.240   1.747   6.345  0.4200 -0.1904 -0.7420
17017SOL    HW155898   9.233   1.842   6.353  0.7817 -0.1020 -1.3921
17017SOL    HW255899   9.305   1.734   6.275 -0.7874 -0.8983 -1.7762
17018SOL     OW55900   3.664   5.559   2.132 -0.2547  0.2577 -0.0454
17018SOL    HW155901   3.689   5.648   2.159 -0.0428  1.4057 -3.5252
17018SOL    HW255902   3.572   5.568   2.105 -0.1419 -0.4742 -0.7020
17019SOL     OW55903   0.575   6.833   4.015  0.0175  0.0356 -0.3175
17019SOL    HW155904   0.637   6.897   3.981  2.1789 -0.6981  1.9363
17019SOL    HW255905   0.527   6.880   4.084  1.6877 -0.6600  1.4209
17020SOL     OW55906   3.500   2.467   5.100  0.0406  0.3320  0.3292
17020SOL    HW155907   3.493   2.438   5.009  0.0274 -2.3334  1.0983
17020SOL    HW255908   3.559   2.543   5.097 -0.5812  0.7884 -1.9542
17021SOL     OW55909   4.283   6.548   0.634  0.1757 -0.5517 -0.1809
17021SOL    HW155910   4.283   6.485   0.706  1.1387 -0.2279  0.1147
17021SOL    HW255911   4.191   6.572   0.623  0.1130  0.0871  1.5478
17022SOL     OW55912   6.146   9.341   2.774  0.6711 -0.1615  0.5676
17022SOL    HW155913   6.059   9.310   2.748  0.3429 -0.2528  1.7303
17022SOL    HW255914   6.128   9.417   2.830  1.3793  0.3072  0.1818
17023SOL     OW55915   7.628   1.783   4.073 -0.3813 -0.3118  0.2790
17023SOL    HW155916   7.557   1.742   4.121 -2.0037  1.4676 -0.4804
17023SOL    HW255917   7.641   1.727   3.997 -1.1031 -0.5561  0.3278
17024SOL     OW55918   2.542   2.206   3.291  0.3792 -0.3626 -0.1554
17024SOL    HW155919   2.466   2.223   3.346  1.1752 -0.9508  1.1809
17024SOL    HW255920   2.535   2.113   3.268  0.6759 -0.4127 -0.0488
17025SOL     OW55921   1.711   6.997   4.856  0.5515  0.1440  0.8299
17025SOL    HW155922   1.782   6.933   4.870  0.6567  0.2676  0.8694
17025SOL    HW255923   1.727   7.032   4.769  0.3444 -0.0682  0.7068
17026SOL     OW55924   2.687   3.348   4.218 -0.2198  0.3883 -0.1692
17026SOL    HW155925   2.639   3.269   4.193  0.1468  0.0828  0.0687
17026SOL    HW255926   2.622   3.404   4.259 -0.4655  0.1718 -0.2610
17027SOL     OW55927   1.242   4.611   4.291  0.3934 -0.6645 -0.6073
17027SOL    HW155928   1.244   4.644   4.201 -2.1163  2.4841  0.2968
17027SOL    HW255929   1.332   4.622   4.321  0.7673  0.6190 -2.0146
17028SOL     OW55930   7.057   6.067   9.412  0.1219  0.0133 -0.0553
17028SOL    HW155931   7.083   6.111   9.493 -0.1123 -0.0527  0.0561
17028SOL    HW255932   6.992   6.002   9.440 -0.2789  0.2866 -0.3515
17029SOL     OW55933   6.524   5.453   8.744  0.2449 -0.1955  0.8912
17029SOL    HW155934   6.505   5.533   8.793  2.0006  0.3326  0.7942
17029SOL    HW255935   6.530   5.482   8.653  0.3089 -0.5410  0.7864
17030SOL     OW55936   2.933   9.017   2.676 -0.1791  1.1951 -0.2562
17030SOL    HW155937   2.949   8.959   2.601  1.2988 -0.9515  1.5962
17030SOL    HW255938   2.842   9.001   2.700 -0.1779  0.6616 -0.5812
17031SOL     OW55939   5.445   3.197   8.434 -0.1554 -0.1102 -0.2476
17031SOL    HW155940   5.357   3.221   8.462 -0.2934 -0.4587 -0.3723
17031SOL    HW255941   5.440   3.198   8.338 -0.2009 -0.7547 -0.2551
17032SOL     OW55942   3.046   1.591   4.531  0.1408  0.6204 -0.3197
17032SOL    HW155943   2.954   1.597   4.508  0.0286  2.4000  0.4366
17032SOL    HW255944   3.063   1.669   4.583  0.9866 -1.7209  3.3168
17033SOL     OW55945   3.358   2.865   0.987  0.0400 -0.0552  0.3373
17033SOL    HW155946   3.448   2.851   1.015  0.5102 -1.3686 -1.6157
17033SOL    HW255947   3.356   2.955   0.954  1.2073 -0.6116 -1.3977
17034SOL     OW55948   6.698   3.963   1.648 -0.5794  0.6314  0.1222
17034SOL    HW155949   6.724   3.898   1.582 -3.5862 -0.3383 -0.2628
17034SOL    HW255950   6.702   4.047   1.602 -1.6012  0.0901 -0.9989
17035SOL     OW55951   7.049   1.412   6.316  0.1829  0.3749  0.4128
17035SOL    HW155952   7.008   1.327   6.302  0.8796 -0.1101  1.2326
17035SOL    HW255953   7.133   1.406   6.270 -0.3397  1.1207 -0.6820
17036SOL     OW55954   5.279   5.523   0.530  0.1974 -0.4511 -0.2166
17036SOL    HW155955   5.197   5.543   0.484 -0.1300 -1.6044 -0.1869
17036SOL    HW255956   5.304   5.436   0.496  0.2666 -1.0536  1.3175
17037SOL     OW55957   2.605   1.816   0.241  0.1279  0.4669  0.7462
17037SOL    HW155958   2.650   1.898   0.259  0.5255  0.1598  1.2132
17037SOL    HW255959   2.552   1.833   0.163  0.1456  1.1812  0.8840
17038SOL     OW55960   2.262   4.938   3.632 -0.3866 -0.6001  0.2824
17038SOL    HW155961   2.348   4.965   3.664 -0.3966 -0.5131  0.2374
17038SOL    HW255962   2.201   4.975   3.695 -0.4066 -0.4237  0.1597
17039SOL     OW55963   3.814   5.404   2.679  0.0133 -0.0780 -0.7117
17039SOL    HW155964   3.815   5.498   2.699  0.1987 -0.2759  0.2882
17039SOL    HW255965   3.807   5.400   2.584 -1.0760  0.9420 -0.7003
17040SOL     OW55966   7.865   7.691   8.105  0.0260  0.5818  0.1736
17040SOL    HW155967   7.942   7.747   8.095  0.4108  0.0560  0.1490
17040SOL    HW255968   7.899   7.610   8.144 -0.7757  0.9879  1.8337
17041SOL     OW55969   3.468   8.049   5.266 -0.3413  0.5844 -0.1936
17041SOL    HW155970   3.483   8.039   5.172  1.6519  2.1671 -0.1132
17041SOL    HW255971   3.399   8.115   5.273 -0.8681  0.0749 -0.5371
17042SOL     OW55972   6.685   0.369   0.137 -0.3781 -0.3307 -0.0537
17042SOL    HW155973   6.757   0.373   0.200 -0.0200 -0.0371 -0.4785
17042SOL    HW255974   6.609   0.343   0.189  0.0104 -0.5300  0.4169
17043SOL     OW55975   5.312   8.182   2.901 -0.0412 -0.0284  0.1823
17043SOL    HW155976   5.324   8.268   2.860  2.1739 -0.9547 -1.3118
17043SOL    HW255977   5.252   8.136   2.844  0.2084 -0.0882 -0.0333
17044SOL     OW55978   5.838   0.743   4.120  0.2503  0.0029 -0.7202
17044SOL    HW155979   5.852   0.787   4.204 -0.6769 -0.7945 -0.1183
17044SOL    HW255980   5.753   0.775   4.090  0.0988 -0.4977 -0.8387
17045SOL     OW55981   7.806   5.234   6.371 -0.1108 -0.1218  0.0808
17045SOL    HW155982   7.848   5.319   6.381  0.0494 -0.4234  2.6821
17045SOL    HW255983   7.720   5.245   6.411 -0.9456 -0.6678 -1.4441
17046SOL     OW55984   7.739   5.934   0.581 -0.1220 -0.0659 -0.3563
17046SOL    HW155985   7.670   5.869   0.581  0.0347 -0.2562 -2.0308
17046SOL    HW255986   7.704   6.007   0.530  0.1699  0.6639  0.4589
17047SOL     OW55987   3.670   9.424   5.632  0.1980  0.1889 -0.0345
17047SOL    HW155988   3.610   9.350   5.635  1.5329 -0.9075  1.1369
17047SOL    HW255989   3.730   9.404   5.560 -1.1219  1.5847 -1.6218
17048SOL     OW55990   5.930   8.243   4.983  0.1486  0.4575  0.0442
17048SOL    HW155991   5.916   8.150   4.962  0.1591  0.4798 -0.0620
17048SOL    HW255992   5.895   8.253   5.071  3.2756 -0.4759  1.5461
17049SOL     OW55993   6.645   2.649   6.773 -0.0404 -0.0604 -0.2881
17049SOL    HW155994   6.636   2.619   6.864  1.0472  0.1603 -0.0928
17049SOL    HW255995   6.645   2.569   6.721 -2.4119 -0.1177 -0.2861
17050SOL     OW55996   6.142   8.574   8.448  0.0934 -0.0401  0.9197
17050SOL    HW155997   6.049   8.572   8.429 -0.1612 -1.7789  2.1246
17050SOL    HW255998   6.172   8.485   8.431  1.9334  0.8692 -1.1040
17051SOL     OW55999   9.548   6.938   2.188 -0.2455 -0.4838 -0.1880
17051SOL    HW156000   9.616   6.952   2.253  2.0299 -0.5120 -2.4156
17051SOL    HW256001   9.480   7.001   2.210  2.0285  1.9969  0.1640
17052SOL     OW56002   6.707   4.393   2.252 -0.1979 -0.0184 -0.3184
17052SOL    HW156003   6.795   4.363   2.272 -0.2625 -0.3006 -0.4598
17052SOL    HW256004   6.697   4.379   2.157 -1.1368 -1.9510  0.0243
17053SOL     OW56005   5.591   7.308   1.165  0.2235 -0.4898  0.0001
17053SOL    HW156006   5.607   7.278   1.255 -0.1855 -1.1911 -0.1514
17053SOL    HW256007   5.499   7.335   1.166  0.3053 -0.1989 -0.1351
17054SOL     OW56008   3.489   9.246   0.910  0.2453  0.3386 -0.3608
17054SOL    HW156009   3.489   9.340   0.925 -1.5478  0.1617  1.2791
17054SOL    HW256010   3.565   9.229   0.855  1.3749  2.5592  0.4227
17055SOL     OW56011   0.592   2.240   4.826  0.0595 -0.2423  0.0230
17055SOL    HW156012   0.679   2.257   4.863 -0.0857  0.7446 -0.0851
17055SOL    HW256013   0.549   2.185   4.892  0.5491 -0.2375  0.3536
17056SOL     OW56014   3.279   3.168   5.744  0.0620  0.2276 -0.4812
17056SOL    HW156015   3.210   3.121   5.697 -0.1443 -0.3926  0.4216
17056SOL    HW256016   3.257   3.260   5.733  0.4613  0.1492 -2.2622
17057SOL     OW56017   4.003   2.917   8.634  0.5419  0.0212 -0.4192
17057SOL    HW156018   4.066   2.958   8.574 -0.5502 -1.5835 -2.8010
17057SOL    HW256019   3.978   2.835   8.591 -1.2510 -0.6422  1.6895
17058SOL     OW56020   4.605   5.462   5.642  0.5305  0.0415 -0.1851
17058SOL    HW156021   4.688   5.448   5.687  0.4983  1.2044  0.2905
17058SOL    HW256022   4.597   5.558   5.637 -0.9030 -0.0394  0.0349
17059SOL     OW56023   1.667   8.434   5.388  0.1040  0.1133  0.0737
17059SOL    HW156024   1.746   8.432   5.442 -0.7495 -1.2901  1.3732
17059SOL    HW256025   1.652   8.342   5.363  0.2098  0.6555 -2.2353
17060SOL     OW56026   2.112   7.738   7.827  0.0126  0.1955 -0.3140
17060SOL    HW156027   2.103   7.799   7.754 -0.4453  0.8830  0.3054
17060SOL    HW256028   2.154   7.661   7.789 -0.0768  0.6059 -1.2634
17061SOL     OW56029   7.552   2.432   4.608 -0.2699  0.4112  0.6608
17061SOL    HW156030   7.608   2.509   4.617 -1.7221  1.3989  1.8289
17061SOL    HW256031   7.485   2.458   4.545 -1.4883  0.6120  1.9781
17062SOL     OW56032   2.372   1.956   9.394 -0.4823 -0.1282  0.9573
17062SOL    HW156033   2.295   1.949   9.338  0.6579  0.3649 -0.7555
17062SOL    HW256034   2.339   1.994   9.476 -2.1257 -0.4689  0.4950
17063SOL     OW56035   1.842   3.847   2.480 -0.6479 -0.0746 -0.0801
17063SOL    HW156036   1.800   3.931   2.458 -0.6039  0.1504  0.6821
17063SOL    HW256037   1.777   3.781   2.456 -1.1331  0.2360  0.3520
17064SOL     OW56038   6.928   8.811   2.354  0.1651  0.0406 -0.2421
17064SOL    HW156039   6.902   8.807   2.446 -0.6324 -0.7837 -0.4907
17064SOL    HW256040   6.997   8.878   2.352 -0.2187  0.5013  0.8488
17065SOL     OW56041   2.397   1.214   8.549 -0.1941  0.6951 -0.3756
17065SOL    HW156042   2.351   1.288   8.508 -2.7761  0.4201  1.7749
17065SOL    HW256043   2.359   1.207   8.636 -1.1541 -4.0091 -0.8753
17066SOL     OW56044   4.928   9.717   3.595  0.4190 -0.2487  0.0071
17066SOL    HW156045   4.887   9.654   3.535  0.2153  0.7844 -0.9726
17066SOL    HW256046   4.930   9.799   3.546  2.6917  0.0115  0.4243
17067SOL     OW56047   8.760   2.075   4.731 -0.1052 -0.1597  0.0797
17067SOL    HW156048   8.855   2.067   4.733 -0.0980 -0.9798 -1.6211
17067SOL    HW256049   8.735   2.086   4.822  1.6051  0.0404  0.5692
17068SOL     OW56050   3.353   8.802   7.431 -0.0737 -0.0810  0.4751
17068SOL    HW156051   3.263   8.834   7.434 -0.0688  0.0539 -0.6015
17068SOL    HW256052   3.350   8.717   7.474 -0.1616  1.1328  3.1053
17069SOL     OW56053   8.691   9.626   2.675 -0.3075 -0.5970  0.7861
17069SOL    HW156054   8.749   9.630   2.599  0.7426 -0.2797  1.5971
17069SOL    HW256055   8.676   9.532   2.688 -1.1048 -0.6427 -0.2391
17070SOL     OW56056   3.678   9.341   1.472 -0.0530  0.2742  0.4748
17070SOL    HW156057   3.659   9.423   1.518  0.5267  0.7338 -0.0957
17070SOL    HW256058   3.673   9.364   1.379  1.6064  0.0284  0.3043
17071SOL     OW56059   4.662   9.551   8.663 -0.0081  0.8356 -0.4814
17071SOL    HW156060   4.732   9.602   8.622 -0.6095  1.7369 -0.4390
17071SOL    HW256061   4.587   9.611   8.665 -0.9944 -0.3353 -1.1450
17072SOL     OW56062   5.804   6.067   0.187 -0.5813  0.0554 -0.8164
17072SOL    HW156063   5.877   6.010   0.163  0.7103  0.9487  0.7161
17072SOL    HW256064   5.757   6.019   0.255  0.1216  0.4931  0.0075
17073SOL     OW56065   0.587   0.382   1.775  0.1392 -0.0948 -0.0768
17073SOL    HW156066   0.561   0.436   1.701 -0.7025 -0.5630 -0.1336
17073SOL    HW256067   0.672   0.346   1.750  0.3669  0.6195 -0.3406
17074SOL     OW56068   4.197   5.883   7.092  0.5315 -0.2735  0.1545
17074SOL    HW156069   4.171   5.963   7.138 -1.1495 -1.3048  1.0933
17074SOL    HW256070   4.273   5.910   7.040  1.8796  1.2218  2.6622
17075SOL     OW56071   5.456   7.883   3.555 -0.2751  0.8701  0.2160
17075SOL    HW156072   5.379   7.932   3.583 -0.4479  1.3322 -0.9752
17075SOL    HW256073   5.459   7.896   3.460  0.8481  0.2432  0.1443
17076SOL     OW56074   9.299   2.824   5.627 -0.0660 -0.0154  0.3119
17076SOL    HW156075   9.267   2.914   5.617 -0.3846 -0.2424 -0.9112
17076SOL    HW256076   9.290   2.806   5.720 -1.7907  0.5855  0.3032
17077SOL     OW56077   8.811   8.408   2.639  0.2902  0.2999 -0.0967
17077SOL    HW156078   8.752   8.483   2.650  0.9395  0.7540  0.3829
17077SOL    HW256079   8.753   8.334   2.619 -0.5352  0.5409  1.2897
17078SOL     OW56080   6.666   7.037   6.850 -0.2862 -0.2398  0.5882
17078SOL    HW156081   6.721   6.987   6.910 -0.4089  0.3495  1.2074
17078SOL    HW256082   6.625   7.104   6.905  0.8659  1.3577 -0.4310
17079SOL     OW56083   7.179   7.317   7.880  0.0438  0.1061 -0.7107
17079SOL    HW156084   7.149   7.382   7.817 -0.8924  2.3070  1.8192
17079SOL    HW256085   7.274   7.333   7.887 -0.3551  2.2649  0.8552
17080SOL     OW56086   0.165   8.531   4.382 -0.3329 -0.1724  0.2821
17080SOL    HW156087   0.228   8.523   4.454 -1.0487  2.4511  1.3193
17080SOL    HW256088   0.123   8.616   4.397 -2.7168 -0.9414 -1.4917
17081SOL     OW56089   8.161   0.158   1.963 -0.1280  0.4362 -0.3947
17081SOL    HW156090   8.157   0.136   1.870  1.5014  0.8664 -0.6006
17081SOL    HW256091   8.223   0.231   1.967  2.7194 -1.8415  1.3522
17082SOL     OW56092   8.757   6.693   1.224 -0.3692 -0.8283  0.2988
17082SOL    HW156093   8.705   6.774   1.226  1.8536  0.7251 -0.5955
17082SOL    HW256094   8.826   6.707   1.289  0.0882 -1.9654  0.0776
17083SOL     OW56095   9.265   9.405   4.324  0.0541  0.4477  0.7308
17083SOL    HW156096   9.348   9.418   4.279  1.4415 -0.5420  2.8825
17083SOL    HW256097   9.241   9.314   4.304  0.5670  0.0718  1.7974
17084SOL     OW56098   0.355   2.758   0.946 -0.1289  0.0379 -0.5825
17084SOL    HW156099   0.343   2.793   1.033 -0.4435  0.5380 -0.8249
17084SOL    HW256100   0.276   2.706   0.929 -1.0839  1.6562 -1.3752
17085SOL     OW56101   4.274   5.801   2.460 -0.2353  0.2311 -0.2426
17085SOL    HW156102   4.237   5.876   2.506  0.5609  0.9935 -0.8057
17085SOL    HW256103   4.264   5.823   2.367 -0.7222 -0.7279 -0.4279
17086SOL     OW56104   9.701   4.738   0.943 -0.6412  0.2928 -0.0380
17086SOL    HW156105   9.701   4.799   0.869  0.7212  1.6444  1.0101
17086SOL    HW256106   9.736   4.657   0.907 -0.6436  0.7171 -1.0384
17087SOL     OW56107   7.372   1.310   5.976  0.2888  0.0966  0.3296
17087SOL    HW156108   7.353   1.396   6.013  0.1058  0.5592 -0.7931
17087SOL    HW256109   7.422   1.265   6.044  1.5273  1.5565  0.4509
17088SOL     OW56110   7.696   4.920   4.624 -0.1212 -0.0374  0.1568
17088SOL    HW156111   7.617   4.955   4.666  1.1265  1.4983  1.3085
17088SOL    HW256112   7.710   4.977   4.548  0.1165 -0.0391  0.1983
17089SOL     OW56113   6.788   8.135   1.987  0.2065 -0.4901  0.1667
17089SOL    HW156114   6.777   8.076   2.061  1.2164 -1.4061 -0.3706
17089SOL    HW256115   6.839   8.208   2.021 -0.1390 -0.4427  0.5897
17090SOL     OW56116   5.698   7.816   5.311  0.9114 -0.1657 -0.0198
17090SOL    HW156117   5.770   7.876   5.294  0.6754 -0.3803 -1.9551
17090SOL    HW256118   5.645   7.818   5.231 -1.7410  0.6586  1.5995
17091SOL     OW56119   1.795   4.502   0.978  0.0613  0.1054  0.0947
17091SOL    HW156120   1.792   4.597   0.989 -1.5535  0.1965 -0.8102
17091SOL    HW256121   1.749   4.486   0.896 -1.4508 -1.5981  1.1925
17092SOL     OW56122   2.188   3.327   2.990  0.7096  0.0966 -0.1175
17092SOL    HW156123   2.234   3.380   2.924 -1.7748  0.9043 -1.3259
17092SOL    HW256124   2.118   3.384   3.021 -0.7511 -1.7406  0.1175
17093SOL     OW56125   7.394   4.883   1.248  0.0921 -0.1484  0.0985
17093SOL    HW156126   7.327   4.819   1.225 -0.8916  1.1052 -0.6797
17093SOL    HW256127   7.415   4.926   1.164 -1.1111  2.2430  0.9277
17094SOL     OW56128   7.738   8.275   4.885  0.0183 -0.1084  0.5335
17094SOL    HW156129   7.653   8.232   4.873  0.8798 -1.6385 -0.4175
17094SOL    HW256130   7.784   8.260   4.803  0.5780  2.2559  0.3560
17095SOL     OW56131   8.640   7.329   5.701 -0.0467  0.1523 -0.3507
17095SOL    HW156132   8.642   7.235   5.685  0.6316  0.2244 -0.6835
17095SOL    HW256133   8.660   7.369   5.617 -1.3105  0.6293 -0.4571
17096SOL     OW56134   2.406   7.618   1.377  0.2471 -1.0472  0.2935
17096SOL    HW156135   2.400   7.711   1.356  0.5542 -0.7895  1.2590
17096SOL    HW256136   2.321   7.597   1.417  0.8936 -0.6389  1.9865
17097SOL     OW56137   2.480   3.105   0.043  0.1564  0.5402 -0.1252
17097SOL    HW156138   2.547   3.153  -0.006  1.5147 -0.1570  0.9759
17097SOL    HW256139   2.400   3.155   0.029  0.8106  1.1790 -1.8100
17098SOL     OW56140   1.462   9.742   8.228 -0.1940  0.5277  0.5499
17098SOL    HW156141   1.449   9.834   8.209 -1.9506  0.4974  1.4647
17098SOL    HW256142   1.435   9.697   8.148  2.6348  0.8070 -0.7071
17099SOL     OW56143   9.520   9.364   0.161 -0.2032  0.1241  0.3006
17099SOL    HW156144   9.529   9.397   0.251  0.9332 -0.6317  0.4920
17099SOL    HW256145   9.505   9.270   0.171  0.4377 -0.0530 -0.3041
17100SOL     OW56146   3.700   0.550   8.895  0.0012 -0.2073  0.4518
17100SOL    HW156147   3.653   0.495   8.957 -0.1728 -1.3274 -0.6352
17100SOL    HW256148   3.793   0.533   8.914 -0.0231  0.7178  1.4766
17101SOL     OW56149   8.774   3.423   7.966 -1.2058  0.2447 -0.0170
17101SOL    HW156150   8.801   3.484   8.034 -0.6756  0.5681 -0.5200
17101SOL    HW256151   8.845   3.423   7.903 -0.8392 -1.4714  0.3461
17102SOL     OW56152   8.600   9.322   0.728  0.0834  0.0705  0.0178
17102SOL    HW156153   8.672   9.301   0.787 -1.6134 -1.6064  1.6339
17102SOL    HW256154   8.642   9.354   0.648  2.5095  1.9481  1.8785
17103SOL     OW56155   4.403   5.721   4.443  0.2090 -0.2415 -0.2926
17103SOL    HW156156   4.434   5.658   4.508 -1.2519 -0.9711 -0.2590
17103SOL    HW256157   4.369   5.794   4.494 -2.7899 -1.6570 -0.0207
17104SOL     OW56158   0.837   0.933   5.254  0.2632 -0.0527  1.0302
17104SOL    HW156159   0.845   1.020   5.215 -0.6234 -0.6301 -0.5393
17104SOL    HW256160   0.755   0.899   5.219  1.4600 -2.2248  0.1395
17105SOL     OW56161   0.761   1.276   7.188  0.4697  0.2567  0.6711
17105SOL    HW156162   0.755   1.363   7.229  2.4123  1.4597 -1.3520
17105SOL    HW256163   0.684   1.271   7.131  1.0743  1.3577 -0.3101
17106SOL     OW56164   8.541   3.775   6.917 -0.0758 -0.1941  0.1768
17106SOL    HW156165   8.555   3.686   6.884 -0.9953 -0.2126 -0.1909
17106SOL    HW256166   8.553   3.831   6.840 -2.8510 -0.2855 -0.4175
17107SOL     OW56167   6.210   7.893   4.603  0.7990 -0.5177 -0.2703
17107SOL    HW156168   6.178   7.953   4.670  2.7952 -0.6158  0.8591
17107SOL    HW256169   6.220   7.809   4.648 -0.1970 -1.2682 -1.3613
17108SOL     OW56170   6.279   8.182   7.010 -0.1630  0.5942  0.5405
17108SOL    HW156171   6.330   8.144   6.939  0.3576  3.0814 -0.5506
17108SOL    HW256172   6.344   8.223   7.067 -0.6556 -0.4481  1.8787
17109SOL     OW56173   8.101   1.442   0.213  0.4246 -0.3221  0.7544
17109SOL    HW156174   8.110   1.364   0.158 -1.0047 -0.2117  0.3180
17109SOL    HW256175   8.019   1.428   0.261  1.2534 -0.0594  2.2933
17110SOL     OW56176   8.914   6.161   2.388 -0.0327  0.1138 -0.2117
17110SOL    HW156177   8.855   6.095   2.425  1.3836 -1.8217 -1.1726
17110SOL    HW256178   8.963   6.194   2.463  0.3467 -1.1407  0.1235
17111SOL     OW56179   1.227   4.789   1.942 -0.3233 -0.1685 -0.1746
17111SOL    HW156180   1.268   4.788   1.856 -0.7211 -0.6883 -0.3623
17111SOL    HW256181   1.153   4.848   1.933 -0.8388 -0.8446 -0.4164
17112SOL     OW56182   7.385   8.735   6.848 -0.2634  0.4323  0.1990
17112SOL    HW156183   7.403   8.731   6.942  1.7416 -0.4498 -0.1591
17112SOL    HW256184   7.461   8.780   6.811 -0.6830  0.1538 -1.0604
17113SOL     OW56185   7.353   6.556   2.472  0.2966  0.1092  0.1056
17113SOL    HW156186   7.267   6.572   2.512  1.0016 -1.0549  2.2864
17113SOL    HW256187   7.354   6.462   2.454  1.0632  0.1324  0.0025
17114SOL     OW56188   3.968   4.314   4.790  0.3171 -0.2982  0.3958
17114SOL    HW156189   3.955   4.230   4.746  0.9048 -0.9572  1.4386
17114SOL    HW256190   4.052   4.345   4.757 -0.3368  0.3833 -0.7244
17115SOL     OW56191   1.996   4.252   9.078  0.4705  0.1286  0.1899
17115SOL    HW156192   1.936   4.181   9.055  0.4127 -0.8849  3.1093
17115SOL    HW256193   2.077   4.230   9.031 -0.6529  0.2897 -1.9747
17116SOL     OW56194   1.239   5.543   2.855  0.5125  0.1707 -0.5354
17116SOL    HW156195   1.291   5.611   2.812 -0.4291  0.9587 -0.4776
17116SOL    HW256196   1.151   5.555   2.819 -0.0778  0.1937  0.8550
17117SOL     OW56197   5.207   8.306   6.221 -0.0891 -0.2630  0.3516
17117SOL    HW156198   5.173   8.381   6.271  1.2846  0.3074  0.4758
17117SOL    HW256199   5.153   8.303   6.142  0.4839  1.5073 -0.1434
17118SOL     OW56200   6.817   2.605   0.239 -0.8484  0.2985 -0.4402
17118SOL    HW156201   6.767   2.668   0.188 -1.4399  0.0396 -0.1964
17118SOL    HW256202   6.865   2.657   0.303 -3.1787  0.4030  1.3658
17119SOL     OW56203   3.229   9.512   3.514  0.0694 -0.4019  0.0969
17119SOL    HW156204   3.280   9.525   3.434  2.1437  0.0903  1.4146
17119SOL    HW256205   3.183   9.595   3.527  2.3974  0.8454  1.1240
17120SOL     OW56206   7.607   8.450   1.262  0.0736 -0.0110  0.1981
17120SOL    HW156207   7.624   8.543   1.246  0.5427 -0.3206 -1.2945
17120SOL    HW256208   7.561   8.448   1.346 -0.9814  1.6752 -0.2771
17121SOL     OW56209   6.657   1.959   0.832 -0.2093  0.1556  0.0633
17121SOL    HW156210   6.729   1.942   0.771 -1.4133 -3.7155 -0.5677
17121SOL    HW256211   6.610   2.033   0.795  0.8086 -0.2177 -2.1116
17122SOL     OW56212   4.442   0.286   7.082 -0.4827 -0.1431  0.6635
17122SOL    HW156213   4.516   0.227   7.096  1.0190  1.2333 -1.0651
17122SOL    HW256214   4.366   0.229   7.083  0.7746 -1.9113  0.4712
17123SOL     OW56215   3.311   3.883   2.735  0.5153 -0.3687  0.0717
17123SOL    HW156216   3.247   3.890   2.663  0.4618  0.3413  0.1830
17123SOL    HW256217   3.260   3.850   2.809  0.4657 -0.6328 -0.0777
17124SOL     OW56218   7.327   0.359   1.169 -0.0230 -0.1421  0.1388
17124SOL    HW156219   7.234   0.359   1.192 -0.2178  3.2156 -0.0917
17124SOL    HW256220   7.334   0.297   1.097 -2.2846  0.0853 -0.3509
17125SOL     OW56221   8.822   3.808   4.787 -0.5301  0.9004 -0.0766
17125SOL    HW156222   8.749   3.826   4.846 -0.9126  0.3031 -0.3529
17125SOL    HW256223   8.795   3.848   4.704 -0.7540  0.2797 -0.3062
17126SOL     OW56224   2.909   1.238   6.551 -0.6239 -0.0550  0.0943
17126SOL    HW156225   2.872   1.206   6.468 -0.4566 -0.2617  0.0996
17126SOL    HW256226   2.922   1.159   6.603 -1.4582  0.1363  0.6202
17127SOL     OW56227   6.051   3.087   4.748 -0.1373  0.0888 -0.3545
17127SOL    HW156228   6.133   3.049   4.717  1.2299  3.3058 -1.0836
17127SOL    HW256229   5.990   3.075   4.675 -0.0493 -1.3692 -0.2198
17128SOL     OW56230   5.969   0.078   1.321  0.0946  0.1229 -0.4564
17128SOL    HW156231   5.986   0.028   1.241  0.5177 -1.2363  0.4592
17128SOL    HW256232   5.960   0.012   1.390  2.4765  1.3408  1.1547
17129SOL     OW56233   5.231   7.867   5.682 -0.4805 -0.0842  0.1949
17129SOL    HW156234   5.290   7.930   5.724  0.4251 -0.5697 -0.3025
17129SOL    HW256235   5.206   7.909   5.600  0.9831 -0.7757 -0.6459
17130SOL     OW56236   1.568   4.978   0.112 -0.1654 -0.1098  0.0419
17130SOL    HW156237   1.492   4.960   0.167  0.0510  0.7860  0.6600
17130SOL    HW256238   1.554   5.067   0.081  0.2441 -0.2287 -0.4915
17131SOL     OW56239   8.422   5.912   3.578 -0.2755  0.8735  0.2109
17131SOL    HW156240   8.339   5.881   3.615 -0.5062  2.0203  0.7196
17131SOL    HW256241   8.481   5.917   3.654  0.4218 -0.4109 -0.2293
17132SOL     OW56242   3.503   9.666   9.623 -0.3905  0.5830 -0.7298
17132SOL    HW156243   3.449   9.588   9.614 -0.4813  0.3673  1.2198
17132SOL    HW256244   3.544   9.657   9.709  2.4113  0.9794 -1.9292
17133SOL     OW56245   0.398   3.445   8.223 -0.1338 -0.0946 -0.0843
17133SOL    HW156246   0.476   3.423   8.274 -0.2704 -0.4287 -0.0108
17133SOL    HW256247   0.332   3.383   8.254 -1.3553  2.1401  2.0910
17134SOL     OW56248   3.190   1.264   4.697 -0.0035  0.2384 -0.4065
17134SOL    HW156249   3.190   1.174   4.665  1.1952 -0.1550  0.5809
17134SOL    HW256250   3.219   1.317   4.623 -1.3526 -0.0904 -1.1881
17135SOL     OW56251   2.801   4.675   5.658 -0.1834 -0.0354 -0.5064
17135SOL    HW156252   2.742   4.750   5.658 -2.9320 -1.7188  4.1214
17135SOL    HW256253   2.884   4.710   5.688 -0.6514  1.5432 -0.9792
17136SOL     OW56254   2.768   7.201   7.358 -0.1108  0.2577  0.2409
17136SOL    HW156255   2.814   7.248   7.428 -1.3069  0.6483  0.7891
17136SOL    HW256256   2.753   7.113   7.394  0.3182  0.0858  0.0066
17137SOL     OW56257   8.175   1.609   2.157 -0.3027 -0.7340 -0.2591
17137SOL    HW156258   8.122   1.555   2.217  0.1198 -1.4945 -0.5595
17137SOL    HW256259   8.205   1.681   2.212 -0.7176 -0.9001  0.2051
17138SOL     OW56260   5.342   6.258   4.806 -0.1558 -0.1472  0.2262
17138SOL    HW156261   5.361   6.164   4.801  0.0616 -0.0622 -0.9612
17138SOL    HW256262   5.388   6.288   4.884 -0.7083 -1.1254  0.9548
17139SOL     OW56263   2.100   6.663   8.838  0.6741  0.6160  0.3254
17139SOL    HW156264   2.148   6.684   8.918 -1.3313  0.2960  1.6899
17139SOL    HW256265   2.033   6.731   8.832 -1.1117 -1.0349  0.6292
17140SOL     OW56266   6.569   8.596   1.730  0.0474  0.4844 -0.0429
17140SOL    HW156267   6.654   8.562   1.758 -0.8626 -0.8230  1.2757
17140SOL    HW256268   6.590   8.658   1.660  2.0917  0.4049  0.4366
17141SOL     OW56269   6.750   1.233   8.795  0.0534 -0.3352  0.5390
17141SOL    HW156270   6.813   1.249   8.865 -1.1176  1.9569  1.1883
17141SOL    HW256271   6.667   1.219   8.841 -0.4501 -0.3325 -0.3466
17142SOL     OW56272   6.323   4.735   0.557 -0.0201  0.3036 -0.1823
17142SOL    HW156273   6.287   4.766   0.474 -0.0304 -0.3918 -0.4367
17142SOL    HW256274   6.401   4.685   0.532  0.5713  0.9696  0.2976
17143SOL     OW56275   3.026   1.122   1.271 -0.4411  0.1578 -0.1960
17143SOL    HW156276   3.015   1.216   1.258 -0.2498  0.4649  1.6559
17143SOL    HW256277   3.070   1.092   1.191 -1.6580  1.3912 -1.3791
17144SOL     OW56278   6.062   2.372   3.991 -0.5627 -0.0209  0.1665
17144SOL    HW156279   6.129   2.440   3.986 -0.5154 -0.0801 -0.0209
17144SOL    HW256280   6.022   2.372   3.904 -0.5671 -0.2271  0.1682
17145SOL     OW56281   5.072   2.499   3.810  0.1686 -0.5200 -0.1609
17145SOL    HW156282   5.097   2.592   3.813 -1.1933 -0.0850 -1.3062
17145SOL    HW256283   5.125   2.458   3.879 -0.3562  1.3867  1.4675
17146SOL     OW56284   7.015   5.325   3.182 -0.5278  0.0386  0.0466
17146SOL    HW156285   6.986   5.375   3.105 -1.9447  0.4668  0.8298
17146SOL    HW256286   7.109   5.340   3.186 -0.2318 -0.7683 -2.1578
17147SOL     OW56287   7.784   1.993   4.731 -0.8837  0.1130 -0.4522
17147SOL    HW156288   7.763   2.043   4.652 -0.7904  0.2825 -0.3716
17147SOL    HW256289   7.841   1.922   4.701  0.0434  0.8111 -0.3845
17148SOL     OW56290   1.307   7.131   4.689  0.1095  0.0616  0.1313
17148SOL    HW156291   1.343   7.051   4.726 -1.0490 -0.5056  0.0778
17148SOL    HW256292   1.325   7.198   4.755  2.8391  0.2370 -0.6447
17149SOL     OW56293   6.253   0.190   5.424 -1.0240 -0.3233  0.0453
17149SOL    HW156294   6.210   0.266   5.463  0.5315 -0.1623  1.5319
17149SOL    HW256295   6.215   0.115   5.470 -1.7582 -0.4007 -0.6572
17150SOL     OW56296   0.372   8.710   0.919  0.5544  0.3795  0.1593
17150SOL    HW156297   0.413   8.638   0.870  0.4108 -0.8833  1.7837
17150SOL    HW256298   0.317   8.754   0.855  2.3243  0.4377 -1.4274
17151SOL     OW56299   2.959   0.486   8.079 -0.0595 -0.5156 -0.2868
17151SOL    HW156300   2.933   0.395   8.092 -0.2192 -0.4625 -0.2306
17151SOL    HW256301   2.960   0.497   7.984 -0.0469 -0.5751 -0.2935
17152SOL     OW56302   8.725   4.371   8.375  0.5708  0.1535  0.4868
17152SOL    HW156303   8.736   4.281   8.403  0.5839 -0.8602 -2.3782
17152SOL    HW256304   8.655   4.406   8.429 -1.3226 -2.4747 -0.0799
17153SOL     OW56305   4.793   4.107   9.746  0.2141  0.4540 -0.2902
17153SOL    HW156306   4.803   4.160   9.825  1.8863 -0.2442  0.0210
17153SOL    HW256307   4.757   4.167   9.681  1.7944  1.9381  0.1284
17154SOL     OW56308   0.229   1.520   6.026  0.1294  0.6606  0.6562
17154SOL    HW156309   0.210   1.596   6.080 -2.0092  0.6730 -0.0090
17154SOL    HW256310   0.220   1.445   6.085 -0.3067  0.7841  0.7481
17155SOL     OW56311   7.734   7.360   0.241 -0.5947 -0.0024 -0.5197
17155SOL    HW156312   7.725   7.331   0.332 -1.5182  1.8628  0.0374
17155SOL    HW256313   7.649   7.345   0.202 -0.9276  1.3147 -0.3710
17156SOL     OW56314   5.409   8.549   3.783 -0.5418 -0.5379  0.5025
17156SOL    HW156315   5.495   8.537   3.824 -0.1430  1.7478  0.4634
17156SOL    HW256316   5.347   8.516   3.848  0.2812 -1.0178  1.0694
17157SOL     OW56317   3.469   4.955   4.205 -0.5502 -0.2083 -0.0335
17157SOL    HW156318   3.488   4.947   4.111  1.5874  1.7122  0.1690
17157SOL    HW256319   3.418   5.036   4.212 -0.4777 -0.2114  0.5146
17158SOL     OW56320   1.615   3.630   3.823 -0.3292  0.2562  0.4594
17158SOL    HW156321   1.615   3.713   3.871 -0.3219  0.0404  0.8381
17158SOL    HW256322   1.541   3.638   3.762  1.2247  1.5777 -1.3569
17159SOL     OW56323   1.770   2.289   7.228 -0.1980  0.0508  0.5227
17159SOL    HW156324   1.725   2.365   7.191  0.4323  0.5628  0.8043
17159SOL    HW256325   1.841   2.271   7.166  0.5684  0.6182  1.2262
17160SOL     OW56326   2.412   5.894   8.899 -0.1128 -0.2659 -0.3534
17160SOL    HW156327   2.403   5.800   8.890 -0.3633 -0.1389 -1.5289
17160SOL    HW256328   2.414   5.927   8.809 -1.5636  0.9887  0.0447
17161SOL     OW56329   2.426   4.861   0.868  0.3958 -0.0013 -0.3449
17161SOL    HW156330   2.373   4.910   0.932 -0.5048  0.8476 -1.6957
17161SOL    HW256331   2.369   4.852   0.792  1.9190  0.1973 -1.5436
17162SOL     OW56332   6.307   9.049   0.325 -0.1334  0.6886  0.0482
17162SOL    HW156333   6.348   8.974   0.367 -1.7434  0.6699  1.7589
17162SOL    HW256334   6.370   9.079   0.260  2.2841  0.3372  2.0942
17163SOL     OW56335   1.097   1.155   1.047  0.0855  0.5622 -0.0118
17163SOL    HW156336   1.116   1.244   1.019 -0.3345  0.9693  0.9667
17163SOL    HW256337   1.030   1.164   1.114 -3.9186 -0.8009 -3.4087
17164SOL     OW56338   7.996   1.465   2.331 -0.2931 -0.8102 -0.4042
17164SOL    HW156339   7.953   1.399   2.386 -3.5930 -1.3220 -3.2823
17164SOL    HW256340   7.963   1.548   2.363  1.1522 -0.7195  0.9890
17165SOL     OW56341   4.797   2.593   7.080 -0.2948 -0.3172  0.0946
17165SOL    HW156342   4.797   2.500   7.103  2.5347 -0.3901  0.1646
17165SOL    HW256343   4.860   2.633   7.141 -0.9264  1.5167 -0.3864
17166SOL     OW56344   3.426   5.581   2.616 -0.6231 -0.0826  0.2372
17166SOL    HW156345   3.332   5.571   2.603 -0.6848 -1.2480  1.4578
17166SOL    HW256346   3.459   5.493   2.631  1.0475 -0.0099 -2.2608
17167SOL     OW56347   8.945   8.429   5.424 -0.3122  0.0583  0.1202
17167SOL    HW156348   9.005   8.419   5.349  0.7969  1.1713  0.8083
17167SOL    HW256349   8.858   8.427   5.385  0.1253 -1.9086 -0.8791
17168SOL     OW56350   7.848   1.613   2.720 -1.0564 -0.0914  0.0862
17168SOL    HW156351   7.872   1.581   2.807  1.6512  0.2121 -0.4656
17168SOL    HW256352   7.820   1.535   2.673  1.1616 -1.0061  0.1320
17169SOL     OW56353   6.495   8.357   2.550  0.1611 -0.1949 -0.2490
17169SOL    HW156354   6.533   8.278   2.513  0.6018 -0.4884  0.7927
17169SOL    HW256355   6.553   8.428   2.521  0.3713 -0.3839 -0.2879
17170SOL     OW56356   2.195   0.628   3.227  0.6014 -0.1150 -0.5037
17170SOL    HW156357   2.187   0.663   3.316 -1.6201 -0.0335 -0.6746
17170SOL    HW256358   2.196   0.705   3.170  1.0861 -0.1957 -0.6099
17171SOL     OW56359   4.837   2.840   5.956  0.6023 -0.4192 -0.4053
17171SOL    HW156360   4.871   2.753   5.935 -0.2189 -0.5730 -1.1815
17171SOL    HW256361   4.882   2.865   6.037  0.2936 -1.8777  0.2433
17172SOL     OW56362   1.849   5.872   0.165  0.0853 -0.5913  0.3529
17172SOL    HW156363   1.838   5.955   0.119 -1.3134 -1.3556 -0.8007
17172SOL    HW256364   1.885   5.896   0.250 -0.1457  1.1745 -0.0047
17173SOL     OW56365   5.481   0.427   7.232 -0.1129  0.0782 -0.0083
17173SOL    HW156366   5.415   0.365   7.261 -0.2099 -0.5925 -1.5750
17173SOL    HW256367   5.430   0.502   7.199 -0.1244 -0.4431 -1.2251
17174SOL     OW56368   6.071   0.881   6.158 -0.5164 -0.2010  0.0620
17174SOL    HW156369   6.066   0.835   6.242 -0.9775 -0.2409  0.0126
17174SOL    HW256370   6.018   0.828   6.098  0.3797 -0.5692 -0.4410
17175SOL     OW56371   5.256   8.471   8.311 -0.1946  0.6799  0.6046
17175SOL    HW156372   5.172   8.496   8.349  0.3724  2.3146  0.8583
17175SOL    HW256373   5.305   8.553   8.303  0.5698  0.0905 -1.5654
17176SOL     OW56374   6.972   0.464   3.259  0.1908  0.9222 -0.4115
17176SOL    HW156375   6.888   0.470   3.305 -0.0663  0.8606 -0.8676
17176SOL    HW256376   6.951   0.486   3.168  0.0559 -2.1219 -1.2386
17177SOL     OW56377   5.563   1.141   7.207  0.2102 -0.0620 -0.2192
17177SOL    HW156378   5.483   1.088   7.202 -1.3999  2.2833 -0.9983
17177SOL    HW256379   5.595   1.127   7.296 -0.3788 -1.9456 -0.2506
17178SOL     OW56380   2.138   3.433   6.265 -0.0070  0.3921 -0.6038
17178SOL    HW156381   2.143   3.353   6.317 -0.2774 -0.0949 -1.3206
17178SOL    HW256382   2.186   3.498   6.317  1.6364 -0.6404 -0.7727
17179SOL     OW56383   5.929   6.940   3.218 -0.1872 -0.4324 -0.3574
17179SOL    HW156384   5.871   6.985   3.279 -1.2526  0.3128 -1.8621
17179SOL    HW256385   5.880   6.862   3.191  0.0290 -0.4576 -0.6883
17180SOL     OW56386   5.020   8.953   5.871 -0.2858  0.7478 -0.0176
17180SOL    HW156387   5.052   8.939   5.782  2.1112  1.6492  0.6288
17180SOL    HW256388   5.026   9.048   5.884  0.4640  0.5278  1.4517
17181SOL     OW56389   6.538   1.884   7.144 -0.0124 -0.3981  0.4622
17181SOL    HW156390   6.563   1.817   7.208  1.4664  0.4166  0.8003
17181SOL    HW256391   6.560   1.846   7.059  0.3560 -0.5252  0.6139
17182SOL     OW56392   6.757   1.666   7.643  0.7129 -0.6752  0.4619
17182SOL    HW156393   6.731   1.709   7.725 -0.0257 -0.7856  0.2984
17182SOL    HW256394   6.776   1.739   7.584  0.7461 -0.5867  0.5813
17183SOL     OW56395   6.141   0.799   4.129 -0.3773  0.4315  0.1288
17183SOL    HW156396   6.075   0.747   4.084 -1.1357  0.0065  1.6854
17183SOL    HW256397   6.101   0.822   4.212  1.4309  0.1588  1.1203
17184SOL     OW56398   7.930   2.043   4.969 -0.2380 -0.2189 -0.1024
17184SOL    HW156399   7.876   2.050   4.891 -0.1876 -2.5045 -0.4073
17184SOL    HW256400   7.868   2.041   5.042 -0.3364  0.7641 -0.1400
17185SOL     OW56401   8.499   7.427   9.067  0.0700 -0.1283 -0.5626
17185SOL    HW156402   8.554   7.354   9.038 -0.4657 -0.5165 -0.6200
17185SOL    HW256403   8.524   7.441   9.158  0.5101 -0.0665 -0.6873
17186SOL     OW56404   4.839   4.176   1.632  0.0932  0.0643 -0.3423
17186SOL    HW156405   4.900   4.232   1.681 -1.1354  1.0855  0.0787
17186SOL    HW256406   4.766   4.234   1.610 -1.5820 -1.5585  0.7308
17187SOL     OW56407   3.705   2.978   9.688 -0.3771  0.6272 -0.3754
17187SOL    HW156408   3.696   2.952   9.596  1.0721 -0.4437 -0.2497
17187SOL    HW256409   3.724   2.897   9.734 -1.5598  1.0858  0.9657
17188SOL     OW56410   5.110   1.604   7.854  0.0899  0.4094 -0.0344
17188SOL    HW156411   5.204   1.620   7.855 -0.1987  2.9939 -2.3233
17188SOL    HW256412   5.075   1.657   7.925  0.3529 -1.0326  1.2175
17189SOL     OW56413   8.643   0.163   8.178 -0.1454  0.5657 -0.2782
17189SOL    HW156414   8.681   0.216   8.248  1.9753 -1.4196  0.1643
17189SOL    HW256415   8.692   0.187   8.100 -0.2148  0.3535 -0.3868
17190SOL     OW56416   3.266   1.444   4.485  0.3922 -0.3418 -0.1132
17190SOL    HW156417   3.193   1.498   4.519  0.9686 -0.0884  0.7575
17190SOL    HW256418   3.341   1.503   4.486  0.8758 -0.9530  0.1646
17191SOL     OW56419   6.165   8.186   4.855  0.2084  0.1469  0.0809
17191SOL    HW156420   6.079   8.214   4.887 -0.2587 -1.8964  0.8123
17191SOL    HW256421   6.199   8.130   4.925  2.2908  1.1114 -0.0824
17192SOL     OW56422   7.734   1.126   3.558  0.3534 -0.1515  0.8090
17192SOL    HW156423   7.795   1.134   3.485 -0.0000 -0.4057  0.4770
17192SOL    HW256424   7.744   1.035   3.588 -0.7219 -0.5818 -0.0446
17193SOL     OW56425   9.676   5.280   7.001  0.3823 -0.2373  0.0072
17193SOL    HW156426   9.613   5.337   7.045  0.6102 -0.7892  1.0758
17193SOL    HW256427   9.622   5.221   6.948  0.0512 -0.1391  0.2327
17194SOL     OW56428   5.308   6.497   1.622  0.3655  0.2561  0.4166
17194SOL    HW156429   5.248   6.570   1.629 -0.2433 -0.2787  0.8975
17194SOL    HW256430   5.359   6.515   1.543 -0.6840  0.5275 -0.2115
17195SOL     OW56431   3.979   2.628   0.740  0.0486  0.3355  0.2823
17195SOL    HW156432   3.970   2.567   0.666  0.4048  0.5883  0.0267
17195SOL    HW256433   4.061   2.673   0.723  0.1624  0.3484  0.8731
17196SOL     OW56434   1.161   8.610   1.501  0.1360 -0.4072  0.6837
17196SOL    HW156435   1.146   8.701   1.477 -1.4814 -0.4177  1.5222
17196SOL    HW256436   1.253   8.594   1.479  0.1307  1.0664 -0.5588
17197SOL     OW56437   5.358   2.857   4.678 -0.3388  0.2913 -0.1899
17197SOL    HW156438   5.299   2.896   4.743 -0.9848 -1.4930  0.3489
17197SOL    HW256439   5.326   2.890   4.594 -0.0424  1.9186  0.2999
17198SOL     OW56440   1.935   8.677   2.169  0.9432  0.7267  0.3146
17198SOL    HW156441   2.007   8.648   2.114  0.8910 -0.4409  0.8290
17198SOL    HW256442   1.942   8.624   2.248  1.6156  3.0153  1.9207
17199SOL     OW56443   9.605   1.849   6.383  0.5549  0.5409  0.3605
17199SOL    HW156444   9.564   1.808   6.459 -0.9729  0.7821 -0.2838
17199SOL    HW256445   9.559   1.811   6.308  1.2363  1.1529 -0.3882
17200SOL     OW56446   7.937   5.886   1.261 -0.0657  0.7569  0.0124
17200SOL    HW156447   8.017   5.885   1.208  0.9561 -0.6398  1.4901
17200SOL    HW256448   7.957   5.829   1.336 -3.3083 -1.6847 -0.7898
17201SOL     OW56449   8.862   1.800   8.825 -1.2679  0.4176  0.0369
17201SOL    HW156450   8.792   1.735   8.823 -1.8724  0.9385  1.9728
17201SOL    HW256451   8.817   1.884   8.827 -0.5300  0.8509 -0.7908
17202SOL     OW56452   6.235   1.866   1.982 -0.0403 -0.2801 -0.5388
17202SOL    HW156453   6.292   1.829   1.915  3.3608  1.2008  1.2874
17202SOL    HW256454   6.150   1.824   1.968  1.5224 -2.8611 -3.2791
17203SOL     OW56455   4.436   8.392   7.245  0.1131 -0.4576 -0.6515
17203SOL    HW156456   4.430   8.488   7.247 -2.1428 -0.5473 -0.5256
17203SOL    HW256457   4.361   8.365   7.194 -0.1151 -2.2242  0.5493
17204SOL     OW56458   7.237   6.849   8.677  0.6378 -0.0792  0.0748
17204SOL    HW156459   7.295   6.780   8.642  1.0586  1.1563 -1.7846
17204SOL    HW256460   7.268   6.862   8.767  1.8440 -0.9458 -0.1832
17205SOL     OW56461   3.169   7.586   8.204  0.4145  0.7906  0.2490
17205SOL    HW156462   3.235   7.652   8.226  0.4904  0.5036  0.8868
17205SOL    HW256463   3.188   7.563   8.113 -0.3792  2.5472 -0.4091
17206SOL     OW56464   2.652   3.196   1.881 -0.3077  0.2318  0.1289
17206SOL    HW156465   2.594   3.139   1.830 -0.7518  0.2728  0.5735
17206SOL    HW256466   2.596   3.270   1.906  0.7314  1.8472 -2.0452
17207SOL     OW56467   4.350   0.443   4.141  0.0591 -0.5527 -0.0189
17207SOL    HW156468   4.254   0.445   4.141 -0.0484 -2.6282 -1.2520
17207SOL    HW256469   4.375   0.500   4.068 -0.2354 -0.2036  0.1490
17208SOL     OW56470   3.427   2.873   3.614  0.1313  0.7744  0.5050
17208SOL    HW156471   3.430   2.965   3.586  0.5495  0.6663  0.1849
17208SOL    HW256472   3.436   2.823   3.533 -0.9223  0.4404  0.5850
17209SOL     OW56473   0.926   1.903   5.130 -0.0524 -0.0800 -0.0973
17209SOL    HW156474   0.943   1.908   5.224  0.7886 -0.9123 -0.1883
17209SOL    HW256475   0.840   1.943   5.119  0.5152  1.4892  0.8043
17210SOL     OW56476   8.847   9.557   8.434 -0.5542 -0.2479  0.4171
17210SOL    HW156477   8.778   9.562   8.367 -1.8005 -0.8240  1.6083
17210SOL    HW256478   8.929   9.555   8.384 -1.4243 -0.1942 -1.0691
17211SOL     OW56479   5.719   4.704   9.602  0.1678 -0.2472  0.1761
17211SOL    HW156480   5.725   4.797   9.627 -2.0323  0.8122 -2.6179
17211SOL    HW256481   5.640   4.673   9.646 -0.2874 -0.1281 -0.5319
17212SOL     OW56482   4.978   5.177   6.842 -0.1131 -0.3243 -0.3478
17212SOL    HW156483   5.067   5.208   6.856 -0.3537  0.3556 -0.2827
17212SOL    HW256484   4.967   5.178   6.747 -0.9251  2.1918 -0.2885
17213SOL     OW56485   2.488   0.954   7.014 -0.3358  0.4893 -1.1226
17213SOL    HW156486   2.569   0.912   6.985  0.2940  0.4471  0.6206
17213SOL    HW256487   2.489   1.040   6.972  1.5891  1.2484  0.3583
17214SOL     OW56488   1.433   1.434   2.758 -0.2026 -0.3730  0.1618
17214SOL    HW156489   1.402   1.519   2.726 -0.6762 -0.3729  0.6080
17214SOL    HW256490   1.380   1.370   2.710 -0.8956 -0.3734  0.9080
17215SOL     OW56491   9.654   8.076   8.479  0.0647  0.1650  0.0300
17215SOL    HW156492   9.726   8.038   8.530  0.4229 -0.4477 -0.8943
17215SOL    HW256493   9.646   8.166   8.511  0.1319 -0.2596  1.3002
17216SOL     OW56494   2.963   8.704   6.216  0.4405  0.0578  0.7255
17216SOL    HW156495   2.956   8.614   6.247 -0.3747  0.0201  0.4661
17216SOL    HW256496   3.056   8.724   6.220  0.6130 -0.7502  0.9095
17217SOL     OW56497   4.654   4.367   3.902 -0.7099  0.5290 -0.2614
17217SOL    HW156498   4.667   4.379   3.996  1.4315 -0.4244 -0.3798
17217SOL    HW256499   4.577   4.311   3.895 -2.5463  2.7451  0.7515
17218SOL     OW56500   5.188   9.563   1.875 -0.0445  0.1650  0.0444
17218SOL    HW156501   5.104   9.574   1.920 -0.0202  1.7531 -0.2498
17218SOL    HW256502   5.204   9.469   1.877 -1.3232 -0.0565  1.0249
17219SOL     OW56503   2.931   7.695   4.683 -0.4615 -0.3660 -0.5039
17219SOL    HW156504   2.879   7.615   4.688  0.1976 -0.9262 -1.9378
17219SOL    HW256505   2.978   7.699   4.765 -2.8784  0.2739  0.9637
17220SOL     OW56506   2.870   6.659   4.885 -0.1949 -0.1335 -0.2540
17220SOL    HW156507   2.942   6.604   4.916  0.2791 -0.2202 -1.4453
17220SOL    HW256508   2.841   6.707   4.962 -1.5356 -3.0123  1.2154
17221SOL     OW56509   5.510   6.276   5.896  0.2432  0.6341  0.8113
17221SOL    HW156510   5.492   6.354   5.842  0.6131 -0.5614 -1.1504
17221SOL    HW256511   5.603   6.258   5.879  0.6895  0.8672  2.8026
17222SOL     OW56512   2.731   7.701   4.305 -0.1775 -0.0323 -0.1350
17222SOL    HW156513   2.810   7.726   4.352 -0.0963  0.0233 -0.3006
17222SOL    HW256514   2.759   7.692   4.214 -0.6671  1.4440 -0.4564
17223SOL     OW56515   7.773   1.823   3.716  0.2174  0.7654  0.4665
17223SOL    HW156516   7.807   1.733   3.719  0.7755  0.9462 -0.0542
17223SOL    HW256517   7.849   1.876   3.690 -0.6846  1.0553 -1.7964
17224SOL     OW56518   0.374   5.764   1.497  0.0971  0.1220 -0.3286
17224SOL    HW156519   0.438   5.828   1.528 -0.9009  0.8273  0.3475
17224SOL    HW256520   0.308   5.761   1.567  1.1451 -3.2348  0.6930
17225SOL     OW56521   0.353   9.154   1.724 -0.5101 -0.4709  0.2696
17225SOL    HW156522   0.258   9.159   1.734 -0.4384 -1.6019  1.9286
17225SOL    HW256523   0.366   9.104   1.644 -1.3799 -2.1868  1.1422
17226SOL     OW56524   2.358   6.298   3.871  0.0927 -0.4917 -0.0407
17226SOL    HW156525   2.371   6.305   3.776 -1.1297  1.0274 -0.1422
17226SOL    HW256526   2.283   6.356   3.889 -0.7634 -2.0232  1.6246
17227SOL     OW56527   3.706   5.704   9.671 -0.1555  0.4981  0.1065
17227SOL    HW156528   3.750   5.629   9.712 -0.4872  0.8239  1.0698
17227SOL    HW256529   3.716   5.775   9.734 -0.0845  1.2033 -0.6794
17228SOL     OW56530   8.756   5.601   2.029  0.5228 -0.1437 -0.0706
17228SOL    HW156531   8.850   5.583   2.035  0.4069 -1.2338 -1.2150
17228SOL    HW256532   8.746   5.652   1.949  0.0905 -0.3687 -0.1600
17229SOL     OW56533   4.373   6.891   2.248  0.2918  0.1055  0.0673
17229SOL    HW156534   4.300   6.875   2.307 -1.1637 -1.4413 -1.9926
17229SOL    HW256535   4.450   6.891   2.305 -1.2218  1.7228  2.3049
17230SOL     OW56536   5.602   9.493   3.294  0.7117 -0.4942 -0.6368
17230SOL    HW156537   5.619   9.434   3.221 -0.2652 -0.7513 -0.6764
17230SOL    HW256538   5.676   9.553   3.294  1.0812 -0.9308 -1.3936
17231SOL     OW56539   8.340   8.129   7.340 -0.0414  0.8482  0.3560
17231SOL    HW156540   8.265   8.084   7.377 -0.2274  1.2773  0.5088
17231SOL    HW256541   8.303   8.205   7.295  0.3876  1.7538  1.4666
17232SOL     OW56542   7.987   2.456   2.500 -0.1641 -0.5142 -0.4563
17232SOL    HW156543   7.962   2.527   2.441  0.1862  0.2961  0.3554
17232SOL    HW256544   8.081   2.466   2.510 -0.3715  0.0695  1.1349
17233SOL     OW56545   5.571   0.907   7.016 -0.0300 -0.0070 -0.3335
17233SOL    HW156546   5.589   0.820   7.051 -1.4426  0.0974  0.7912
17233SOL    HW256547   5.491   0.934   7.061 -0.2056  1.4454 -1.4396
17234SOL     OW56548   7.959   6.455   6.562  0.2756 -0.6784 -0.1711
17234SOL    HW156549   7.918   6.398   6.627  1.5544 -1.7200 -0.2471
17234SOL    HW256550   7.885   6.498   6.518 -0.6368 -0.5858  1.3770
17235SOL     OW56551   6.408   0.737   2.814  1.0967 -0.1737 -0.4695
17235SOL    HW156552   6.415   0.647   2.845 -0.3185 -0.4824 -0.9458
17235SOL    HW256553   6.335   0.735   2.751  1.0543  1.2958 -0.5056
17236SOL     OW56554   4.266   1.708   0.897 -0.2314  0.3036 -0.0966
17236SOL    HW156555   4.300   1.749   0.976  1.7522  0.3685 -0.9269
17236SOL    HW256556   4.297   1.617   0.901 -0.9494  0.0371 -0.3418
17237SOL     OW56557   5.977   5.650   7.508 -0.3509 -0.3205  0.3136
17237SOL    HW156558   5.960   5.586   7.439  4.2802 -0.2271 -1.2438
17237SOL    HW256559   6.028   5.602   7.573 -0.1965  0.8677  1.1070
17238SOL     OW56560   0.425   9.138   9.027 -0.0153 -0.1106 -0.4925
17238SOL    HW156561   0.437   9.212   9.087  0.7501  0.7569 -1.6827
17238SOL    HW256562   0.480   9.069   9.063 -0.5417 -0.0364  0.4924
17239SOL     OW56563   3.281   6.617   2.036  0.1169 -0.3167  0.1382
17239SOL    HW156564   3.231   6.624   2.117 -0.4589 -0.3085 -0.2082
17239SOL    HW256565   3.299   6.523   2.026 -0.8837 -0.4824 -0.3387
17240SOL     OW56566   7.682   7.143   1.891  0.2995 -0.0890 -0.6899
17240SOL    HW156567   7.697   7.144   1.985 -0.5168  1.6651 -0.5370
17240SOL    HW256568   7.611   7.206   1.877  1.2655  0.6738 -2.6076
17241SOL     OW56569   1.612   4.123   3.613 -0.2388  0.1593 -0.5516
17241SOL    HW156570   1.693   4.164   3.644 -0.5776  1.6423 -1.5177
17241SOL    HW256571   1.617   4.129   3.518 -1.5456  0.3857 -0.6183
17242SOL     OW56572   9.140   4.465   0.243 -0.3394  0.2085  0.6895
17242SOL    HW156573   9.175   4.423   0.164  1.1202 -1.1118  1.9817
17242SOL    HW256574   9.088   4.397   0.285  0.3400  0.3237  1.7449
17243SOL     OW56575   3.784   9.089   1.398 -0.6244  0.3127 -0.1500
17243SOL    HW156576   3.728   9.162   1.425  0.4422  1.1842 -0.2094
17243SOL    HW256577   3.745   9.057   1.317 -0.6024  1.4249 -0.6188
17244SOL     OW56578   4.647   2.303   7.036 -0.1374 -0.4192 -0.0973
17244SOL    HW156579   4.720   2.255   7.075  0.9962  1.2853  0.0127
17244SOL    HW256580   4.656   2.287   6.942  1.4921  1.1355 -0.2636
17245SOL     OW56581   7.160   1.077   1.979  0.2355 -0.7112 -0.2177
17245SOL    HW156582   7.241   1.027   1.968  0.8566  0.3205 -0.5314
17245SOL    HW256583   7.185   1.153   2.031 -0.2748  0.1733 -1.2066
17246SOL     OW56584   4.547   6.876   4.511 -0.8110  0.7810 -0.3888
17246SOL    HW156585   4.503   6.821   4.446 -1.5832  1.1452 -0.1847
17246SOL    HW256586   4.635   6.839   4.518 -1.3601 -0.5306 -0.1452
17247SOL     OW56587   5.262   0.338   8.653 -0.2484 -0.8222 -0.5531
17247SOL    HW156588   5.288   0.325   8.744 -0.0004 -1.0715 -0.6576
17247SOL    HW256589   5.345   0.340   8.604 -0.3008  0.6868 -0.6047
17248SOL     OW56590   6.530   8.250   4.432 -0.4841  0.4522  0.9435
17248SOL    HW156591   6.581   8.330   4.447  0.1726  0.3970 -0.7798
17248SOL    HW256592   6.462   8.277   4.371  0.4812 -0.5503 -0.6247
17249SOL     OW56593   1.015   3.926   8.775 -0.5949  0.3321 -0.3683
17249SOL    HW156594   1.100   3.897   8.743 -0.8216 -0.5901 -0.1870
17249SOL    HW256595   0.992   3.862   8.843 -2.2862 -0.6062 -1.7312
17250SOL     OW56596   7.601   4.488   1.233  0.2087  0.3464 -0.2885
17250SOL    HW156597   7.608   4.582   1.218  3.2130  0.5813  1.6673
17250SOL    HW256598   7.655   4.448   1.165  0.3544  0.1905 -0.0861
17251SOL     OW56599   2.086   4.547   1.264 -0.4911 -0.1289 -0.4600
17251SOL    HW156600   2.031   4.527   1.339 -1.8115 -0.5022 -1.4917
17251SOL    HW256601   2.106   4.463   1.225  0.6399  0.0220 -0.2459
17252SOL     OW56602   8.696   5.437   5.227 -0.4423  0.0877 -0.9905
17252SOL    HW156603   8.733   5.386   5.155  0.2585  0.2987 -0.7873
17252SOL    HW256604   8.685   5.525   5.191  0.1312  0.2527 -0.7826
17253SOL     OW56605   1.132   5.353   7.547 -0.0295  0.2074 -0.7347
17253SOL    HW156606   1.180   5.291   7.603 -0.3247  2.1330  1.8524
17253SOL    HW256607   1.042   5.321   7.546  0.0691 -0.0792 -0.4507
17254SOL     OW56608   6.893   5.299   7.883 -0.0648 -0.4078 -0.2993
17254SOL    HW156609   6.829   5.228   7.882 -0.5248 -0.0123  0.2668
17254SOL    HW256610   6.840   5.379   7.880  0.4582 -0.0225 -3.8116
17255SOL     OW56611   6.073   4.834   7.353  0.1681  0.9492  0.7286
17255SOL    HW156612   6.034   4.883   7.279 -0.7515 -0.7691  0.0117
17255SOL    HW256613   6.160   4.809   7.322 -0.2142  0.2350  0.1995
17256SOL     OW56614   1.974   1.894   4.226  0.2211 -0.5666 -0.2042
17256SOL    HW156615   2.068   1.878   4.218  0.2121 -0.1492 -1.2814
17256SOL    HW256616   1.962   1.985   4.199 -0.3575 -0.2583  1.0412
17257SOL     OW56617   3.536   9.220   6.776  0.6273 -0.0425  0.4532
17257SOL    HW156618   3.605   9.222   6.710  0.2006  0.0332  0.0002
17257SOL    HW256619   3.506   9.130   6.778  1.4690 -0.3199  1.4352
17258SOL     OW56620   8.098   4.716   8.278 -0.2484  0.3408 -0.2284
17258SOL    HW156621   8.079   4.719   8.185 -1.3431 -1.7871 -0.1177
17258SOL    HW256622   8.037   4.778   8.318  0.0040  1.0114 -0.8596
17259SOL     OW56623   3.190   5.230   3.119  0.1613  0.0146 -0.2781
17259SOL    HW156624   3.255   5.251   3.185 -1.5741  2.1577  0.8674
17259SOL    HW256625   3.235   5.171   3.059  1.9615 -1.6697  2.5155
17260SOL     OW56626   5.141   8.188   1.924  0.1954 -0.4975 -0.0167
17260SOL    HW156627   5.066   8.210   1.868  0.3925  1.1837  0.3274
17260SOL    HW256628   5.180   8.112   1.883  0.1296  0.4719 -1.9876
17261SOL     OW56629   5.669   3.865   2.793  0.6275 -0.2810  0.5437
17261SOL    HW156630   5.725   3.788   2.780  1.6650  0.7437 -1.4445
17261SOL    HW256631   5.644   3.892   2.705 -0.7718  0.9426  1.2688
17262SOL     OW56632   6.857   4.189   6.277  0.2835 -0.0293  0.5077
17262SOL    HW156633   6.882   4.193   6.185 -1.1247  0.9926  0.1331
17262SOL    HW256634   6.851   4.281   6.304  0.2640 -0.3118  1.4950
17263SOL     OW56635   5.840   1.805   2.183  0.3906  0.0240  0.0506
17263SOL    HW156636   5.830   1.765   2.269 -0.0157  0.5226  0.2429
17263SOL    HW256637   5.750   1.820   2.153  0.5278 -0.0472 -0.4160
17264SOL     OW56638   6.580   3.296   8.372  0.1012  0.3095 -0.1738
17264SOL    HW156639   6.669   3.314   8.401 -0.1393  0.9667  0.1672
17264SOL    HW256640   6.553   3.219   8.422  0.0442  0.8379  0.6294
17265SOL     OW56641   5.597   3.211   5.606 -0.3021 -0.3091  0.5593
17265SOL    HW156642   5.651   3.233   5.681 -1.8766 -0.2260  1.7265
17265SOL    HW256643   5.558   3.126   5.628 -1.4468  0.1094  0.2568
17266SOL     OW56644   9.151   4.574   6.757 -0.5149  0.3450  0.4535
17266SOL    HW156645   9.134   4.629   6.681 -0.9721 -0.9916 -0.4389
17266SOL    HW256646   9.072   4.581   6.811 -0.3120  1.0548  0.6646
17267SOL     OW56647   5.094   5.632   3.645 -0.1964  0.1226  0.0725
17267SOL    HW156648   5.090   5.709   3.702  0.0829  0.2799 -0.1114
17267SOL    HW256649   5.112   5.559   3.704 -0.7047  0.1623  0.2764
17268SOL     OW56650   0.878   8.798   9.248  0.1777  0.5760 -0.3802
17268SOL    HW156651   0.949   8.737   9.270  0.6872  1.2488 -0.1380
17268SOL    HW256652   0.840   8.823   9.333  0.6456  1.3893 -0.4017
17269SOL     OW56653   0.391   8.447   9.179 -0.8191  0.4177  0.3043
17269SOL    HW156654   0.319   8.506   9.159 -0.3670  0.8758 -0.0029
17269SOL    HW256655   0.468   8.503   9.181 -0.2837 -0.2620 -0.6067
17270SOL     OW56656   8.619   0.989   8.449  0.2014 -0.0836 -0.8285
17270SOL    HW156657   8.649   1.033   8.528 -2.2089 -1.0251  0.7013
17270SOL    HW256658   8.572   1.057   8.400 -2.9112 -0.5957  1.1959
17271SOL     OW56659   8.496   3.148   3.898 -0.0856 -0.2125 -0.1617
17271SOL    HW156660   8.564   3.101   3.946 -0.4094  1.2659  1.8791
17271SOL    HW256661   8.535   3.168   3.813  1.3195 -1.0130  0.2673
17272SOL     OW56662   8.744   1.989   1.003 -0.3089  0.2650  0.5388
17272SOL    HW156663   8.719   2.066   1.054  0.8011  0.5254  0.7249
17272SOL    HW256664   8.663   1.938   0.994 -0.4824 -0.0076  2.9102
17273SOL     OW56665   9.190   2.924   2.741  0.0946  0.2601 -0.2488
17273SOL    HW156666   9.250   2.883   2.804  0.1116  0.2959 -0.2418
17273SOL    HW256667   9.230   2.906   2.656  0.0452  0.1680 -0.2532
17274SOL     OW56668   7.250   6.579   0.400 -0.2196  0.0162 -0.2953
17274SOL    HW156669   7.219   6.489   0.390  0.8559 -0.6652  1.8826
17274SOL    HW256670   7.325   6.572   0.460  0.5693  2.2414 -0.9247
17275SOL     OW56671   6.201   8.230   4.540  0.2230 -0.3666 -0.0822
17275SOL    HW156672   6.166   8.202   4.625  0.4139 -1.9749 -0.5115
17275SOL    HW256673   6.165   8.168   4.477  1.5354 -0.2946 -0.9378
17276SOL     OW56674   2.613   8.766   1.801 -0.1454 -0.3280  0.3806
17276SOL    HW156675   2.618   8.779   1.706  0.7230 -1.4845  0.2505
17276SOL    HW256676   2.619   8.855   1.837  1.7397 -0.0074 -0.5884
17277SOL     OW56677   4.505   5.017   0.842 -0.3243 -0.2174 -0.4390
17277SOL    HW156678   4.581   5.017   0.783 -0.1290 -0.0927 -0.1876
17277SOL    HW256679   4.470   4.928   0.835 -0.8778  0.0574 -1.4773
17278SOL     OW56680   1.263   0.110   8.874 -0.1459 -0.6179  0.5216
17278SOL    HW156681   1.233   0.058   8.949 -2.9823 -0.3704 -0.3571
17278SOL    HW256682   1.184   0.150   8.839  1.7516  3.6496  0.5909
17279SOL     OW56683   5.503   2.493   8.257  0.5748  0.3808  0.0809
17279SOL    HW156684   5.442   2.566   8.251  0.6374  0.3372 -1.5011
17279SOL    HW256685   5.589   2.533   8.244  0.5398 -0.0529 -1.7294
17280SOL     OW56686   4.733   3.707   5.080  0.0396  0.6339  0.0000
17280SOL    HW156687   4.661   3.698   5.018  2.1802 -1.0471 -2.4941
17280SOL    HW256688   4.713   3.645   5.150 -0.3541 -0.8618 -1.3605
17281SOL     OW56689   0.474   2.387   5.650  0.2688  0.3036 -0.7312
17281SOL    HW156690   0.431   2.461   5.607 -2.0692 -0.2829  0.4461
17281SOL    HW256691   0.543   2.427   5.703 -0.8610  1.6678 -0.2239
17282SOL     OW56692   1.005   4.247   7.588  0.1029  0.1095  0.0428
17282SOL    HW156693   1.059   4.290   7.522 -0.3896  0.8217  0.0949
17282SOL    HW256694   1.022   4.153   7.576 -0.1402  0.2160 -1.2314
17283SOL     OW56695   1.749   7.596   9.452 -0.8275  0.2097 -0.2873
17283SOL    HW156696   1.789   7.677   9.484 -2.0437  1.3504 -1.5383
17283SOL    HW256697   1.739   7.542   9.530 -2.3284  2.2994  1.0680
17284SOL     OW56698   2.554   2.800   0.020 -0.0496  0.1074  0.3480
17284SOL    HW156699   2.532   2.883   0.062  2.0700  1.2070 -0.5715
17284SOL    HW256700   2.599   2.749   0.087  0.4023  0.5278  0.3688
17285SOL     OW56701   0.957   3.987   4.540 -0.1971 -0.4665 -0.3734
17285SOL    HW156702   0.909   3.905   4.552 -1.8376  0.2423 -1.7232
17285SOL    HW256703   0.890   4.055   4.543  0.8368  0.6448 -1.4926
17286SOL     OW56704   9.697   8.852   2.886  0.1341  0.3156  0.4545
17286SOL    HW156705   9.671   8.797   2.960 -2.5402 -0.5094 -0.9665
17286SOL    HW256706   9.790   8.834   2.874  0.2069 -0.9347  2.4329
17287SOL     OW56707   9.051   8.002   1.100 -0.2805 -0.1490 -0.6541
17287SOL    HW156708   9.055   8.019   1.006  0.1808  0.3447 -0.5544
17287SOL    HW256709   9.065   7.908   1.108  0.6764 -0.0543 -1.0280
17288SOL     OW56710   1.403   4.813   2.589 -0.2482  1.2991 -0.1501
17288SOL    HW156711   1.372   4.808   2.679 -0.1101 -1.3993 -0.1731
17288SOL    HW256712   1.332   4.857   2.542 -1.1091  1.1469  0.9646
17289SOL     OW56713   0.827   4.428   9.550 -0.1496 -0.3319  0.7823
17289SOL    HW156714   0.858   4.426   9.460 -1.2623 -0.8834  0.3985
17289SOL    HW256715   0.845   4.518   9.580  1.1919 -0.4455  0.3831
17290SOL     OW56716   1.933   5.625   2.560 -0.2270 -0.1705  0.2411
17290SOL    HW156717   1.940   5.662   2.472 -0.5163  0.8203  0.6228
17290SOL    HW256718   2.022   5.595   2.580  0.3335  1.5433  0.4358
17291SOL     OW56719   7.549   6.602   5.268 -0.2559 -0.3400 -0.0864
17291SOL    HW156720   7.618   6.599   5.203  1.2389 -1.2566  1.4690
17291SOL    HW256721   7.479   6.548   5.231  0.7015 -1.1393 -0.7858
17292SOL     OW56722   7.294   2.149   8.607 -0.7126  0.7458  0.0872
17292SOL    HW156723   7.252   2.086   8.665 -1.0067  0.3667 -0.5351
17292SOL    HW256724   7.387   2.146   8.631 -0.7872  0.3663  0.3225
17293SOL     OW56725   2.785   8.794   9.132 -0.0555 -0.1449 -0.4837
17293SOL    HW156726   2.870   8.824   9.097 -0.5446  2.2980  0.2422
17293SOL    HW256727   2.786   8.823   9.223 -1.9458  0.5510 -0.6584
17294SOL     OW56728   8.050   3.306   4.470 -0.4266  0.1056  0.2283
17294SOL    HW156729   8.024   3.215   4.455  3.3330 -1.1589  0.2622
17294SOL    HW256730   8.050   3.345   4.382  0.3752 -0.7348 -0.1650
17295SOL     OW56731   6.693   3.823   8.425  0.3664 -0.2407  0.0415
17295SOL    HW156732   6.700   3.917   8.412 -0.8500 -0.2950 -1.2097
17295SOL    HW256733   6.675   3.813   8.519  1.9467  0.6541  0.4660
17296SOL     OW56734   4.579   2.826   1.793 -0.1555  0.0203 -0.0128
17296SOL    HW156735   4.568   2.732   1.780  0.3255 -0.0642  0.2111
17296SOL    HW256736   4.656   2.849   1.742 -0.6598  0.4185 -0.6191
17297SOL     OW56737   0.799   2.073   9.064 -0.7157 -0.1050 -0.1025
17297SOL    HW156738   0.741   1.997   9.067  0.2001 -0.8611 -0.8586
17297SOL    HW256739   0.741   2.149   9.074 -1.4686 -0.9249  2.5423
17298SOL     OW56740   6.914   9.428   5.687 -0.0490 -0.3663  0.1369
17298SOL    HW156741   6.955   9.368   5.749 -0.8354 -0.4087  0.6255
17298SOL    HW256742   6.986   9.456   5.630  0.5650 -0.7992  0.6833
17299SOL     OW56743   1.544   3.229   3.137  0.3843 -0.3487  0.0939
17299SOL    HW156744   1.528   3.144   3.178 -1.8344  0.6739  1.6106
17299SOL    HW256745   1.605   3.211   3.066  0.5448 -3.0644  0.8039
17300SOL     OW56746   9.707   6.431   4.091  0.0478  0.3568 -0.2591
17300SOL    HW156747   9.784   6.398   4.140  0.3309  0.7117 -0.4646
17300SOL    HW256748   9.636   6.372   4.117 -0.0944  1.2101  1.4895
17301SOL     OW56749   6.795   9.323   6.888 -0.1941  0.2563 -0.1064
17301SOL    HW156750   6.868   9.345   6.945  0.0413  0.0972 -0.3423
17301SOL    HW256751   6.738   9.268   6.941  0.9382 -1.4334 -0.5841
17302SOL     OW56752   2.694   9.538   7.233  0.9538  0.6411  0.5201
17302SOL    HW156753   2.651   9.622   7.217  0.4021  0.4841  1.1620
17302SOL    HW256754   2.635   9.491   7.291  1.4704 -0.0225  0.5193
17303SOL     OW56755   7.268   4.730   0.986 -0.1840 -0.1888 -0.2430
17303SOL    HW156756   7.182   4.691   0.970 -1.4646  3.1121 -2.4960
17303SOL    HW256757   7.330   4.673   0.941 -1.6417 -0.8451 -1.4579
17304SOL     OW56758   3.381   4.532   9.040  0.6691  0.1345  0.2314
17304SOL    HW156759   3.294   4.516   9.003  0.7179 -0.3102  0.3079
17304SOL    HW256760   3.363   4.552   9.132  0.8622 -3.4474  1.1873
17305SOL     OW56761   8.789   5.640   2.891  0.2685  0.5003  0.6069
17305SOL    HW156762   8.699   5.631   2.859  0.1489  2.6102  0.1760
17305SOL    HW256763   8.783   5.622   2.985 -0.3891 -0.4716  0.3867
17306SOL     OW56764   8.986   4.663   0.667  0.5284 -0.3055 -0.4268
17306SOL    HW156765   9.071   4.695   0.695  0.0960  1.1222 -0.6640
17306SOL    HW256766   8.930   4.672   0.744  0.5782 -1.2238 -0.2741
17307SOL     OW56767   7.062   2.548   0.568 -0.3945 -0.4913 -0.1924
17307SOL    HW156768   7.073   2.460   0.532 -0.5564  0.0990 -1.7270
17307SOL    HW256769   7.149   2.574   0.597 -0.3575 -1.1618  0.3317
17308SOL     OW56770   2.032   3.811   3.473  0.2988 -0.6282 -0.2393
17308SOL    HW156771   1.970   3.775   3.536 -0.3530 -1.5873 -1.3861
17308SOL    HW256772   1.980   3.825   3.393  0.6486  2.3356 -0.0491
17309SOL     OW56773   3.249   8.013   7.609  0.7813 -0.2202 -0.0922
17309SOL    HW156774   3.297   7.989   7.688  2.3853  2.3303 -0.1989
17309SOL    HW256775   3.315   8.017   7.541  0.0578  1.2681 -0.7369
17310SOL     OW56776   9.468   7.528   9.617 -0.0866  0.1369 -0.1717
17310SOL    HW156777   9.536   7.552   9.679  0.7366  1.7408 -1.5889
17310SOL    HW256778   9.491   7.575   9.537 -0.7528 -2.2713 -1.9097
17311SOL     OW56779   1.205   5.865   1.931 -0.6507 -0.0258  0.0900
17311SOL    HW156780   1.284   5.886   1.881  0.4433 -0.3850  1.6053
17311SOL    HW256781   1.176   5.949   1.966 -1.1877  0.1665 -0.8015
17312SOL     OW56782   1.576   3.012   4.651 -0.0166  0.0877 -0.3817
17312SOL    HW156783   1.658   3.042   4.691  0.1812 -1.6820  0.6697
17312SOL    HW256784   1.603   2.973   4.568  0.2828 -0.7118  0.0715
17313SOL     OW56785   2.201   9.599   7.691 -0.1290  0.3021 -0.3033
17313SOL    HW156786   2.152   9.534   7.741 -0.4944  0.6340 -0.2296
17313SOL    HW256787   2.222   9.555   7.609  1.0394 -0.4720  0.3875
17314SOL     OW56788   2.652   2.380   2.560 -0.2935  0.3656 -0.0094
17314SOL    HW156789   2.645   2.291   2.595  0.8623 -0.5289 -1.8768
17314SOL    HW256790   2.743   2.405   2.576 -0.1448  0.5098 -1.0480
17315SOL     OW56791   8.873   2.074   9.047  0.1486 -0.1637 -0.1647
17315SOL    HW156792   8.869   2.170   9.051  2.8055  0.0995 -1.7103
17315SOL    HW256793   8.836   2.051   8.962  0.8784 -0.3656 -0.4348
17316SOL     OW56794   8.914   7.416   9.415 -0.0259 -0.7010 -0.1357
17316SOL    HW156795   8.880   7.492   9.462 -0.6727 -1.1899  0.1920
17316SOL    HW256796   8.897   7.342   9.472 -1.1071 -1.3512 -1.2526
17317SOL     OW56797   2.656   4.693   0.824 -0.1697 -0.0553 -0.0747
17317SOL    HW156798   2.585   4.739   0.868  0.7780  1.2353  0.1536
17317SOL    HW256799   2.661   4.609   0.870 -0.7243  0.3400  0.7453
17318SOL     OW56800   5.761   1.316   5.326 -0.4891  0.4162  0.2015
17318SOL    HW156801   5.765   1.317   5.230 -1.6559 -1.2974  0.0656
17318SOL    HW256802   5.730   1.403   5.350  2.0212  1.6849 -0.7650
17319SOL     OW56803   8.105   6.326   3.592 -0.0857 -0.2695  0.2428
17319SOL    HW156804   8.085   6.395   3.529 -1.8642 -1.1272 -0.1745
17319SOL    HW256805   8.191   6.293   3.565 -0.3566  0.0790 -1.0902
17320SOL     OW56806   3.130   1.349   0.377 -0.0818 -0.3180 -0.6331
17320SOL    HW156807   3.197   1.282   0.393 -0.5800 -1.4693 -2.9053
17320SOL    HW256808   3.147   1.378   0.287 -2.6202 -0.6814 -1.3036
17321SOL     OW56809   2.798   4.525   4.974 -0.2080  0.2026  0.7399
17321SOL    HW156810   2.750   4.601   5.007 -0.1817  0.7110 -0.3636
17321SOL    HW256811   2.729   4.462   4.952 -0.2596  0.1426  1.0594
17322SOL     OW56812   3.398   2.493   8.680  0.1688  0.0929  0.2486
17322SOL    HW156813   3.379   2.586   8.694  0.9169  0.3781 -0.5287
17322SOL    HW256814   3.458   2.492   8.605  2.3089 -0.8120  1.8684
17323SOL     OW56815   8.369   8.450   0.221 -0.8267 -0.4765  0.4820
17323SOL    HW156816   8.359   8.541   0.194 -2.2095 -0.7347  0.0193
17323SOL    HW256817   8.280   8.416   0.223 -0.3534 -1.7536  0.8956
17324SOL     OW56818   2.115   3.557   8.298 -0.4299 -0.1970 -0.2789
17324SOL    HW156819   2.101   3.463   8.309  1.3651 -0.5052 -0.2649
17324SOL    HW256820   2.171   3.582   8.372 -0.5668  0.8058 -0.4960
17325SOL     OW56821   8.803   2.917   1.945  0.5150 -0.4442 -0.3683
17325SOL    HW156822   8.787   2.858   2.019  1.3341 -0.4661 -0.2085
17325SOL    HW256823   8.798   2.860   1.868 -1.9659 -0.1578 -0.5018
17326SOL     OW56824   7.084   3.238   0.798 -0.1955 -0.3340 -0.0889
17326SOL    HW156825   7.052   3.271   0.714 -2.6440  0.7401  1.1956
17326SOL    HW256826   7.051   3.148   0.802  1.8789 -1.2462 -1.1749
17327SOL     OW56827   0.339   3.573   0.095 -0.5018  0.0616  0.0990
17327SOL    HW156828   0.424   3.603   0.128  0.2327  0.8541 -2.3584
17327SOL    HW256829   0.282   3.649   0.102 -0.7239 -0.1527  0.7131
17328SOL     OW56830   7.650   5.406   8.090  0.3094 -0.3021 -0.4486
17328SOL    HW156831   7.607   5.461   8.024  0.6954 -2.3554 -2.5926
17328SOL    HW256832   7.594   5.412   8.167 -0.8911  1.2390 -1.3836
17329SOL     OW56833   2.861   4.452   7.798  0.1835 -0.1590  0.0943
17329SOL    HW156834   2.819   4.523   7.750 -2.4228 -2.4424 -1.3118
17329SOL    HW256835   2.877   4.487   7.885  0.0838  2.4473 -0.8654
17330SOL     OW56836   4.330   6.539   8.140 -0.1933  0.2799 -0.7202
17330SOL    HW156837   4.315   6.489   8.060  0.0814  0.9306 -1.1802
17330SOL    HW256838   4.375   6.477   8.198 -2.2228 -0.8819 -0.2669
17331SOL     OW56839   7.264   3.249   7.043  0.2489 -0.0384  0.6141
17331SOL    HW156840   7.174   3.277   7.032 -0.2372 -1.8490 -0.4017
17331SOL    HW256841   7.269   3.165   6.998  2.3263 -0.2121  1.0562
17332SOL     OW56842   0.136   9.520   6.276  0.1619  0.0379  0.0633
17332SOL    HW156843   0.133   9.614   6.295 -1.9117 -0.0296  0.2733
17332SOL    HW256844   0.085   9.480   6.346 -1.0728 -0.9904 -1.3744
17333SOL     OW56845   7.078   3.039   1.730  0.2513 -0.0812  0.1139
17333SOL    HW156846   7.001   2.989   1.756  0.3276 -0.1761  0.1557
17333SOL    HW256847   7.123   3.058   1.812 -0.9155  1.9309  0.3598
17334SOL     OW56848   3.879   9.243   2.060 -0.6561 -0.0517  0.2517
17334SOL    HW156849   3.837   9.219   2.143 -0.0584  0.2014  0.6313
17334SOL    HW256850   3.968   9.210   2.067 -0.5401  0.1591 -0.2031
17335SOL     OW56851   7.867   8.792   7.040  0.4948 -0.0258 -0.3897
17335SOL    HW156852   7.906   8.741   6.969 -0.4222 -0.9081 -0.2778
17335SOL    HW256853   7.863   8.881   7.006 -1.0982 -0.6366 -1.9804
17336SOL     OW56854   5.319   8.855   0.195 -0.3000 -0.2776  0.1294
17336SOL    HW156855   5.242   8.853   0.252  0.3189 -0.4664  0.9714
17336SOL    HW256856   5.373   8.926   0.231 -1.0615  1.3748 -1.7811
17337SOL     OW56857   0.574   6.192   9.679 -0.0906  0.2912  0.4933
17337SOL    HW156858   0.662   6.226   9.660  0.5304 -0.7513  1.4142
17337SOL    HW256859   0.546   6.242   9.756 -0.7090  1.2699 -0.3386
17338SOL     OW56860   7.703   6.906   9.008  0.1402  0.2623  0.2185
17338SOL    HW156861   7.686   6.935   9.098  0.5925 -0.9301  0.7064
17338SOL    HW256862   7.662   6.973   8.954 -0.7897  0.6209  1.3133
17339SOL     OW56863   6.872   2.246   0.701 -0.0341 -0.6921  0.5597
17339SOL    HW156864   6.930   2.181   0.741  1.0708 -0.9114 -1.2754
17339SOL    HW256865   6.814   2.195   0.644  0.2424 -0.1827 -0.2012
17340SOL     OW56866   0.867   3.263   3.532  0.3640  0.5617 -0.8647
17340SOL    HW156867   0.873   3.218   3.616 -0.6324 -1.5873 -1.8656
17340SOL    HW256868   0.850   3.355   3.555 -2.3339 -0.3519  1.3190
17341SOL     OW56869   8.484   3.164   9.596  0.1503  0.5164  0.0171
17341SOL    HW156870   8.493   3.173   9.502 -1.1755  0.2182 -0.1619
17341SOL    HW256871   8.428   3.087   9.608  0.8647  0.1412  1.0691
17342SOL     OW56872   2.877   7.452   7.453 -0.1234 -0.2612  0.9946
17342SOL    HW156873   2.848   7.453   7.362  0.5076 -1.1780  0.7689
17342SOL    HW256874   2.884   7.544   7.477 -2.0718  0.0023  0.7170
17343SOL     OW56875   6.853   8.206   4.756 -0.3753 -0.0362 -0.0930
17343SOL    HW156876   6.778   8.206   4.816 -1.2997 -2.0106 -1.1707
17343SOL    HW256877   6.928   8.186   4.811 -0.5634  2.0608  1.0248
17344SOL     OW56878   9.171   1.437   2.410  0.5813  0.2085  0.2853
17344SOL    HW156879   9.134   1.362   2.364 -1.2590  0.5857  1.0342
17344SOL    HW256880   9.222   1.400   2.481 -0.6960 -0.3687  0.9345
17345SOL     OW56881   0.805   0.289   2.734 -0.8420 -0.5689  0.4943
17345SOL    HW156882   0.781   0.265   2.644 -0.8932 -1.0149  0.6253
17345SOL    HW256883   0.895   0.319   2.728 -0.1067 -2.5863  0.6139
17346SOL     OW56884   6.865   2.357   8.057  0.0870  0.1087  0.1170
17346SOL    HW156885   6.887   2.419   7.988  3.1026 -1.1404 -0.2101
17346SOL    HW256886   6.866   2.272   8.013  3.3595 -0.8643  1.7751
17347SOL     OW56887   8.895   5.131   9.541  0.4779 -0.1781  0.0182
17347SOL    HW156888   8.988   5.122   9.521  0.4694 -2.1617  0.6370
17347SOL    HW256889   8.889   5.111   9.635 -0.5792 -0.0735 -0.0146
17348SOL     OW56890   2.001   5.075   0.492 -0.2569 -0.4639  0.0884
17348SOL    HW156891   2.015   5.120   0.576 -0.7870 -0.1308  0.0060
17348SOL    HW256892   1.906   5.064   0.487 -0.3573  0.6875 -1.0513
17349SOL     OW56893   1.800   7.758   5.355  0.0673 -0.1639 -0.3917
17349SOL    HW156894   1.716   7.805   5.359 -0.2736 -0.7243 -0.7405
17349SOL    HW256895   1.825   7.746   5.446  1.0994  2.2888 -0.2577
17350SOL     OW56896   0.809   1.605   6.762 -0.0859 -0.1859  0.7366
17350SOL    HW156897   0.790   1.649   6.845  0.2006 -2.0725  1.8642
17350SOL    HW256898   0.864   1.531   6.787  0.2172 -0.6569 -1.1979
17351SOL     OW56899   0.276   3.671   8.464 -0.2192 -0.8191  0.1025
17351SOL    HW156900   0.294   3.578   8.455 -0.6247 -0.8957  0.0477
17351SOL    HW256901   0.187   3.675   8.500  0.2509 -0.4676  1.2577
17352SOL     OW56902   7.179   9.254   9.465  0.0865  0.2356 -0.0976
17352SOL    HW156903   7.233   9.177   9.485  0.8698  0.9960  0.8059
17352SOL    HW256904   7.205   9.280   9.377 -0.9162 -1.1119 -0.8338
17353SOL     OW56905   4.637   2.643   2.575 -0.5619 -0.0055  0.2537
17353SOL    HW156906   4.541   2.643   2.574 -0.6056  2.1045 -0.3673
17353SOL    HW256907   4.662   2.633   2.483 -0.0543 -3.4458  0.6533
17354SOL     OW56908   0.363   0.886   9.334 -0.0605 -0.3152  0.3749
17354SOL    HW156909   0.392   0.874   9.425  0.1140  0.7104  0.4671
17354SOL    HW256910   0.437   0.858   9.281  1.3626  2.5743  0.6042
17355SOL     OW56911   3.470   8.880   4.404 -0.4411 -0.5786  0.1972
17355SOL    HW156912   3.427   8.961   4.430  0.1278 -0.5186  0.9640
17355SOL    HW256913   3.468   8.825   4.482  1.3966 -0.3501  0.4444
17356SOL     OW56914   1.383   9.362   4.857  0.0906 -0.0699 -0.0408
17356SOL    HW156915   1.331   9.432   4.898 -0.6866 -1.4189  1.3598
17356SOL    HW256916   1.342   9.348   4.772  0.0345  0.9093 -0.1903
17357SOL     OW56917   2.953   9.167   6.711 -0.4331  0.0643 -0.5879
17357SOL    HW156918   3.042   9.197   6.692 -0.8166  0.3208 -2.1367
17357SOL    HW256919   2.914   9.238   6.762  0.2780 -0.1072  0.2088
17358SOL     OW56920   7.527   0.715   1.023 -0.3036  0.1385  0.2075
17358SOL    HW156921   7.439   0.695   0.991  0.0364 -1.0344 -0.0609
17358SOL    HW256922   7.581   0.715   0.944  0.0746  0.0364  0.4648
17359SOL     OW56923   6.110   7.512   6.412  0.2601 -0.1359 -0.2125
17359SOL    HW156924   6.058   7.567   6.353  0.6187  1.0259  0.5331
17359SOL    HW256925   6.158   7.573   6.466  1.2539 -1.1991  0.1472
17360SOL     OW56926   7.992   0.216   2.979  0.2409 -0.0719 -0.6665
17360SOL    HW156927   8.044   0.294   2.957 -0.1150  0.7884  1.3119
17360SOL    HW256928   7.972   0.176   2.894  2.0822  0.8901 -1.6200
17361SOL     OW56929   5.838   3.777   2.318  0.1865 -0.0328  0.2777
17361SOL    HW156930   5.766   3.724   2.352  0.8085  0.0760  1.8846
17361SOL    HW256931   5.865   3.733   2.238 -1.4386 -0.2493 -0.1995
17362SOL     OW56932   7.117   5.764   9.313  0.1659  0.3646  0.0621
17362SOL    HW156933   7.166   5.789   9.391 -0.3482 -1.1002  0.8794
17362SOL    HW256934   7.148   5.676   9.292 -1.7257 -0.4013  0.2957
17363SOL     OW56935   8.969   0.304   0.466  0.5759  0.4820  0.0677
17363SOL    HW156936   9.019   0.352   0.532  0.2939  0.2239  0.4759
17363SOL    HW256937   8.912   0.369   0.426 -1.6399  0.0936  2.3373
17364SOL     OW56938   1.761   7.065   4.598 -0.1818  0.3615 -0.1522
17364SOL    HW156939   1.681   7.035   4.554 -0.7740  1.2015  0.3110
17364SOL    HW256940   1.830   7.049   4.534 -0.2942 -2.6610  0.3367
17365SOL     OW56941   4.370   7.535   7.105 -0.1090  0.5712 -0.0247
17365SOL    HW156942   4.386   7.624   7.076 -2.5878  0.8038 -0.9988
17365SOL    HW256943   4.274   7.528   7.110  0.0494 -1.4475  1.9564
17366SOL     OW56944   2.150   5.892   2.449 -0.0671  0.1968 -0.1059
17366SOL    HW156945   2.105   5.832   2.390  1.7153  0.0548 -1.4031
17366SOL    HW256946   2.154   5.975   2.402  1.1347  0.1554 -0.1299
17367SOL     OW56947   4.634   0.331   9.068  0.0175  0.0789 -0.0822
17367SOL    HW156948   4.618   0.304   8.977 -1.8443  0.1214  0.1881
17367SOL    HW256949   4.729   0.339   9.075  0.1987  0.0198 -2.0135
17368SOL     OW56950   5.172   0.294   5.914  0.3749 -0.2301 -0.4317
17368SOL    HW156951   5.251   0.306   5.966  0.1964  0.8268 -0.3767
17368SOL    HW256952   5.100   0.316   5.974  0.0490 -0.8788 -0.5715
17369SOL     OW56953   9.679   7.582   8.718 -0.7134 -0.3614  0.1683
17369SOL    HW156954   9.608   7.636   8.681  0.7309  0.8238 -0.9880
17369SOL    HW256955   9.752   7.643   8.728  0.4728 -1.7790  0.4004
17370SOL     OW56956   4.770   0.728   1.173 -0.2639  0.0466  0.5732
17370SOL    HW156957   4.834   0.658   1.157  0.4875  0.3097  2.1698
17370SOL    HW256958   4.691   0.699   1.128  0.8359 -0.5031 -1.0779
17371SOL     OW56959   1.137   0.476   5.853  0.2749 -0.2826 -0.0046
17371SOL    HW156960   1.092   0.394   5.872  0.0329  0.0134  0.6999
17371SOL    HW256961   1.090   0.511   5.777  2.0352 -2.0767 -2.0851
17372SOL     OW56962   0.111   3.543   1.816  0.5675  0.0842 -0.1869
17372SOL    HW156963   0.128   3.533   1.722 -2.2546  0.1659 -0.7880
17372SOL    HW256964   0.048   3.473   1.836 -0.8090  1.5937  1.0392
17373SOL     OW56965   3.861   0.606   6.907  0.2120  0.2174  0.0709
17373SOL    HW156966   3.807   0.534   6.875  1.1621 -0.4366 -0.0949
17373SOL    HW256967   3.840   0.679   6.849 -1.4200  0.3561  0.7926
17374SOL     OW56968   2.047   6.117   1.753 -0.5322 -0.0811  0.2447
17374SOL    HW156969   1.987   6.119   1.678  1.1441 -1.9794 -1.2765
17374SOL    HW256970   2.120   6.172   1.725 -1.1764  1.6937  1.8237
17375SOL     OW56971   9.667   6.565   7.390 -0.8641  0.3458 -0.2703
17375SOL    HW156972   9.631   6.520   7.467 -0.9571  0.8532 -0.0145
17375SOL    HW256973   9.743   6.513   7.366 -0.8798  0.1367  0.1217
17376SOL     OW56974   5.798   5.703   0.065  0.2596 -0.0501  0.5518
17376SOL    HW156975   5.744   5.757   0.122 -0.1198 -0.9990  1.1163
17376SOL    HW256976   5.884   5.701   0.108  0.4095  0.4677  0.2869
17377SOL     OW56977   5.570   2.001   1.136  0.6355  0.0030 -0.3785
17377SOL    HW156978   5.623   1.957   1.202  1.1439 -0.2500 -0.9465
17377SOL    HW256979   5.619   1.991   1.055  0.5545  1.2486 -0.6058
17378SOL     OW56980   5.147   1.022   9.585  0.5427  1.0860 -0.3189
17378SOL    HW156981   5.143   1.041   9.492 -1.8351 -0.0695 -0.5325
17378SOL    HW256982   5.216   0.956   9.594  0.2060  0.5826 -1.3816
17379SOL     OW56983   4.996   6.078   8.306  0.0202 -0.5353  0.2659
17379SOL    HW156984   5.066   6.110   8.364 -0.1913 -0.2812  0.3830
17379SOL    HW256985   5.022   5.988   8.285  1.1248  0.0308 -0.8644
17380SOL     OW56986   0.192   6.217   7.970 -0.8655 -0.6543 -0.4084
17380SOL    HW156987   0.201   6.285   8.036  0.3268 -0.1629 -1.0426
17380SOL    HW256988   0.220   6.137   8.013 -2.2661 -0.7534  0.3404
17381SOL     OW56989   7.125   0.104   7.225 -0.5255  0.1552  0.5832
17381SOL    HW156990   7.100   0.095   7.133  0.6114  1.4130  0.1343
17381SOL    HW256991   7.165   0.019   7.247  0.6975  0.3940 -0.5791
17382SOL     OW56992   6.769   5.128   1.207  0.0271  0.1260  0.1726
17382SOL    HW156993   6.838   5.117   1.141 -0.6176  1.2125 -0.7260
17382SOL    HW256994   6.696   5.076   1.174 -0.8171  1.8248 -0.8052
17383SOL     OW56995   5.947   7.325   0.713 -0.0144 -0.2098  0.5728
17383SOL    HW156996   5.906   7.409   0.733 -0.0914 -0.2570  0.6147
17383SOL    HW256997   5.878   7.274   0.671  0.4308  0.2400 -0.7512
17384SOL     OW56998   4.702   5.831   6.566 -0.5455  0.3108  0.2814
17384SOL    HW156999   4.621   5.853   6.520  0.2502  0.5712 -1.0521
17384SOL    HW257000   4.762   5.803   6.497  1.6120  3.3005  0.7603
17385SOL     OW57001   5.297   5.801   4.586 -0.5112  0.3025  0.4259
17385SOL    HW157002   5.285   5.852   4.666 -0.2456  0.6434  0.2500
17385SOL    HW257003   5.213   5.809   4.539 -0.8164 -0.2451  0.8602
17386SOL     OW57004   1.978   8.547   9.586  0.2575 -0.1891  1.0227
17386SOL    HW157005   1.916   8.563   9.657 -0.5156  0.4045  0.2395
17386SOL    HW257006   1.930   8.573   9.507  1.6263  0.6328  0.4285
17387SOL     OW57007   5.109   2.848   1.294  0.5162 -0.2855 -0.5249
17387SOL    HW157008   5.174   2.864   1.362  1.4284 -0.7419 -1.2599
17387SOL    HW257009   5.030   2.821   1.341  1.2387 -0.9473  0.3384
17388SOL     OW57010   3.580   0.654   2.838  0.3289 -0.8679 -0.5255
17388SOL    HW157011   3.577   0.726   2.902 -0.5611 -1.0155 -0.3798
17388SOL    HW257012   3.663   0.666   2.792  0.4509 -0.0773 -0.1209
17389SOL     OW57013   1.728   9.587   3.398 -0.0571  0.1788 -0.0497
17389SOL    HW157014   1.706   9.555   3.486  0.1810  1.1155  0.3681
17389SOL    HW257015   1.773   9.670   3.414  0.0217  0.3385 -1.0620
17390SOL     OW57016   5.879   6.220   9.405 -0.4315 -0.2460  0.2916
17390SOL    HW157017   5.811   6.262   9.457 -1.1891 -3.8844  2.6377
17390SOL    HW257018   5.833   6.154   9.354  1.0639 -1.3559  0.2853
17391SOL     OW57019   2.996   7.203   5.275  0.1725 -0.0594  0.1848
17391SOL    HW157020   3.043   7.187   5.193  0.4577  3.3177 -0.4554
17391SOL    HW257021   3.025   7.133   5.334 -0.2339 -2.7552 -2.5678
17392SOL     OW57022   1.955   0.362   1.183  0.7034  0.0761  0.1112
17392SOL    HW157023   2.006   0.411   1.119 -1.2886  0.9069 -0.9355
17392SOL    HW257024   1.967   0.411   1.265  5.2767 -2.3502  1.2368
17393SOL     OW57025   5.974   5.427   1.243  0.1653  0.3874  0.0411
17393SOL    HW157026   5.926   5.365   1.299  0.7093  0.0455  0.1449
17393SOL    HW257027   6.022   5.482   1.305 -1.1171  1.6044 -0.0131
17394SOL     OW57028   8.383   5.638   5.850 -0.1778 -0.4138  0.4671
17394SOL    HW157029   8.462   5.692   5.842 -0.2774 -0.1861  0.9902
17394SOL    HW257030   8.318   5.695   5.888 -0.9899 -0.2420 -1.0912
17395SOL     OW57031   5.916   7.880   0.614 -0.1812  0.5736  0.2811
17395SOL    HW157032   5.998   7.930   0.615  0.4912 -0.4979  0.3386
17395SOL    HW257033   5.915   7.836   0.529  0.2191 -0.8475  0.9709
17396SOL     OW57034   6.669   5.498   3.515 -0.3381 -0.0784 -0.2945
17396SOL    HW157035   6.607   5.428   3.534 -2.1733  1.6795  0.4628
17396SOL    HW257036   6.655   5.563   3.583  2.3171  0.4690 -0.1362
17397SOL     OW57037   4.666   4.004   1.852 -0.1042 -0.0348  0.6811
17397SOL    HW157038   4.756   4.009   1.820  0.0705  2.0794  1.3369
17397SOL    HW257039   4.617   4.062   1.794 -1.1041 -1.2347  0.2763
17398SOL     OW57040   6.740   2.692   8.179 -0.3647 -0.1218 -0.2751
17398SOL    HW157041   6.686   2.635   8.123  0.0459 -1.4080  0.6002
17398SOL    HW257042   6.830   2.664   8.162 -0.0538  1.0352 -0.6407
17399SOL     OW57043   2.752   4.397   4.680  0.5164 -0.1009  0.0332
17399SOL    HW157044   2.746   4.389   4.585 -0.2039 -0.5479  0.1082
17399SOL    HW257045   2.729   4.310   4.713  1.2457 -0.0867  0.6043
17400SOL     OW57046   7.977   8.553   1.256  0.3339  0.0730 -1.0956
17400SOL    HW157047   7.887   8.545   1.225  0.5656 -2.2284 -1.3194
17400SOL    HW257048   8.017   8.469   1.236  1.4823 -0.3577  2.2971
17401SOL     OW57049   4.483   6.910   6.441  0.1776  0.0539  0.4693
17401SOL    HW157050   4.408   6.866   6.481  0.4139 -0.3837  0.4379
17401SOL    HW257051   4.559   6.872   6.484  0.4319 -0.3016 -0.2748
17402SOL     OW57052   2.196   2.815   6.902 -0.1332 -0.2044  0.1315
17402SOL    HW157053   2.140   2.738   6.907  0.9793 -0.9624  2.2895
17402SOL    HW257054   2.271   2.787   6.850 -1.4598  0.6871 -2.4097
17403SOL     OW57055   7.682   0.483   6.269  0.0823 -0.5555  0.0229
17403SOL    HW157056   7.720   0.469   6.355 -2.1182  0.4728  1.2388
17403SOL    HW257057   7.588   0.465   6.280 -0.2296 -0.6747 -2.2211
17404SOL     OW57058   4.330   0.367   7.421 -0.0309 -0.0428  0.5782
17404SOL    HW157059   4.269   0.419   7.370 -0.3633 -0.7001  0.2970
17404SOL    HW257060   4.336   0.284   7.375  3.7266  1.0964 -1.4143
17405SOL     OW57061   6.652   4.802   6.901 -0.6216  0.1037 -0.1198
17405SOL    HW157062   6.605   4.762   6.827 -0.6785  1.3840 -0.8104
17405SOL    HW257063   6.633   4.896   6.893  1.4688  0.5817  0.0151
17406SOL     OW57064   5.298   7.915   5.039 -0.3105  1.1297 -0.0031
17406SOL    HW157065   5.227   7.925   5.103 -3.3494  0.7838 -3.0427
17406SOL    HW257066   5.257   7.933   4.955  3.0962  0.1012 -2.0740
17407SOL     OW57067   6.416   5.920   2.545 -0.1730  0.5863 -0.4951
17407SOL    HW157068   6.372   6.003   2.529 -0.0860  1.0831  1.5803
17407SOL    HW257069   6.390   5.895   2.634  2.0612 -0.1430  0.0160
17408SOL     OW57070   0.772   3.464   8.086  0.7338  0.0537 -0.2411
17408SOL    HW157071   0.807   3.489   8.172  1.1292  1.2840 -0.7461
17408SOL    HW257072   0.679   3.449   8.101  0.6853  0.8526  0.2833
17409SOL     OW57073   1.308   8.076   6.545 -0.2595  0.2548  0.1754
17409SOL    HW157074   1.266   8.102   6.464 -0.7419  0.7298  0.5744
17409SOL    HW257075   1.397   8.050   6.519 -0.4291  0.3476 -0.5012
17410SOL     OW57076   4.757   1.391   1.632  0.4076 -0.5947 -0.5139
17410SOL    HW157077   4.727   1.444   1.706  1.0405 -1.7205  0.5828
17410SOL    HW257078   4.828   1.338   1.667  0.5497 -1.3552 -1.8688
17411SOL     OW57079   0.707   8.152   0.116 -0.0060  0.6597 -0.4207
17411SOL    HW157080   0.678   8.205   0.190 -0.2819 -1.6809  1.2754
17411SOL    HW257081   0.756   8.080   0.156 -1.8847 -1.8483 -2.2510
17412SOL     OW57082   7.386   7.904   5.603 -0.0010 -0.0153 -0.8956
17412SOL    HW157083   7.361   7.884   5.513  1.2787  0.3861 -1.3652
17412SOL    HW257084   7.352   7.992   5.618  0.0673  0.0476 -1.1039
17413SOL     OW57085   1.186   8.508   4.408  0.8061 -0.1848  0.4481
17413SOL    HW157086   1.119   8.576   4.414 -0.6505 -1.5010 -0.1677
17413SOL    HW257087   1.257   8.539   4.464 -0.2054  1.3759  0.9276
17414SOL     OW57088   5.128   5.016   6.033 -0.3225 -0.3332 -0.6423
17414SOL    HW157089   5.176   5.093   6.003 -0.5144 -0.1531 -0.4890
17414SOL    HW257090   5.046   5.017   5.984  0.1336 -1.0408 -1.4316
17415SOL     OW57091   3.432   7.612   3.735  0.3270  0.0313  0.5724
17415SOL    HW157092   3.370   7.552   3.776  0.9622 -1.7493 -0.9584
17415SOL    HW257093   3.382   7.651   3.663  0.6026 -0.5021  0.0822
17416SOL     OW57094   1.218   4.790   7.412 -0.6703 -0.3395 -0.1844
17416SOL    HW157095   1.278   4.840   7.358  1.6320 -2.2561  0.4264
17416SOL    HW257096   1.154   4.854   7.443 -0.8317  1.1943 -3.3731
17417SOL     OW57097   8.451   2.507   2.599  0.1582 -0.2158 -0.0927
17417SOL    HW157098   8.476   2.585   2.549  1.6802 -0.9744 -0.6031
17417SOL    HW257099   8.402   2.454   2.536  1.6303 -0.9407 -0.6624
17418SOL     OW57100   2.978   5.504   8.885  0.1415 -0.0821 -0.0727
17418SOL    HW157101   3.060   5.502   8.836  1.3987 -0.0612  1.8960
17418SOL    HW257102   2.949   5.413   8.887 -0.1581 -0.0185 -1.1984
17419SOL     OW57103   6.076   8.239   7.610  0.2050  0.2381 -0.1450
17419SOL    HW157104   6.011   8.252   7.541 -0.9626 -2.0572  0.4194
17419SOL    HW257105   6.130   8.318   7.608 -1.5794  1.4994 -1.7462
17420SOL     OW57106   8.185   8.131   2.989 -0.0761  0.2653  0.3196
17420SOL    HW157107   8.172   8.204   2.929  2.6798 -0.1831 -0.9361
17420SOL    HW257108   8.235   8.067   2.940  1.8713 -0.3645  2.8868
17421SOL     OW57109   3.722   6.005   6.817 -0.0346  0.3572 -0.3091
17421SOL    HW157110   3.803   6.001   6.867  1.0827  2.2367 -1.8488
17421SOL    HW257111   3.656   5.969   6.876  1.5990  0.3115  1.6068
17422SOL     OW57112   7.755   3.343   2.334  0.0385 -0.5093 -0.3011
17422SOL    HW157113   7.695   3.328   2.407  0.0431  0.1408 -0.1501
17422SOL    HW257114   7.712   3.304   2.259 -2.1941  2.6379 -0.8898
17423SOL     OW57115   8.156   5.543   7.567 -0.1942  0.2148 -0.2265
17423SOL    HW157116   8.067   5.548   7.602  0.0753 -0.4330  0.5836
17423SOL    HW257117   8.145   5.517   7.475 -0.7951 -1.2512  0.2387
17424SOL     OW57118   4.715   4.256   3.645  0.6814  0.0645  0.5615
17424SOL    HW157119   4.709   4.344   3.608  0.6947 -0.0727  0.2327
17424SOL    HW257120   4.739   4.271   3.736  0.2199  0.4243  0.6314
17425SOL     OW57121   7.724   4.508   4.648  0.4503  0.5835  0.5589
17425SOL    HW157122   7.755   4.513   4.738  0.4222 -0.0572  0.6114
17425SOL    HW257123   7.776   4.573   4.601  3.9339 -2.2530  0.0748
17426SOL     OW57124   5.121   7.729   4.085  0.5725 -0.0534 -0.0895
17426SOL    HW157125   5.075   7.808   4.115  2.0747  0.4771  0.9604
17426SOL    HW257126   5.080   7.657   4.133  0.3034  0.2959  0.2106
17427SOL     OW57127   1.152   8.230   3.989  0.2816  0.4219  0.3066
17427SOL    HW157128   1.065   8.210   3.954  0.7876 -0.2357 -0.6477
17427SOL    HW257129   1.139   8.235   4.083 -0.3854 -2.0866  0.4219
17428SOL     OW57130   8.773   2.791   0.256 -0.2817 -0.0151 -0.1306
17428SOL    HW157131   8.863   2.770   0.230 -1.1590 -1.4062 -2.2499
17428SOL    HW257132   8.735   2.833   0.180 -1.3952  0.7745  0.8254
17429SOL     OW57133   7.272   8.438   5.991 -0.6116 -0.6643  0.7584
17429SOL    HW157134   7.256   8.440   5.896 -0.9981  1.4142  0.8266
17429SOL    HW257135   7.188   8.410   6.028 -0.6966 -0.7112  0.5367
17430SOL     OW57136   2.718   3.651   6.779  0.2891  0.5088  0.4721
17430SOL    HW157137   2.723   3.651   6.875  0.2488  1.6755  0.4815
17430SOL    HW257138   2.719   3.743   6.754  2.4804  0.2137 -0.7777
17431SOL     OW57139   7.176   8.219   9.068  0.1784 -0.6325  0.6930
17431SOL    HW157140   7.203   8.223   9.160 -0.4102  0.1934  0.8334
17431SOL    HW257141   7.199   8.305   9.033 -0.3982 -0.6438  0.2882
17432SOL     OW57142   5.758   2.157   6.816 -0.4286  0.9738 -0.0741
17432SOL    HW157143   5.762   2.191   6.727 -0.0964 -0.3615 -0.5899
17432SOL    HW257144   5.849   2.138   6.839 -0.7623 -2.3635 -0.9704
17433SOL     OW57145   0.490   0.505   9.179 -0.2438 -0.5228 -0.0736
17433SOL    HW157146   0.419   0.468   9.127 -1.0175  0.6024  0.1493
17433SOL    HW257147   0.477   0.467   9.266 -1.2170  0.4642  0.2333
17434SOL     OW57148   0.599   8.914   1.013  0.4212 -0.3946 -0.3909
17434SOL    HW157149   0.517   8.961   1.004  0.4788 -0.5413 -1.7836
17434SOL    HW257150   0.659   8.978   1.053 -0.2334 -0.1574  0.2326
17435SOL     OW57151   1.983   1.281   2.441  0.0632  0.6774 -0.3377
17435SOL    HW157152   1.988   1.192   2.407  1.3117 -0.1462  1.7729
17435SOL    HW257153   1.927   1.274   2.518  0.3308  1.6785 -0.0338
17436SOL     OW57154   9.621   3.536   7.893 -0.4661  0.8278  0.0399
17436SOL    HW157155   9.693   3.558   7.953 -0.0427  0.1793 -0.2169
17436SOL    HW257156   9.548   3.513   7.951  0.7877 -2.7580  0.4955
17437SOL     OW57157   4.042   2.203   5.884  0.5593  0.1172  0.5256
17437SOL    HW157158   3.989   2.130   5.851  0.9394 -1.0053  2.2848
17437SOL    HW257159   3.981   2.276   5.890  0.0088 -0.2234 -0.6330
17438SOL     OW57160   2.571   2.523   4.576  0.1126 -0.2303  0.3768
17438SOL    HW157161   2.599   2.596   4.521  0.0427  0.4537  1.2180
17438SOL    HW257162   2.593   2.551   4.665  0.9047 -1.6132  0.6461
17439SOL     OW57163   7.473   5.479   6.246 -0.5374 -0.3658 -0.1598
17439SOL    HW157164   7.487   5.557   6.192  1.2189 -1.1941 -0.9939
17439SOL    HW257165   7.417   5.423   6.193  1.4144 -1.2990 -1.3354
17440SOL     OW57166   2.118   1.797   2.951 -0.4494 -0.7707  0.0764
17440SOL    HW157167   2.082   1.760   2.871 -0.7794  0.0524 -0.1649
17440SOL    HW257168   2.042   1.829   2.999 -0.1402  0.0495  0.0358
17441SOL     OW57169   5.364   6.257   5.127 -1.0772 -0.0664  0.4360
17441SOL    HW157170   5.286   6.217   5.088 -1.8038  2.0323 -0.3963
17441SOL    HW257171   5.335   6.343   5.157  1.1506  1.3073 -1.0425
17442SOL     OW57172   7.030   5.644   7.486  0.0962 -0.4674  0.6565
17442SOL    HW157173   7.044   5.556   7.453  0.5732 -0.2242  0.1845
17442SOL    HW257174   6.989   5.632   7.572  1.5935 -1.2047  1.3094
17443SOL     OW57175   0.751   7.893   2.470  0.0022  0.0673 -0.1659
17443SOL    HW157176   0.825   7.929   2.518 -0.0321  1.4151 -1.0690
17443SOL    HW257177   0.734   7.957   2.401 -0.9626 -1.0317 -0.9779
17444SOL     OW57178   7.767   8.548   1.567 -0.4052  0.2177  0.0276
17444SOL    HW157179   7.742   8.524   1.478  2.0754  0.9500 -0.9425
17444SOL    HW257180   7.853   8.590   1.558 -0.9854  2.2226  2.5118
17445SOL     OW57181   4.817   0.419   8.701  0.3589 -0.2251 -0.1369
17445SOL    HW157182   4.785   0.370   8.777 -0.8069  0.0123 -0.4589
17445SOL    HW257183   4.903   0.453   8.728  1.0841 -2.1840  0.2023
17446SOL     OW57184   6.393   6.365   3.585  0.6263  0.8134  1.0073
17446SOL    HW157185   6.400   6.273   3.611  1.7235 -0.2276 -2.3968
17446SOL    HW257186   6.477   6.404   3.611  0.9153  0.3342  0.8030
17447SOL     OW57187   6.753   8.165   2.916 -0.8011 -0.1211  0.0923
17447SOL    HW157188   6.780   8.240   2.864  0.5588 -0.8705 -0.3225
17447SOL    HW257189   6.833   8.113   2.928 -1.5576 -1.1451  0.9675
17448SOL     OW57190   7.707   2.042   0.794  0.7280 -0.3199  0.3512
17448SOL    HW157191   7.777   2.047   0.859 -0.9004  1.4325  2.0987
17448SOL    HW257192   7.751   2.061   0.710  2.1905  1.9249  1.5235
17449SOL     OW57193   4.320   3.038   7.880  0.5875 -0.5792  0.0170
17449SOL    HW157194   4.271   2.990   7.947 -0.4618 -1.3438 -1.2599
17449SOL    HW257195   4.287   3.004   7.797  0.1426  2.0152 -0.9522
17450SOL     OW57196   5.606   0.471   7.481  0.7479 -0.2017 -0.2654
17450SOL    HW157197   5.584   0.444   7.392  0.4890 -1.0245  0.0419
17450SOL    HW257198   5.679   0.532   7.470 -0.2992  0.9595 -1.1500
17451SOL     OW57199   6.068   4.421   4.038  0.7301 -0.3801 -0.1981
17451SOL    HW157200   6.043   4.507   4.004 -1.1373 -0.2952  1.2662
17451SOL    HW257201   6.099   4.374   3.960  1.7468  1.5467 -1.0439
17452SOL     OW57202   3.916   3.049   8.291  0.2861 -0.1554 -0.1850
17452SOL    HW157203   3.823   3.027   8.302 -0.0588  0.8014 -1.0831
17452SOL    HW257204   3.935   3.109   8.363 -0.3728  1.3363 -1.2235
17453SOL     OW57205   0.991   1.016   9.044 -0.1938  0.1631  0.5166
17453SOL    HW157206   1.087   1.014   9.036 -0.3151 -0.1152 -1.4659
17453SOL    HW257207   0.971   0.944   9.103  0.7609 -0.5496  0.0052
17454SOL     OW57208   8.048   7.486   8.453 -0.1434 -0.0786  0.0888
17454SOL    HW157209   8.142   7.471   8.463 -0.1740 -0.8896 -0.8000
17454SOL    HW257210   8.009   7.399   8.449 -0.8388  0.2472 -0.4738
17455SOL     OW57211   6.402   5.769   9.566  0.4111 -0.4089 -0.0193
17455SOL    HW157212   6.344   5.724   9.505 -0.7603 -0.0564  0.7942
17455SOL    HW257213   6.488   5.732   9.549  0.2866  0.2510 -2.4283
17456SOL     OW57214   0.738   1.181   1.278  0.8086 -0.1889  0.2663
17456SOL    HW157215   0.827   1.146   1.287  0.8202  0.0286  1.0984
17456SOL    HW257216   0.729   1.199   1.185  2.0747  0.9008  0.3239
17457SOL     OW57217   7.362   0.690   6.937  0.6483  0.6970 -0.0657
17457SOL    HW157218   7.284   0.701   6.991  0.9945 -0.0733  0.6247
17457SOL    HW257219   7.334   0.632   6.866  0.4894  0.7661 -0.0606
17458SOL     OW57220   3.569   5.048   2.232 -0.4409 -0.2846 -0.1142
17458SOL    HW157221   3.597   5.119   2.290  1.0764 -2.1695  1.6521
17458SOL    HW257222   3.474   5.049   2.236 -0.4025  0.6752  1.1311
17459SOL     OW57223   2.501   5.154   0.506 -0.2839 -0.1444 -0.5175
17459SOL    HW157224   2.481   5.122   0.418 -1.5327  0.6224 -0.5505
17459SOL    HW257225   2.523   5.246   0.493 -0.5751 -0.0040 -0.0198
17460SOL     OW57226   4.897   5.404   7.244 -0.0758  0.3353  0.0625
17460SOL    HW157227   4.935   5.328   7.288  0.8396  0.5390 -0.3554
17460SOL    HW257228   4.808   5.411   7.280  0.5856  0.4035  1.7747
17461SOL     OW57229   7.507   2.343   8.743  0.5251  0.6948  0.9239
17461SOL    HW157230   7.520   2.248   8.749  2.4861  0.7322 -1.3081
17461SOL    HW257231   7.553   2.379   8.819  0.0153 -0.1008  1.6226
17462SOL     OW57232   0.102   9.009   3.137  0.1039  0.1897  0.4814
17462SOL    HW157233   0.089   9.031   3.045  0.0396  0.3877  0.5366
17462SOL    HW257234   0.040   8.939   3.155 -0.8855  1.0998  0.7364
17463SOL     OW57235   0.070   6.801   4.512  0.3759  0.6293  0.0718
17463SOL    HW157236   0.061   6.856   4.590 -2.4335  0.4282 -0.0006
17463SOL    HW257237  -0.001   6.829   4.454  0.8918 -0.8693 -1.3980
17464SOL     OW57238   9.624   7.626   0.070 -0.0759  0.0886 -0.5438
17464SOL    HW157239   9.668   7.708   0.049 -0.8154  0.4850 -0.5974
17464SOL    HW257240   9.569   7.647   0.146  0.4818 -0.6200  0.0674
17465SOL     OW57241   2.942   0.567   4.779  0.4451 -0.4433  0.4923
17465SOL    HW157242   2.979   0.593   4.863  1.0569  1.8539 -0.4053
17465SOL    HW257243   2.861   0.618   4.772  0.6653 -0.2159 -0.5167
17466SOL     OW57244   7.357   6.576   3.165  0.2476  0.0781  0.7375
17466SOL    HW157245   7.440   6.580   3.212  0.7253 -0.7504 -0.0098
17466SOL    HW257246   7.299   6.632   3.215  2.1407  3.5004 -0.4992
17467SOL     OW57247   5.974   1.527   3.784  0.5078 -0.1078 -0.4557
17467SOL    HW157248   5.969   1.436   3.814  1.0347  0.0665  0.1693
17467SOL    HW257249   6.067   1.548   3.784  0.3522  0.6071 -0.0723
17468SOL     OW57250   1.950   7.710   9.014  0.1183 -0.2316 -0.0166
17468SOL    HW157251   1.867   7.753   9.035 -0.2918 -0.4758 -1.0804
17468SOL    HW257252   1.926   7.618   9.002  0.9604 -0.7870  2.1070
17469SOL     OW57253   2.601   7.842   6.603 -0.0428 -0.3353 -0.3858
17469SOL    HW157254   2.665   7.862   6.672  0.1281  0.3966 -0.7469
17469SOL    HW257255   2.603   7.747   6.595 -0.3548 -0.4694  0.8989
17470SOL     OW57256   2.574   0.998   6.109  0.0025  0.3285 -0.1437
17470SOL    HW157257   2.569   1.024   6.201  0.7259  1.5084 -0.4217
17470SOL    HW257258   2.488   0.960   6.091 -0.4757  0.9292  0.7725
17471SOL     OW57259   8.857   8.689   7.599 -0.4812  0.1416 -0.0140
17471SOL    HW157260   8.797   8.659   7.530  0.0957 -0.3725 -0.3018
17471SOL    HW257261   8.852   8.622   7.667  1.2209 -0.9633 -0.8962
17472SOL     OW57262   3.121   0.634   4.567 -0.1420 -0.1586 -0.3243
17472SOL    HW157263   3.091   0.623   4.657  1.1335  1.8302  0.4164
17472SOL    HW257264   3.085   0.718   4.540  2.0812  0.8038 -0.4924
17473SOL     OW57265   4.669   8.134   7.974  0.1423 -0.4969  0.1624
17473SOL    HW157266   4.654   8.141   8.068  1.5300 -0.4873  0.4157
17473SOL    HW257267   4.731   8.204   7.955  0.5221 -1.0194 -0.5907
17474SOL     OW57268   1.181   9.185   1.073  0.3357 -0.1485  0.3683
17474SOL    HW157269   1.101   9.156   1.030  0.5714 -1.7382  0.9332
17474SOL    HW257270   1.239   9.212   1.002  0.3511 -1.7761 -0.2942
17475SOL     OW57271   0.083   3.704   7.075 -0.4001 -0.2737 -0.2610
17475SOL    HW157272   0.074   3.698   7.170 -1.6650  1.3360 -0.2374
17475SOL    HW257273   0.097   3.798   7.058 -0.6544 -0.4714 -1.6876
17476SOL     OW57274   6.606   1.118   4.300  0.5023 -0.4111  0.2956
17476SOL    HW157275   6.677   1.155   4.353  0.9213 -0.2957 -0.3402
17476SOL    HW257276   6.640   1.033   4.272  0.5050 -0.2341 -0.2431
17477SOL     OW57277   0.329   2.251   4.171 -0.4066  0.4534 -0.1306
17477SOL    HW157278   0.308   2.327   4.116 -0.2866 -0.2899 -1.2399
17477SOL    HW257279   0.424   2.245   4.168 -0.4671 -0.3391 -0.9123
17478SOL     OW57280   9.378   6.537   5.487 -0.1588  0.3871 -0.5384
17478SOL    HW157281   9.414   6.614   5.531  3.0267 -1.4658  0.3750
17478SOL    HW257282   9.393   6.465   5.547 -4.4703 -0.8940 -0.6819
17479SOL     OW57283   3.936   0.449   7.970  0.1565 -0.4211 -0.3491
17479SOL    HW157284   4.031   0.439   7.964  0.3552  0.6160  0.6764
17479SOL    HW257285   3.901   0.374   7.923  1.4810 -0.6570 -1.0172
17480SOL     OW57286   6.829   9.280   0.002 -0.2295  0.5080  0.2154
17480SOL    HW157287   6.881   9.352  -0.033 -1.5427  1.1487 -0.4942
17480SOL    HW257288   6.835   9.289   0.097  0.3399  1.0074  0.1378
17481SOL     OW57289   4.850   8.256   3.680 -0.2439  0.3532 -0.2680
17481SOL    HW157290   4.938   8.276   3.714 -1.3112 -0.6083  3.6120
17481SOL    HW257291   4.861   8.174   3.632  0.8930 -0.3899  1.1603
17482SOL     OW57292   4.836   1.022   1.421  0.0835 -0.2179  0.3372
17482SOL    HW157293   4.762   1.082   1.432 -0.0300 -0.4187  0.6948
17482SOL    HW257294   4.890   1.062   1.353  0.5902  0.8693  1.3285
17483SOL     OW57295   6.238   4.659   4.468 -0.0476  0.0510  0.0420
17483SOL    HW157296   6.177   4.733   4.464 -0.7019 -0.3967  1.3559
17483SOL    HW257297   6.319   4.693   4.430 -0.2600  1.5190  0.8468
17484SOL     OW57298   5.081   6.456   6.638  0.0275 -0.1281 -0.2899
17484SOL    HW157299   4.993   6.474   6.605 -0.3830 -0.8222  0.4044
17484SOL    HW257300   5.068   6.403   6.716  1.1307 -2.0373 -1.3201
17485SOL     OW57301   2.979   3.899   6.310  0.1124  0.3663 -0.1161
17485SOL    HW157302   3.057   3.844   6.319  0.3371  0.4540 -1.4415
17485SOL    HW257303   2.928   3.858   6.241 -0.3003  1.1466 -0.2880
17486SOL     OW57304   7.630   1.751   2.771  0.4413  0.7966 -0.7889
17486SOL    HW157305   7.562   1.712   2.716 -0.3376  0.9516  0.0425
17486SOL    HW257306   7.712   1.723   2.731 -0.0899 -0.8680 -0.8040
17487SOL     OW57307   3.398   3.139   0.876  0.0691 -0.1678  0.0672
17487SOL    HW157308   3.313   3.127   0.918  0.0115 -0.8590 -0.2284
17487SOL    HW257309   3.378   3.180   0.792  0.1056  0.4149  0.3390
17488SOL     OW57310   6.929   2.541   2.539  0.1411  0.5939  0.6097
17488SOL    HW157311   6.968   2.607   2.483 -0.2595  1.0539  0.8690
17488SOL    HW257312   6.971   2.554   2.624 -1.6499  2.1046  1.3106
17489SOL     OW57313   8.032   1.367   6.678 -0.5591 -0.5066  0.6019
17489SOL    HW157314   8.024   1.303   6.748  1.4105  0.0266  1.3789
17489SOL    HW257315   8.001   1.449   6.716  2.7851  0.3380  1.7763
17490SOL     OW57316   9.193   4.041   9.292 -0.4944 -0.4070  0.0558
17490SOL    HW157317   9.140   4.081   9.223 -2.5356 -0.6543  1.4018
17490SOL    HW257318   9.166   4.085   9.372  1.4231 -0.5116  0.8154
17491SOL     OW57319   3.930   3.482   2.704 -0.5143 -0.5518 -0.1141
17491SOL    HW157320   4.024   3.463   2.706 -0.8171 -2.3232 -1.0063
17491SOL    HW257321   3.912   3.525   2.787  1.1046 -0.0579  0.0163
17492SOL     OW57322   1.180   4.145   7.375  2.0248 -0.3962 -0.0990
17492SOL    HW157323   1.273   4.137   7.355  2.0413  2.3520 -1.5306
17492SOL    HW257324   1.140   4.172   7.292 -0.4716 -3.5958 -0.1240
17493SOL     OW57325   6.651   6.694   1.970 -0.0871 -0.1149  0.0815
17493SOL    HW157326   6.661   6.605   1.936  2.2959 -0.6500  1.9245
17493SOL    HW257327   6.608   6.682   2.055  0.2498  0.4973  0.3449
17494SOL     OW57328   8.995   0.389   0.114 -0.0826 -0.3915  0.1801
17494SOL    HW157329   9.013   0.483   0.121 -0.5912 -0.2119 -0.8191
17494SOL    HW257330   9.046   0.350   0.186  1.0892  0.5130 -0.1261
17495SOL     OW57331   3.117   4.270   5.982 -0.1215 -0.0233  0.1678
17495SOL    HW157332   3.102   4.213   6.057  1.0473 -1.3212 -0.5447
17495SOL    HW257333   3.142   4.211   5.911 -0.3966  1.2451 -1.0292
17496SOL     OW57334   4.292   3.613   4.792  0.2631 -0.0344 -0.9814
17496SOL    HW157335   4.283   3.529   4.747 -0.6895 -0.0795 -0.7305
17496SOL    HW257336   4.230   3.671   4.748  0.9903  0.5724 -1.2175
17497SOL     OW57337   6.721   7.332   2.406  0.3644 -0.9763  0.4690
17497SOL    HW157338   6.713   7.278   2.484  0.6037 -0.8066  0.6088
17497SOL    HW257339   6.631   7.339   2.373  0.4464 -2.2643 -0.0924
17498SOL     OW57340   2.366   4.005   8.107 -0.1192 -0.0334  0.1730
17498SOL    HW157341   2.349   3.940   8.175 -1.7878 -2.0894 -2.0322
17498SOL    HW257342   2.342   3.961   8.025  0.2783  2.8255 -1.6215
17499SOL     OW57343   5.858   5.856   3.798  0.5644 -0.3600  0.0574
17499SOL    HW157344   5.776   5.823   3.834  0.6818 -1.0940 -0.3075
17499SOL    HW257345   5.832   5.909   3.723  0.1140  3.4721  2.6223
17500SOL     OW57346   4.375   5.013   6.954 -0.1922 -0.1476 -0.2188
17500SOL    HW157347   4.293   5.038   6.912 -0.4653 -0.1093  0.3272
17500SOL    HW257348   4.349   4.971   7.036  0.3482  0.4393  0.2662
17501SOL     OW57349   1.229   3.139   3.094 -0.2126  0.5865 -0.0407
17501SOL    HW157350   1.262   3.229   3.095 -0.2630  0.6040  1.1089
17501SOL    HW257351   1.308   3.085   3.082 -0.2561  0.7989 -1.3789
17502SOL     OW57352   9.260   0.114   6.898  0.0509 -0.0286 -0.6020
17502SOL    HW157353   9.263   0.120   6.803  0.6575 -0.6484 -0.6225
17502SOL    HW257354   9.351   0.121   6.926 -0.2957  3.0236  0.1323
17503SOL     OW57355   7.026   6.571   1.066  0.1478 -0.0049  0.1863
17503SOL    HW157356   6.960   6.531   1.123 -0.2680  1.6173  0.8921
17503SOL    HW257357   7.022   6.520   0.985 -2.2246  0.2225  0.0871
17504SOL     OW57358   5.479   7.864   4.575  0.2416  0.1042  0.2995
17504SOL    HW157359   5.537   7.827   4.508  0.0933  0.4030  0.0039
17504SOL    HW257360   5.484   7.802   4.648  0.3785 -0.2417 -0.0002
17505SOL     OW57361   2.205   0.715   8.955 -0.2472 -0.0661  1.0162
17505SOL    HW157362   2.158   0.661   8.892 -0.0368 -3.0061  3.2039
17505SOL    HW257363   2.193   0.805   8.923  0.0052 -1.3515 -3.2083
17506SOL     OW57364   7.897   6.184   5.118  0.0738  0.3062  0.0814
17506SOL    HW157365   7.943   6.136   5.049  0.8912  1.5509 -0.2572
17506SOL    HW257366   7.904   6.128   5.195  0.9454 -0.1485 -0.3202
17507SOL     OW57367   5.274   8.305   8.610  0.0265 -0.0678 -0.8911
17507SOL    HW157368   5.254   8.221   8.650  1.8317  0.5537  1.5519
17507SOL    HW257369   5.188   8.343   8.589 -0.8714 -1.6567 -0.2233
17508SOL     OW57370   5.901   5.429   3.408  1.1110 -0.4713  0.3232
17508SOL    HW157371   5.995   5.429   3.428  1.2517 -1.3665 -0.2940
17508SOL    HW257372   5.897   5.452   3.315  0.8186 -1.9239 -0.0408
17509SOL     OW57373   5.078   5.006   7.908 -1.0380  0.3229  0.3356
17509SOL    HW157374   5.171   5.029   7.912 -0.8487 -0.2814 -0.3883
17509SOL    HW257375   5.050   5.005   7.999 -0.8378  2.4653  0.4782
17510SOL     OW57376   2.095   5.354   2.731 -0.0779  0.0357 -0.2643
17510SOL    HW157377   2.160   5.388   2.669  1.2721 -0.3994  0.8510
17510SOL    HW257378   2.023   5.325   2.676  0.5000  0.8887 -1.5297
17511SOL     OW57379   8.050   2.786   4.768 -0.1103 -0.9954  0.1102
17511SOL    HW157380   7.955   2.792   4.766  0.0006  1.8037  0.0752
17511SOL    HW257381   8.079   2.820   4.684  0.9508  0.1958  0.9196
17512SOL     OW57382   8.286   7.276   1.594  0.2794  0.1058  0.5335
17512SOL    HW157383   8.239   7.199   1.625 -1.0056  0.0872 -1.2813
17512SOL    HW257384   8.247   7.349   1.642  1.2885 -0.2854  2.0276
17513SOL     OW57385   2.796   3.409   6.443  0.0747  0.3736 -0.5776
17513SOL    HW157386   2.853   3.449   6.509  3.1475 -0.3017 -2.5967
17513SOL    HW257387   2.726   3.368   6.493  1.6443  0.7919  2.1727
17514SOL     OW57388   6.461   4.644   8.574 -0.7531  0.3146  0.0275
17514SOL    HW157389   6.385   4.596   8.541 -0.6763  0.5888 -0.5518
17514SOL    HW257390   6.456   4.729   8.532  1.6317 -0.6822 -2.6011
17515SOL     OW57391   1.507   5.941   1.467 -0.1283 -0.1056  0.4477
17515SOL    HW157392   1.581   5.996   1.490 -0.5935  0.5256  0.4804
17515SOL    HW257393   1.502   5.945   1.371  0.2414 -0.6422  0.4000
17516SOL     OW57394   9.012   4.941   4.204 -0.2570  0.1981 -0.1237
17516SOL    HW157395   9.081   5.007   4.204  0.2345 -0.2818  1.3214
17516SOL    HW257396   9.030   4.888   4.127  1.5258 -0.4306  0.6722
17517SOL     OW57397   6.676   3.141   1.740  0.4963  0.4470  0.5366
17517SOL    HW157398   6.689   3.177   1.828 -0.9167  0.6041  0.6964
17517SOL    HW257399   6.734   3.194   1.684  0.6691  0.9932  1.2181
17518SOL     OW57400   5.074   0.751   2.868 -0.1526  0.3112 -0.5159
17518SOL    HW157401   4.985   0.735   2.899 -0.3592  0.7095 -0.8943
17518SOL    HW257402   5.110   0.663   2.852 -0.5073  0.1542 -0.4544
17519SOL     OW57403   8.175   4.696   7.403  0.5247 -0.2486  0.0211
17519SOL    HW157404   8.088   4.661   7.419 -0.3438  1.6372 -0.2803
17519SOL    HW257405   8.234   4.637   7.451 -0.9011 -1.5471  0.2372
17520SOL     OW57406   9.272   8.989   1.353  0.2911 -0.0624 -0.0347
17520SOL    HW157407   9.222   8.919   1.310  1.2060 -0.8246  0.1121
17520SOL    HW257408   9.325   8.943   1.418  1.5444  0.6655 -0.5198
17521SOL     OW57409   5.054   6.395   1.912  0.3036 -0.0182  0.4032
17521SOL    HW157410   4.997   6.388   1.988  0.3057 -0.2870  0.3832
17521SOL    HW257411   5.016   6.335   1.848  0.7022 -0.3309  0.4519
17522SOL     OW57412   5.699   5.108   6.271 -0.1481  0.1153 -0.5605
17522SOL    HW157413   5.775   5.166   6.259 -0.7451  1.0692  0.0644
17522SOL    HW257414   5.731   5.021   6.248  0.8787  0.6416 -1.1985
17523SOL     OW57415   2.031   0.027   8.743 -0.2063  0.1384 -0.6588
17523SOL    HW157416   2.073   0.097   8.693  0.3360  0.0159 -0.3911
17523SOL    HW257417   2.038   0.055   8.834 -2.8046  1.2247 -0.7249
17524SOL     OW57418   0.156   4.204   3.480 -0.1958 -0.5481  0.1835
17524SOL    HW157419   0.144   4.185   3.573  0.8895 -1.7059  0.1087
17524SOL    HW257420   0.203   4.128   3.445 -0.0400  0.1406 -1.1895
17525SOL     OW57421   5.522   4.707   1.098  0.0660  0.1395  0.1886
17525SOL    HW157422   5.581   4.750   1.036  0.8017  1.5303  1.7620
17525SOL    HW257423   5.569   4.628   1.124  0.1682  0.0275 -0.3166
17526SOL     OW57424   6.936   2.667   3.709  0.0837 -0.1045 -0.1325
17526SOL    HW157425   6.974   2.752   3.733 -2.2605  0.5764  1.5960
17526SOL    HW257426   6.916   2.626   3.793  0.5894 -2.1342 -0.9532
17527SOL     OW57427   4.114   5.143   3.250  0.4581  0.5402  0.3259
17527SOL    HW157428   4.148   5.072   3.197  0.5348 -0.1315  1.2559
17527SOL    HW257429   4.026   5.115   3.276  0.2465  1.0591  0.1908
17528SOL     OW57430   8.768   1.744   8.274 -0.8513 -0.8402 -0.3062
17528SOL    HW157431   8.710   1.793   8.332 -0.0868  1.0464 -1.0701
17528SOL    HW257432   8.837   1.710   8.331  1.0410  2.7002 -0.2284
17529SOL     OW57433   3.356   1.321   6.633 -0.3915  0.2719  0.1458
17529SOL    HW157434   3.347   1.304   6.727 -0.6931 -0.8246 -0.0719
17529SOL    HW257435   3.446   1.295   6.613 -0.1684  0.9768  0.2241
17530SOL     OW57436   6.643   3.267   7.386  1.1166  0.3863  0.1132
17530SOL    HW157437   6.612   3.336   7.328 -2.4420 -0.3340  0.8658
17530SOL    HW257438   6.631   3.302   7.474 -1.8733 -1.3662  0.5664
17531SOL     OW57439   5.699   4.498   1.563  0.1879 -0.4759 -0.5298
17531SOL    HW157440   5.701   4.415   1.611 -0.6042 -1.2712 -1.8025
17531SOL    HW257441   5.754   4.482   1.486 -0.0355  0.1507 -0.8254
17532SOL     OW57442   4.201   8.777   4.740  0.7802  0.4623 -0.2115
17532SOL    HW157443   4.138   8.769   4.669  0.5802  0.8391 -0.0791
17532SOL    HW257444   4.155   8.746   4.818  0.4216  1.6315  0.0658
17533SOL     OW57445   4.006   8.885   1.367  0.2250 -0.4429  0.5436
17533SOL    HW157446   3.982   8.858   1.279 -0.9232  0.7978  0.4411
17533SOL    HW257447   4.096   8.853   1.379  0.2320 -1.0061 -0.8951
17534SOL     OW57448   2.835   7.093   4.850  0.1828  0.5496  0.3554
17534SOL    HW157449   2.854   7.037   4.925 -1.1462 -0.2293  0.1445
17534SOL    HW257450   2.912   7.150   4.842  1.2882 -0.8119  0.9639
17535SOL     OW57451   7.738   7.020   0.027  0.0766  0.4399 -0.2984
17535SOL    HW157452   7.831   7.005   0.014  0.0806 -1.0323  1.1176
17535SOL    HW257453   7.725   7.012   0.122 -1.5380  0.3031 -0.4986
17536SOL     OW57454   5.727   7.798   6.820  0.1666 -0.0430 -0.1265
17536SOL    HW157455   5.720   7.727   6.757  0.6198 -0.5564  0.3959
17536SOL    HW257456   5.781   7.763   6.891  0.5389  0.8725  0.0599
17537SOL     OW57457   5.931   0.190   2.185  0.4226  0.3273 -0.2857
17537SOL    HW157458   6.004   0.184   2.247 -0.8974 -1.0277  1.2252
17537SOL    HW257459   5.915   0.099   2.158 -1.6120  0.3909  0.5511
17538SOL     OW57460   2.104   2.944   4.060 -0.0783  0.6156 -0.2656
17538SOL    HW157461   2.014   2.952   4.026 -0.3630  0.8390  0.5329
17538SOL    HW257462   2.144   2.877   4.004 -1.9801 -2.6081  1.9132
17539SOL     OW57463   8.141   7.099   9.188 -0.1099 -0.0379  0.2038
17539SOL    HW157464   8.087   7.035   9.235  1.2001 -2.4426 -1.3423
17539SOL    HW257465   8.087   7.126   9.114 -0.2650 -0.2483  0.2380
17540SOL     OW57466   6.588   5.531   0.852  0.0552  0.3775 -0.5026
17540SOL    HW157467   6.559   5.616   0.885  2.0567  0.6174  0.8734
17540SOL    HW257468   6.661   5.553   0.793  0.6467 -0.3668 -0.0595
17541SOL     OW57469   5.202   5.870   3.780 -0.0962 -0.9292 -0.7090
17541SOL    HW157470   5.135   5.884   3.847  1.6039 -3.1390  1.6685
17541SOL    HW257471   5.260   5.947   3.788  0.2435 -1.2916  0.6405
17542SOL     OW57472   1.361   9.510   6.070 -0.5760  0.0165 -0.6767
17542SOL    HW157473   1.373   9.534   6.161  1.0738  1.1841 -1.1518
17542SOL    HW257474   1.436   9.456   6.049 -1.8488 -1.7438 -0.9106
17543SOL     OW57475   2.204   7.297   4.734 -0.1570  0.4346 -0.3762
17543SOL    HW157476   2.162   7.328   4.654  0.3617  0.4449 -0.6472
17543SOL    HW257477   2.281   7.249   4.704 -1.1935 -1.5803 -0.0007
17544SOL     OW57478   1.523   0.746   4.419 -0.3004  0.8054 -0.0705
17544SOL    HW157479   1.434   0.744   4.455  0.1827  2.3339  1.3575
17544SOL    HW257480   1.573   0.798   4.482  1.7888 -0.5970 -0.4728
17545SOL     OW57481   8.492   0.233   2.057 -0.1463  0.2887  0.1944
17545SOL    HW157482   8.459   0.307   2.006  1.0149 -0.0266 -1.0706
17545SOL    HW257483   8.585   0.253   2.071  0.4342 -1.3584 -1.0317
17546SOL     OW57484   2.032   6.805   2.779  0.6677 -0.0661  0.3746
17546SOL    HW157485   2.005   6.847   2.697  1.0947  2.4327  1.3963
17546SOL    HW257486   2.099   6.742   2.754 -0.0758 -0.2397 -1.2943
17547SOL     OW57487   9.014   3.353   8.994 -0.4771 -0.3318 -0.0780
17547SOL    HW157488   9.003   3.345   9.089 -0.0164 -0.3743 -0.0285
17547SOL    HW257489   8.925   3.369   8.961 -0.4549  1.0461  0.4804
17548SOL     OW57490   7.687   4.416   1.750 -0.3461 -0.5321  0.2241
17548SOL    HW157491   7.640   4.488   1.791 -0.8659 -0.3306 -0.6937
17548SOL    HW257492   7.768   4.455   1.718 -0.2691 -0.5291  0.4251
17549SOL     OW57493   5.945   4.327   3.318  0.4199  0.4481 -0.2508
17549SOL    HW157494   5.977   4.417   3.317  1.1776  0.1952 -1.4807
17549SOL    HW257495   5.995   4.284   3.388  1.1727  0.6276 -0.6599
17550SOL     OW57496   7.790   8.248   8.932 -0.0744  0.5056 -0.1475
17550SOL    HW157497   7.703   8.277   8.904 -0.3479  0.8770  1.0448
17550SOL    HW257498   7.778   8.221   9.023  0.1799 -3.2534 -1.0774
17551SOL     OW57499   2.524   1.803   5.081  0.5450 -0.2996  0.2208
17551SOL    HW157500   2.450   1.781   5.138  0.8408 -0.0155  0.7264
17551SOL    HW257501   2.540   1.896   5.098 -0.7562  0.3699 -1.9527
17552SOL     OW57502   4.327   2.649   1.836 -0.4160  0.8784 -0.2891
17552SOL    HW157503   4.305   2.692   1.753 -1.1695  1.9206  0.4198
17552SOL    HW257504   4.367   2.719   1.888 -0.9092  0.5089  0.5957
17553SOL     OW57505   0.901   7.184   7.938 -0.7225  0.0045  0.5041
17553SOL    HW157506   0.808   7.207   7.945 -0.7131  0.1657  0.1053
17553SOL    HW257507   0.923   7.150   8.024 -1.1757 -0.1175  0.5760
17554SOL     OW57508   5.971   5.699   1.971 -0.3857  0.3391  0.1058
17554SOL    HW157509   5.998   5.788   1.946 -1.5913  0.8267  0.4652
17554SOL    HW257510   6.043   5.666   2.024  0.2288  0.9727 -0.3168
17555SOL     OW57511   0.289   5.979   6.289 -0.1830  0.2570 -0.1209
17555SOL    HW157512   0.275   5.979   6.195 -1.0478  0.1863  0.0061
17555SOL    HW257513   0.260   5.893   6.318  1.3541 -0.2365  0.0325
17556SOL     OW57514   6.223   4.152   4.309  0.0566 -0.2811 -0.2600
17556SOL    HW157515   6.228   4.056   4.304  2.7908 -0.4944  2.8863
17556SOL    HW257516   6.185   4.169   4.395 -0.8889  1.5221 -0.9964
17557SOL     OW57517   1.493   3.095   2.044 -0.0483 -0.1780  0.2596
17557SOL    HW157518   1.416   3.111   2.099  1.0185  0.8303  1.5134
17557SOL    HW257519   1.462   3.034   1.977 -1.6295 -0.7729  1.4638
17558SOL     OW57520   3.241   1.294   1.343  0.4315 -0.9316 -0.1160
17558SOL    HW157521   3.236   1.366   1.281  1.3530 -0.9744 -0.2594
17558SOL    HW257522   3.239   1.215   1.289 -2.4721 -1.1365  0.1338
17559SOL     OW57523   4.241   2.117   3.287  0.3122  0.6942 -0.2178
17559SOL    HW157524   4.199   2.203   3.294 -0.1648  0.3221  2.2935
17559SOL    HW257525   4.221   2.074   3.370 -0.3454 -2.2673 -1.8002
17560SOL     OW57526   0.467   4.928   5.195 -0.0526  0.3680  0.1005
17560SOL    HW157527   0.384   4.922   5.148  0.4186 -2.8100 -0.5252
17560SOL    HW257528   0.452   4.879   5.276  0.7770  1.1365  0.7443
17561SOL     OW57529   0.662   6.821   0.848  0.4555 -0.0187  0.1390
17561SOL    HW157530   0.644   6.733   0.816 -1.4918  0.0447  0.9279
17561SOL    HW257531   0.663   6.814   0.943  0.0882  0.8176  0.2225
17562SOL     OW57532   5.000   3.589   9.431 -1.0796  0.0298 -0.6946
17562SOL    HW157533   5.083   3.636   9.439  1.3976 -4.1619  1.5031
17562SOL    HW257534   4.947   3.620   9.504  0.1290  0.0897  0.1823
17563SOL     OW57535   6.567   3.600   6.556 -0.6786 -0.2606  0.1876
17563SOL    HW157536   6.532   3.628   6.641 -0.1870 -3.4335  1.5799
17563SOL    HW257537   6.662   3.597   6.569 -0.4694  0.6313 -0.9869
17564SOL     OW57538   3.520   4.927   3.921 -0.9126 -0.0338 -0.1434
17564SOL    HW157539   3.487   4.924   3.832 -0.8118 -2.1485 -0.1529
17564SOL    HW257540   3.601   4.978   3.915 -0.8744 -0.2055 -1.2689
17565SOL     OW57541   8.462   1.012   9.696 -0.1538  0.1212 -0.9051
17565SOL    HW157542   8.478   0.946   9.629 -1.4898 -1.0156 -0.1797
17565SOL    HW257543   8.539   1.068   9.695  1.0774 -1.5277 -1.4705
17566SOL     OW57544   9.116   9.318   9.650 -0.6516 -0.0043  0.0818
17566SOL    HW157545   9.105   9.295   9.742 -1.5295  0.4014  0.0829
17566SOL    HW257546   9.159   9.241   9.611 -1.0148 -0.5098  0.6611
17567SOL     OW57547   8.408   3.808   3.862 -0.2686 -0.1662 -0.0133
17567SOL    HW157548   8.351   3.733   3.846  0.4038 -0.8636  0.7896
17567SOL    HW257549   8.355   3.867   3.917 -0.8881  0.0854 -0.8592
17568SOL     OW57550   3.787   0.535   0.017 -0.0899 -0.9737  0.0824
17568SOL    HW157551   3.746   0.512  -0.067  0.7274  1.5996 -1.1202
17568SOL    HW257552   3.876   0.561  -0.006  0.1998 -0.3615  1.7806
17569SOL     OW57553   8.366   3.464   8.454  0.1353 -0.0412  0.1105
17569SOL    HW157554   8.433   3.478   8.521 -0.7752 -0.9660  1.2597
17569SOL    HW257555   8.354   3.549   8.414  1.4274  0.3097  0.4381
17570SOL     OW57556   3.362   1.725   4.423  0.1367 -0.0422 -0.2243
17570SOL    HW157557   3.439   1.779   4.444  0.3209 -0.1430 -0.6270
17570SOL    HW257558   3.289   1.786   4.424 -0.0790 -0.2668  2.0227
17571SOL     OW57559   1.754   8.900   4.398  0.3061  0.1652  0.0087
17571SOL    HW157560   1.748   8.815   4.441 -0.0503  0.4220  0.4791
17571SOL    HW257561   1.788   8.959   4.465  0.8736  0.3280 -0.4145
17572SOL     OW57562   8.967   0.819   3.315 -0.3215 -0.0953  0.4173
17572SOL    HW157563   8.962   0.834   3.220  0.1036 -1.1538  0.2214
17572SOL    HW257564   9.019   0.740   3.324 -0.4640 -0.0679  1.5388
17573SOL     OW57565   9.071   5.294   8.494  0.7286  0.2931  0.2366
17573SOL    HW157566   9.084   5.379   8.536  0.4841  0.9834 -1.0388
17573SOL    HW257567   9.117   5.301   8.411 -0.3720 -0.3535 -0.4468
17574SOL     OW57568   6.447   7.361   2.346  0.0182  0.1932  0.4449
17574SOL    HW157569   6.455   7.415   2.425 -0.0230 -0.4281  0.8863
17574SOL    HW257570   6.384   7.293   2.370  0.2658 -0.2023 -0.0063
17575SOL     OW57571   4.944   0.924   9.747  0.2438  0.1153 -0.5649
17575SOL    HW157572   5.027   0.943   9.704  0.2990 -1.9351 -1.5112
17575SOL    HW257573   4.936   0.990   9.816  1.8242  1.3869 -1.5319
17576SOL     OW57574   6.559   0.500   8.843 -0.0989 -0.3309  0.5031
17576SOL    HW157575   6.570   0.579   8.790 -0.4414 -0.6349 -0.0247
17576SOL    HW257576   6.598   0.523   8.928  1.2843 -0.1507 -0.1499
17577SOL     OW57577   0.733   2.195   1.340 -0.0496  0.2174 -0.5449
17577SOL    HW157578   0.782   2.263   1.292  0.1858 -1.0399 -2.1446
17577SOL    HW257579   0.793   2.169   1.410  0.3978  0.7425 -0.7186
17578SOL     OW57580   6.992   2.535   3.354  0.3551 -0.3293  0.3611
17578SOL    HW157581   6.993   2.628   3.334 -4.4148 -0.2609 -0.7270
17578SOL    HW257582   7.039   2.494   3.280  2.9030  1.0545  1.0815
17579SOL     OW57583   1.597   3.345   8.336 -0.1685  0.0293 -0.0596
17579SOL    HW157584   1.612   3.351   8.430 -0.1958 -0.5869 -0.0115
17579SOL    HW257585   1.534   3.274   8.326 -0.3882  0.2851 -0.5218
17580SOL     OW57586   1.246   0.507   1.808 -0.6774 -0.1528 -0.7175
17580SOL    HW157587   1.296   0.493   1.728 -2.8366 -2.4031 -1.8267
17580SOL    HW257588   1.296   0.462   1.876 -0.4365 -1.1095 -1.5056
17581SOL     OW57589   6.974   8.477   7.422 -0.4708 -0.2298 -0.3070
17581SOL    HW157590   7.007   8.443   7.339  0.8979  1.9011 -0.7147
17581SOL    HW257591   6.978   8.572   7.412 -0.6623  0.0842  2.0716
17582SOL     OW57592   2.511   2.436   4.994  0.2250  0.0960  0.0859
17582SOL    HW157593   2.437   2.445   5.053 -0.1355  0.1411 -0.3724
17582SOL    HW257594   2.530   2.526   4.965  0.1304  0.0238 -0.1991
17583SOL     OW57595   5.011   4.118   5.194  0.3918  0.0574  0.2554
17583SOL    HW157596   5.004   4.097   5.287 -2.3229  1.9680  0.6102
17583SOL    HW257597   5.065   4.048   5.158 -1.9049 -3.1909  2.5369
17584SOL     OW57598   7.031   2.925   5.719  0.2301 -0.3056  0.2862
17584SOL    HW157599   6.974   2.850   5.702  1.9291 -1.5378 -0.2491
17584SOL    HW257600   7.072   2.944   5.635 -1.3099  2.3001  0.0168
17585SOL     OW57601   6.937   3.164   5.259  0.0142 -0.6301 -0.3142
17585SOL    HW157602   6.923   3.129   5.171 -2.1563 -0.2304 -0.1867
17585SOL    HW257603   6.925   3.259   5.249  0.0562 -0.5488  0.3522
17586SOL     OW57604   4.626   2.630   5.825  0.4757  0.0389  0.3548
17586SOL    HW157605   4.719   2.614   5.834  0.6597  0.0205 -1.2433
17586SOL    HW257606   4.587   2.594   5.905  1.7380 -0.7392  0.6469
17587SOL     OW57607   0.773   4.551   1.874  0.7355 -0.4159  0.4858
17587SOL    HW157608   0.762   4.574   1.967  1.7674  0.6365  0.3645
17587SOL    HW257609   0.862   4.515   1.868  1.2384  0.9036 -0.3382
17588SOL     OW57610   8.606   2.086   9.416  0.3448 -1.0147 -0.0087
17588SOL    HW157611   8.521   2.125   9.395  0.4088  0.5027  2.2287
17588SOL    HW257612   8.587   1.993   9.429 -1.3283 -0.4723  1.9700
17589SOL     OW57613   6.937   0.545   7.011 -0.1684  0.5368 -0.2160
17589SOL    HW157614   6.895   0.552   6.925 -0.8418 -2.9054 -0.3123
17589SOL    HW257615   6.865   0.525   7.071  0.5739  0.7096  0.7539
17590SOL     OW57616   5.403   9.640   9.667  0.3081  0.3477  0.2173
17590SOL    HW157617   5.468   9.615   9.733  0.9297  2.5921  0.5730
17590SOL    HW257618   5.455   9.669   9.592 -0.3382  0.2573 -0.2707
17591SOL     OW57619   5.139   8.812   4.220  0.8365 -0.1237 -0.3234
17591SOL    HW157620   5.224   8.841   4.187  1.1827  0.9191  1.3283
17591SOL    HW257621   5.081   8.888   4.207  0.8093  0.0588  0.7506
17592SOL     OW57622   5.170   5.482   5.806 -0.0651 -0.3226 -0.0469
17592SOL    HW157623   5.179   5.498   5.712  4.2740 -2.8867 -0.3296
17592SOL    HW257624   5.124   5.398   5.811 -3.1617  1.2441  0.4590
17593SOL     OW57625   2.892   3.630   8.677  0.0148 -0.8400 -0.4495
17593SOL    HW157626   2.913   3.678   8.597 -0.6824 -0.5821 -0.4890
17593SOL    HW257627   2.796   3.626   8.678 -0.1285  1.1547  1.5086
17594SOL     OW57628   5.228   8.296   7.816  0.5377  0.1305 -0.4876
17594SOL    HW157629   5.185   8.269   7.735  0.5665  0.6132 -0.6650
17594SOL    HW257630   5.260   8.214   7.854  1.5208  0.0008 -1.5369
17595SOL     OW57631   3.198   9.489   2.585 -0.7451  0.2064  0.0204
17595SOL    HW157632   3.198   9.585   2.580 -0.3686  0.2595  0.8080
17595SOL    HW257633   3.170   9.460   2.498 -0.4467  1.0217 -0.3565
17596SOL     OW57634   3.729   6.296   5.157  0.0881 -0.0153 -0.2743
17596SOL    HW157635   3.656   6.357   5.164  0.8581  1.0667 -1.2606
17596SOL    HW257636   3.693   6.221   5.110 -0.8667 -0.3363  0.9320
17597SOL     OW57637   9.375   4.205   9.644 -0.1205 -0.0789  0.7530
17597SOL    HW157638   9.284   4.217   9.615 -0.3104 -0.3072  1.2398
17597SOL    HW257639   9.403   4.124   9.602 -0.3873 -0.3947  1.1668
17598SOL     OW57640   2.164   6.497   3.946 -0.9539  0.6119 -0.2824
17598SOL    HW157641   2.078   6.505   3.987 -0.7054 -1.1594  0.6894
17598SOL    HW257642   2.225   6.534   4.009 -0.6778 -1.2237  0.5888
17599SOL     OW57643   8.897   3.168   6.341  0.4330  0.1217  0.0948
17599SOL    HW157644   8.944   3.242   6.378  1.8887 -1.1699  0.9895
17599SOL    HW257645   8.837   3.140   6.411  1.4534 -0.8312  0.6352
17600SOL     OW57646   1.862   8.239   4.143 -0.4316 -0.8824 -0.3430
17600SOL    HW157647   1.808   8.306   4.101  1.7956 -0.3123 -2.5705
17600SOL    HW257648   1.829   8.157   4.108 -3.1000 -1.1125  2.3105
17601SOL     OW57649   9.326   7.366   5.638 -0.1052 -0.0410  0.1191
17601SOL    HW157650   9.284   7.385   5.722 -0.0364 -0.8557  0.3472
17601SOL    HW257651   9.397   7.429   5.631 -0.3968  0.3289  0.4574
17602SOL     OW57652   6.425   3.991   5.809  0.4952 -0.1709 -0.8604
17602SOL    HW157653   6.404   3.921   5.747  0.9800 -0.1649 -1.0410
17602SOL    HW257654   6.413   3.952   5.895  1.5729 -0.7522 -0.9493
17603SOL     OW57655   8.761   5.061   5.913  0.0831 -0.6068 -0.3116
17603SOL    HW157656   8.667   5.077   5.915  0.2454  0.2565  1.0518
17603SOL    HW257657   8.785   5.044   6.004  1.3027 -0.5170 -0.5963
17604SOL     OW57658   9.009   2.627   0.430  0.0155 -0.3804  0.3873
17604SOL    HW157659   9.015   2.672   0.346 -0.2461 -0.8020  0.1349
17604SOL    HW257660   9.068   2.552   0.421 -1.2762 -1.4059 -0.0776
17605SOL     OW57661   9.338   3.753   9.425  0.4905  0.5620  0.4348
17605SOL    HW157662   9.325   3.660   9.407  0.1963  0.9755 -1.7493
17605SOL    HW257663   9.422   3.774   9.384  0.9514  1.1109  1.6137
17606SOL     OW57664   2.431   8.662   6.604  0.0637 -0.6098  0.7433
17606SOL    HW157665   2.356   8.696   6.555  1.1786 -0.9394 -1.3157
17606SOL    HW257666   2.507   8.702   6.562  1.0867 -0.8788  2.2843
17607SOL     OW57667   1.760   8.488   7.445  0.5237  0.0716 -0.3619
17607SOL    HW157668   1.854   8.468   7.439  0.6094  0.4083 -0.1842
17607SOL    HW257669   1.755   8.582   7.432  0.3479  0.2726  0.9408
17608SOL     OW57670   4.727   3.661   0.720 -0.3344  0.2848  1.1583
17608SOL    HW157671   4.769   3.646   0.805  0.5409  2.8161  1.2639
17608SOL    HW257672   4.797   3.694   0.664 -0.8277 -1.6094 -0.7046
17609SOL     OW57673   5.779   1.428   8.761  0.5482  0.2910 -0.2844
17609SOL    HW157674   5.752   1.432   8.669  1.6933  0.6539 -0.6230
17609SOL    HW257675   5.819   1.341   8.771 -0.0655  0.0384  0.0208
17610SOL     OW57676   5.732   7.086   5.365  0.7846 -0.6648  0.1602
17610SOL    HW157677   5.821   7.118   5.350  0.0919  0.5755 -1.6705
17610SOL    HW257678   5.744   6.997   5.397  2.7247  0.2008  2.2242
17611SOL     OW57679   5.955   9.493   3.499  0.3584 -0.0819 -0.3866
17611SOL    HW157680   5.925   9.575   3.462  1.0009  0.3780  0.0944
17611SOL    HW257681   5.951   9.431   3.426 -0.2204  0.3427 -0.7255
17612SOL     OW57682   6.256   5.816   2.745 -0.2461 -0.5507 -0.0996
17612SOL    HW157683   6.190   5.784   2.683 -2.3518  2.6323  0.2873
17612SOL    HW257684   6.231   5.776   2.828 -1.0526 -0.1812 -0.1597
17613SOL     OW57685   0.463   9.097   2.845 -0.1809 -0.1725 -0.1072
17613SOL    HW157686   0.488   9.020   2.794  2.1039 -0.0049  0.6266
17613SOL    HW257687   0.473   9.170   2.784 -1.2732 -0.3326 -0.4916
17614SOL     OW57688   9.020   6.193   2.625  0.1115 -0.2223  0.1071
17614SOL    HW157689   8.981   6.256   2.686 -0.6678 -0.0082 -0.5987
17614SOL    HW257690   9.101   6.165   2.668 -0.6414 -0.4215  1.4578
17615SOL     OW57691   0.118   8.609   9.491  0.2010  0.4672 -0.0777
17615SOL    HW157692   0.123   8.580   9.399  0.3972 -0.7612  0.2959
17615SOL    HW257693   0.145   8.532   9.541 -0.4263  0.9632  1.0402
17616SOL     OW57694   9.229   0.090   2.803 -0.0844  0.4294 -0.0540
17616SOL    HW157695   9.325   0.094   2.793 -0.2784  1.7906 -2.1672
17616SOL    HW257696   9.211   0.147   2.877  0.8030 -0.9568  1.2857
17617SOL     OW57697   2.498   5.383   2.772 -0.2566  0.1580 -0.2657
17617SOL    HW157698   2.555   5.458   2.756 -2.9224  2.3363 -0.3270
17617SOL    HW257699   2.456   5.366   2.687  0.2635 -1.4183 -0.2384
17618SOL     OW57700   8.951   1.280   8.687  0.1232 -0.4496  0.4999
17618SOL    HW157701   8.970   1.355   8.629 -1.1363 -1.4997 -1.3831
17618SOL    HW257702   9.028   1.224   8.679  0.2117 -0.3030  0.3049
17619SOL     OW57703   5.521   4.519   5.751 -0.0191  0.0829  0.0852
17619SOL    HW157704   5.606   4.554   5.780  0.3980  0.6408 -1.7004
17619SOL    HW257705   5.495   4.577   5.679 -1.6507 -0.4339  0.2277
17620SOL     OW57706   0.382   5.752   3.264  0.1890  0.1545 -0.2841
17620SOL    HW157707   0.396   5.847   3.271 -1.5846  0.4111  0.4642
17620SOL    HW257708   0.298   5.738   3.306  0.1728 -1.7038 -0.8615
17621SOL     OW57709   6.113   2.974   7.314  0.1038  0.0215 -0.6239
17621SOL    HW157710   6.020   2.961   7.295 -0.5856 -0.9772  2.7250
17621SOL    HW257711   6.144   2.887   7.340  2.2074  0.2116 -2.2441
17622SOL     OW57712   1.230   6.564   2.847  0.3966  0.4471  0.6925
17622SOL    HW157713   1.292   6.491   2.851 -0.5127 -0.3243  1.4164
17622SOL    HW257714   1.284   6.642   2.855  1.6547  0.0087 -2.2898
17623SOL     OW57715   7.532   7.033   1.647 -0.7394 -0.0445 -0.6283
17623SOL    HW157716   7.606   7.050   1.704 -0.6043 -0.4240 -0.6818
17623SOL    HW257717   7.479   7.112   1.651  2.0338  2.3160 -4.2828
17624SOL     OW57718   4.291   2.867   6.475 -0.2002 -0.8959 -0.3844
17624SOL    HW157719   4.262   2.858   6.385 -0.8022  1.0164 -0.4226
17624SOL    HW257720   4.259   2.953   6.502  2.9946  0.1103  0.5208
17625SOL     OW57721   3.967   7.851   5.970  0.3242  0.5309  0.1379
17625SOL    HW157722   4.040   7.794   5.996  0.4719  0.4549 -0.4258
17625SOL    HW257723   3.923   7.873   6.052 -0.7949 -1.7964  0.2390
17626SOL     OW57724   2.109   9.654   0.906 -0.2411 -0.7631 -0.1827
17626SOL    HW157725   2.049   9.580   0.910  0.8899 -1.6793  1.5945
17626SOL    HW257726   2.195   9.616   0.922  0.4719  0.8380  0.0351
17627SOL     OW57727   2.634   6.384   1.486 -0.0070  0.5019  0.2003
17627SOL    HW157728   2.697   6.454   1.504  1.1428 -0.6382  0.7972
17627SOL    HW257729   2.666   6.343   1.406 -0.3938  0.3567  0.1218
17628SOL     OW57730   5.023   8.785   9.518 -0.2478  0.3106 -0.2949
17628SOL    HW157731   4.997   8.872   9.550  1.3181  0.4661  0.6859
17628SOL    HW257732   5.084   8.753   9.584 -0.8822 -1.6146 -0.5957
17629SOL     OW57733   3.600   0.264   6.804 -0.2982 -0.1774  0.6863
17629SOL    HW157734   3.552   0.296   6.880  2.2420 -0.2948  2.4312
17629SOL    HW257735   3.651   0.190   6.837  2.6519  1.1813 -0.4900
17630SOL     OW57736   5.588   5.061   6.540  0.1710  0.2609 -0.3206
17630SOL    HW157737   5.580   5.032   6.449 -0.7947 -0.8284  0.0916
17630SOL    HW257738   5.657   5.005   6.577 -0.5784 -0.4477  0.0413
17631SOL     OW57739   0.195   5.936   4.064 -0.3184  0.6108  0.1793
17631SOL    HW157740   0.114   5.897   4.097 -0.7338  0.4322 -0.9964
17631SOL    HW257741   0.223   5.995   4.134  0.1047 -1.4174  1.8437
17632SOL     OW57742   5.869   6.854   5.523 -0.6349  0.0116 -0.2741
17632SOL    HW157743   5.920   6.783   5.561 -0.8863 -0.1581 -0.2499
17632SOL    HW257744   5.824   6.814   5.449 -0.3479  0.2779 -0.5959
17633SOL     OW57745   5.522   3.466   0.197  0.0013 -0.7951 -0.2662
17633SOL    HW157746   5.456   3.440   0.261 -0.1898 -0.2270 -0.2311
17633SOL    HW257747   5.595   3.407   0.213  0.8582  0.7425  1.9730
17634SOL     OW57748   2.115   5.730   7.910 -0.1445 -0.6143  0.1373
17634SOL    HW157749   2.144   5.815   7.944 -1.5219  0.3467 -0.9657
17634SOL    HW257750   2.072   5.687   7.984  0.7031 -0.4325  0.7446
17635SOL     OW57751   7.822   6.012   5.390 -0.1386  0.3317 -0.3560
17635SOL    HW157752   7.752   5.948   5.392  0.6207 -0.4852  0.7350
17635SOL    HW257753   7.839   6.033   5.482  1.0122  0.5445 -0.6015
17636SOL     OW57754   3.693   2.413   0.569  0.2257  0.1881 -0.5005
17636SOL    HW157755   3.639   2.423   0.647  0.2952  0.1047 -0.4425
17636SOL    HW257756   3.777   2.451   0.593  0.5110 -0.6034 -0.2592
17637SOL     OW57757   2.586   3.404   0.467 -0.4117  0.0980  0.1959
17637SOL    HW157758   2.665   3.350   0.457 -0.4017  0.0359  0.6157
17637SOL    HW257759   2.524   3.365   0.405 -0.6584 -0.8808  1.0203
17638SOL     OW57760   7.478   4.681   8.892 -0.3616 -0.3947  0.6383
17638SOL    HW157761   7.471   4.606   8.833 -0.2877  0.2952 -0.2616
17638SOL    HW257762   7.388   4.711   8.904 -0.5540 -1.4204  2.0857
17639SOL     OW57763   6.157   5.911   9.355  0.3113 -0.0941  0.1399
17639SOL    HW157764   6.088   5.845   9.344 -1.8399  1.9806  0.4125
17639SOL    HW257765   6.219   5.893   9.283 -0.1449 -2.3814  0.2300
17640SOL     OW57766   2.392   0.049   7.881  0.3990  0.0203  0.4711
17640SOL    HW157767   2.361   0.071   7.969  2.7060 -0.4774  1.4922
17640SOL    HW257768   2.449  -0.028   7.894 -0.1697 -0.8298 -1.6487
17641SOL     OW57769   3.592   9.634   1.351 -0.2924  0.4148 -0.2191
17641SOL    HW157770   3.612   9.691   1.425 -2.1993  1.1304 -0.2136
17641SOL    HW257771   3.666   9.645   1.291  0.3709  1.2484  0.7213
17642SOL     OW57772   5.037   4.495   1.932 -0.1828 -0.3852 -0.0905
17642SOL    HW157773   5.038   4.405   1.963  0.8122  0.2314  1.8396
17642SOL    HW257774   5.067   4.547   2.007  3.6724  1.1187 -2.3634
17643SOL     OW57775   5.026   2.711   4.903 -0.3498  0.1315 -1.0740
17643SOL    HW157776   5.055   2.770   4.973 -0.2649 -0.2036 -0.8228
17643SOL    HW257777   5.049   2.756   4.822 -0.8956  0.7528 -0.8939
17644SOL     OW57778   1.165   0.426   6.606 -0.1248  0.4672 -0.2835
17644SOL    HW157779   1.090   0.376   6.573 -1.6392  0.1372  3.2497
17644SOL    HW257780   1.160   0.510   6.561 -1.2515 -0.3301 -1.7406
17645SOL     OW57781   6.678   7.524   8.055  0.6383  0.3751 -0.0603
17645SOL    HW157782   6.760   7.569   8.077  0.9001  0.3063 -0.8634
17645SOL    HW257783   6.620   7.594   8.023  1.6975 -0.0218 -3.2013
17646SOL     OW57784   5.442   6.021   0.065 -0.1400  0.3280 -0.1819
17646SOL    HW157785   5.368   6.018   0.126  0.3746 -1.5042  0.4431
17646SOL    HW257786   5.402   6.031  -0.021 -0.9822  1.3086  0.3025
17647SOL     OW57787   6.475   6.037   4.269 -0.1858 -0.6751 -0.5066
17647SOL    HW157788   6.470   6.129   4.246 -0.5653 -0.7411 -0.6944
17647SOL    HW257789   6.389   6.016   4.305  0.1023 -0.8033  0.1127
17648SOL     OW57790   1.751   3.618   0.853 -0.2747  0.1135 -0.6386
17648SOL    HW157791   1.737   3.529   0.821  0.6687 -0.0488 -0.6332
17648SOL    HW257792   1.770   3.608   0.946  0.3860  0.2579 -0.7500
17649SOL     OW57793   2.511   2.188   7.921 -0.0571 -0.0035 -0.5463
17649SOL    HW157794   2.468   2.104   7.937 -0.3481  0.5834  2.2532
17649SOL    HW257795   2.476   2.246   7.988  3.1814  1.1895  0.3245
17650SOL     OW57796   7.114   1.057   6.162  0.2373  0.4132 -0.0113
17650SOL    HW157797   7.043   0.993   6.157 -1.0487  1.5950  1.9249
17650SOL    HW257798   7.084   1.131   6.110  0.6733  0.3855 -0.3105
17651SOL     OW57799   2.879   5.383   5.476  0.0119  0.0554  0.3639
17651SOL    HW157800   2.868   5.395   5.570  0.2715  1.2004  0.2570
17651SOL    HW257801   2.868   5.288   5.462 -2.7977  0.1681  1.1830
17652SOL     OW57802   1.467   1.471   8.540 -0.6138  0.0000 -0.1072
17652SOL    HW157803   1.549   1.514   8.516 -0.6422 -0.5285 -1.1880
17652SOL    HW257804   1.493   1.396   8.593 -0.2931 -0.8778 -1.4616
17653SOL     OW57805   1.221   5.304   7.859 -0.3601  0.0187  0.5051
17653SOL    HW157806   1.207   5.284   7.951 -0.0881  1.9497  1.0119
17653SOL    HW257807   1.145   5.267   7.814  0.0780 -1.9749  1.3074
17654SOL     OW57808   2.370   2.464   6.111 -0.1580 -0.5373 -0.3511
17654SOL    HW157809   2.373   2.449   6.205  0.2031  1.0682 -0.0720
17654SOL    HW257810   2.461   2.482   6.086 -0.2233 -1.1009 -1.0520
17655SOL     OW57811   0.698   9.577   1.463 -0.0753  1.0706 -0.4935
17655SOL    HW157812   0.675   9.669   1.478  0.0370  1.2453 -1.3317
17655SOL    HW257813   0.681   9.534   1.547  0.2028  1.9203  0.0119
17656SOL     OW57814   4.959   2.056   6.333  0.4396 -0.3144  0.1716
17656SOL    HW157815   4.877   2.082   6.292 -0.4372 -0.6076  1.6552
17656SOL    HW257816   4.956   1.961   6.335  1.2818 -0.3693 -0.6451
17657SOL     OW57817   7.609   4.082   2.092  0.1652 -0.8678 -0.5999
17657SOL    HW157818   7.684   4.128   2.130 -1.8161 -0.3753  3.2664
17657SOL    HW257819   7.539   4.148   2.091 -1.2669 -2.3146 -0.1673
17658SOL     OW57820   7.151   6.205   7.546  0.5741 -0.4846 -0.0406
17658SOL    HW157821   7.167   6.280   7.490 -0.4132  0.3900  0.8153
17658SOL    HW257822   7.058   6.187   7.538  0.6745 -1.2017  0.2746
17659SOL     OW57823   9.446   0.941   8.022 -0.0581 -0.5598  0.1089
17659SOL    HW157824   9.472   0.991   8.100 -0.9104  1.9783 -1.1040
17659SOL    HW257825   9.486   0.855   8.033  2.8863  0.8767  1.6112
17660SOL     OW57826   8.774   4.613   4.755  0.6502  0.5899  0.0145
17660SOL    HW157827   8.753   4.543   4.817 -0.6600  1.6004  0.7590
17660SOL    HW257828   8.695   4.623   4.702  1.9449 -0.6897 -2.3569
17661SOL     OW57829   0.634   7.485   0.696 -0.4699 -0.1752 -0.3425
17661SOL    HW157830   0.640   7.536   0.777 -0.3497 -1.2118  0.3180
17661SOL    HW257831   0.708   7.514   0.644  0.3265 -0.5398  0.5516
17662SOL     OW57832   5.611   7.968   8.829 -0.0165 -0.6934 -0.0007
17662SOL    HW157833   5.657   8.013   8.901 -3.1284  0.2899  1.5450
17662SOL    HW257834   5.583   8.038   8.771  1.4984 -1.4057 -1.7078
17663SOL     OW57835   2.056   7.140   2.972 -0.2264 -0.2235  0.4370
17663SOL    HW157836   1.999   7.195   2.918  0.7985  1.4709  1.0030
17663SOL    HW257837   2.010   7.132   3.055  0.0651  0.6702  0.6993
17664SOL     OW57838   3.474   3.480   4.123 -0.2183 -0.0877  0.0775
17664SOL    HW157839   3.471   3.443   4.035  0.1981 -1.4404  0.6093
17664SOL    HW257840   3.415   3.424   4.174  1.8073 -1.2197  1.3140
17665SOL     OW57841   4.117   9.641   8.188  0.1212 -0.7598 -0.3809
17665SOL    HW157842   4.130   9.698   8.112  1.1289  0.0033  0.3429
17665SOL    HW257843   4.035   9.671   8.226  0.1695 -0.4163 -0.5400
17666SOL     OW57844   2.370   5.648   7.034  0.4795 -0.4415 -0.5203
17666SOL    HW157845   2.306   5.647   7.105  2.2039 -0.1529  1.1298
17666SOL    HW257846   2.319   5.664   6.955 -1.4607 -0.2178  0.7251
17667SOL     OW57847   1.783   3.223   7.651 -0.3643 -0.3429 -0.1694
17667SOL    HW157848   1.855   3.174   7.692  1.4838  0.7322 -1.8969
17667SOL    HW257849   1.744   3.160   7.590 -0.2648 -0.6780  0.1091
17668SOL     OW57850   2.979   9.341   8.639 -0.0984  0.1346 -0.0176
17668SOL    HW157851   2.964   9.247   8.640  0.3191  0.0690  0.5587
17668SOL    HW257852   2.963   9.369   8.729 -1.6224  0.8474 -0.4857
17669SOL     OW57853   2.426   0.041   9.319 -0.1578  0.3620  0.5849
17669SOL    HW157854   2.364  -0.004   9.261  0.7916 -1.0263  0.5757
17669SOL    HW257855   2.502   0.058   9.264 -0.4158  1.8315  0.6563
17670SOL     OW57856   5.386   3.124   2.075 -0.4658  0.0510 -0.6713
17670SOL    HW157857   5.430   3.191   2.021 -0.8216  0.1286 -0.8681
17670SOL    HW257858   5.440   3.046   2.064 -0.1640  0.2512 -0.6102
17671SOL     OW57859   1.683   0.306   3.605 -0.6993 -0.4869  0.1790
17671SOL    HW157860   1.633   0.310   3.686 -1.7793  0.5835 -0.5041
17671SOL    HW257861   1.703   0.397   3.585  1.2033 -0.8475  0.1966
17672SOL     OW57862   1.126   0.357   6.906  0.5189  0.1302 -0.8399
17672SOL    HW157863   1.099   0.269   6.880  1.7843 -1.1512  1.8268
17672SOL    HW257864   1.213   0.367   6.867  1.5066 -0.9343  0.9617
17673SOL     OW57865   8.394   7.976   1.201 -0.1798  0.0637  0.0469
17673SOL    HW157866   8.363   7.911   1.264 -1.1382 -0.2885 -0.7534
17673SOL    HW257867   8.328   8.046   1.204 -0.2186  0.0611 -0.5219
17674SOL     OW57868   2.937   0.160   0.532 -0.0824 -0.2210  0.2769
17674SOL    HW157869   2.900   0.233   0.582 -2.1148  1.1344 -2.8907
17674SOL    HW257870   3.002   0.202   0.475  1.8274 -1.6416  1.2862
17675SOL     OW57871   4.531   9.351   8.173  0.0030 -0.2603 -0.2267
17675SOL    HW157872   4.595   9.296   8.217  0.0961 -0.0138 -0.0531
17675SOL    HW257873   4.524   9.429   8.228  1.9296  1.1636 -1.8358
17676SOL     OW57874   0.514   5.154   8.907  0.4180 -0.0325  0.0256
17676SOL    HW157875   0.461   5.088   8.953  0.4071 -0.0184  0.0336
17676SOL    HW257876   0.458   5.232   8.906  0.1200 -0.2498 -0.6688
17677SOL     OW57877   5.777   3.184   2.883 -0.5476 -0.3630 -0.2822
17677SOL    HW157878   5.823   3.107   2.918 -0.0176 -0.3880 -1.0274
17677SOL    HW257879   5.685   3.157   2.880 -0.8565  0.1049  2.3909
17678SOL     OW57880   6.110   2.172   9.257 -0.2323 -0.4576  0.4818
17678SOL    HW157881   6.073   2.171   9.169 -0.6072 -0.4902  0.6417
17678SOL    HW257882   6.064   2.243   9.302  0.6768  0.2370  0.3404
17679SOL     OW57883   9.000   0.446   2.953 -0.1248  0.3667 -0.8158
17679SOL    HW157884   8.938   0.376   2.934  0.1347  0.4508 -2.0789
17679SOL    HW257885   8.954   0.503   3.014  0.5395 -2.1278  2.2767
17680SOL     OW57886   2.362   1.358   3.556 -0.1978 -0.3652  0.1104
17680SOL    HW157887   2.387   1.378   3.466  0.0583 -0.9885  0.0369
17680SOL    HW257888   2.274   1.321   3.548  0.4629 -1.9827 -0.0829
17681SOL     OW57889   9.445   0.926   6.176  0.7048 -0.2471  0.1164
17681SOL    HW157890   9.417   0.987   6.244  1.6076  0.4810 -0.1359
17681SOL    HW257891   9.419   0.840   6.209 -1.7102  0.3294 -0.0881
17682SOL     OW57892   2.158   5.273   4.966  0.2637 -0.8280 -0.3564
17682SOL    HW157893   2.254   5.275   4.967  0.2536 -0.0144 -0.2065
17682SOL    HW257894   2.135   5.198   5.021  0.8078  0.4053  1.6938
17683SOL     OW57895   5.830   4.588   5.842  0.1206  0.2510  0.3173
17683SOL    HW157896   5.887   4.641   5.898 -1.1789  0.7032  1.2760
17683SOL    HW257897   5.796   4.650   5.778 -0.3593  0.3019  0.6135
17684SOL     OW57898   0.475   4.297   3.081 -0.0603  0.2875  0.0118
17684SOL    HW157899   0.566   4.310   3.052  0.0182 -0.4057 -0.0824
17684SOL    HW257900   0.484   4.252   3.165 -0.3167 -0.1598 -0.1970
17685SOL     OW57901   7.088   8.629   0.555 -0.3444  0.3627 -0.2115
17685SOL    HW157902   7.083   8.548   0.505 -0.7055  0.5693 -0.5144
17685SOL    HW257903   7.164   8.618   0.611 -1.5591 -1.0465  1.2505
17686SOL     OW57904   4.959   0.026   6.062  0.0915  0.2410  0.4879
17686SOL    HW157905   4.975   0.093   6.129 -0.3070  1.3721 -0.4883
17686SOL    HW257906   4.902   0.070   5.998  0.9148 -0.5987 -0.8826
17687SOL     OW57907   2.353   2.715   5.246 -0.6087 -0.0997  0.4895
17687SOL    HW157908   2.270   2.762   5.256 -0.5480  0.5697 -1.6100
17687SOL    HW257909   2.410   2.755   5.312 -1.4910  0.5367  0.9016
17688SOL     OW57910   6.374   5.598   5.137  0.2495 -0.3503  0.6063
17688SOL    HW157911   6.279   5.587   5.129  0.2587 -0.7852  1.0304
17688SOL    HW257912   6.392   5.585   5.230  0.6096  0.6812  0.7048
17689SOL     OW57913   5.128   8.172   7.590  0.0208 -0.4363  0.8928
17689SOL    HW157914   5.032   8.175   7.583 -0.2144 -1.6063  2.8069
17689SOL    HW257915   5.152   8.086   7.556  0.3750 -0.2510  0.6685
17690SOL     OW57916   3.705   0.828   1.547 -0.5106 -0.2060  0.2622
17690SOL    HW157917   3.632   0.793   1.495  0.6013 -0.5545 -1.1225
17690SOL    HW257918   3.690   0.923   1.546 -0.1264 -0.1317 -1.3623
17691SOL     OW57919   2.858   3.918   5.917 -0.7998 -0.2943 -0.1539
17691SOL    HW157920   2.896   3.869   5.990 -0.3569  0.4989  0.1609
17691SOL    HW257921   2.779   3.959   5.954 -1.3658 -1.0397 -0.5106
17692SOL     OW57922   4.730   8.947   8.782  0.1945 -0.0653 -0.8626
17692SOL    HW157923   4.759   8.938   8.691 -0.0190  1.7732 -1.1611
17692SOL    HW257924   4.803   8.913   8.834  1.4521  1.2536 -1.6817
17693SOL     OW57925   2.309   6.796   3.852  0.3265 -0.4883 -0.3849
17693SOL    HW157926   2.218   6.791   3.823  0.2170 -0.6360 -0.0264
17693SOL    HW257927   2.353   6.727   3.803 -0.0075 -1.2255  0.3238
17694SOL     OW57928   0.584   5.646   7.612  0.0155 -0.4256 -0.3724
17694SOL    HW157929   0.500   5.667   7.572 -0.0056  0.7489  0.2400
17694SOL    HW257930   0.600   5.717   7.674  1.7515 -0.2732 -0.9159
17695SOL     OW57931   8.674   0.687   1.759 -0.2491  0.5772  0.1165
17695SOL    HW157932   8.665   0.752   1.689  0.7045 -1.3199 -1.8959
17695SOL    HW257933   8.616   0.615   1.732  1.0824 -0.7182  0.5954
17696SOL     OW57934   0.567   9.587   0.581  0.3374 -0.6444  0.3939
17696SOL    HW157935   0.582   9.562   0.490 -0.8864  0.1789 -0.0513
17696SOL    HW257936   0.612   9.519   0.632  2.4565 -0.2299 -0.8003
17697SOL     OW57937   1.492   3.646   0.344  0.0547  0.1705 -0.0481
17697SOL    HW157938   1.446   3.726   0.318 -0.8706  0.1479  1.4212
17697SOL    HW257939   1.532   3.668   0.428  1.3961 -0.3325 -0.5275
17698SOL     OW57940   0.573   9.154   3.588  0.6172 -0.0119 -0.2013
17698SOL    HW157941   0.587   9.063   3.613 -0.5141  0.3796  2.2487
17698SOL    HW257942   0.539   9.150   3.499 -2.1734 -2.2902  0.8047
17699SOL     OW57943   1.259   1.995   3.791 -0.1734 -0.1370  0.6846
17699SOL    HW157944   1.325   1.930   3.816  0.0251 -0.5163 -0.7024
17699SOL    HW257945   1.207   2.009   3.870 -1.5289 -3.5306  0.5642
17700SOL     OW57946   6.954   4.653   2.197  0.2542 -0.3540  0.1750
17700SOL    HW157947   6.950   4.641   2.102 -0.3858 -1.6852  0.3503
17700SOL    HW257948   7.018   4.588   2.227  0.9344  0.4931  0.6062
17701SOL     OW57949   7.795   5.029   3.993  0.0546  0.3903  0.3164
17701SOL    HW157950   7.864   4.985   4.044  1.3372 -0.7474 -2.2079
17701SOL    HW257951   7.840   5.103   3.951  0.1597 -1.0721 -2.3309
17702SOL     OW57952   4.630   0.127   2.418  0.0649 -0.0575 -0.0294
17702SOL    HW157953   4.648   0.033   2.418  0.4620  0.0149  0.3777
17702SOL    HW257954   4.535   0.133   2.427  0.1561 -0.4102  1.4288
17703SOL     OW57955   4.927   8.089   8.825 -0.8339 -0.5404 -0.0267
17703SOL    HW157956   4.938   8.005   8.870  1.7103  0.6146  1.7305
17703SOL    HW257957   4.945   8.069   8.733 -1.3656 -2.1108  0.1775
17704SOL     OW57958   4.755   4.206   0.881  0.4924 -0.2922 -0.2795
17704SOL    HW157959   4.831   4.149   0.876  0.7637  0.0518 -0.1010
17704SOL    HW257960   4.720   4.193   0.969  1.0100  0.3901  0.0359
17705SOL     OW57961   1.031   9.419   8.809  0.6511  0.2072 -0.1396
17705SOL    HW157962   0.973   9.454   8.877  1.4383 -0.5420  0.9506
17705SOL    HW257963   1.107   9.477   8.811 -1.1290  3.0567 -3.6090
17706SOL     OW57964   8.466   2.633   8.532  0.2686 -0.1518  0.0896
17706SOL    HW157965   8.502   2.707   8.581 -0.8356  0.7444 -0.3993
17706SOL    HW257966   8.533   2.614   8.466  0.8516 -0.0193  0.6355
17707SOL     OW57967   5.277   1.311   5.004 -0.6451  0.2498  0.5722
17707SOL    HW157968   5.281   1.361   5.086  0.7755 -0.3581  0.9117
17707SOL    HW257969   5.185   1.311   4.981 -0.9322  1.3874  1.5806
17708SOL     OW57970   8.595   6.224   4.188  0.5415 -0.3907  0.0680
17708SOL    HW157971   8.534   6.153   4.205  1.6184 -1.3646 -0.0716
17708SOL    HW257972   8.545   6.303   4.211 -1.3905 -0.9876 -1.7133
17709SOL     OW57973   5.298   9.237   3.076  0.9619  0.7174  0.2075
17709SOL    HW157974   5.279   9.314   3.131 -0.1062  0.9999 -0.5145
17709SOL    HW257975   5.233   9.242   3.005  1.1503 -0.6243 -0.0879
17710SOL     OW57976   8.746   2.788   6.429  0.0300  0.4761  0.3136
17710SOL    HW157977   8.676   2.845   6.460 -1.7826 -0.3146 -1.9979
17710SOL    HW257978   8.744   2.713   6.488 -0.5676  0.7944  0.7042
17711SOL     OW57979   7.138   2.186   6.724  0.2972 -0.1096 -0.3154
17711SOL    HW157980   7.131   2.231   6.640 -1.4991  0.2630 -0.0170
17711SOL    HW257981   7.100   2.248   6.787  2.2476 -0.0839  0.9216
17712SOL     OW57982   3.367   3.484   0.929 -0.2250 -0.2238 -0.3387
17712SOL    HW157983   3.338   3.556   0.984  0.8784  0.6932 -0.8989
17712SOL    HW257984   3.384   3.412   0.989 -1.9219 -0.2372  0.1670
17713SOL     OW57985   0.459   8.007   9.457  0.5948  1.0240 -0.8303
17713SOL    HW157986   0.542   7.975   9.492  0.9275 -1.4322 -3.4702
17713SOL    HW257987   0.465   8.102   9.464  3.2374  0.8932 -0.1142
17714SOL     OW57988   0.692   6.015   4.288 -0.2758  0.1236  0.7681
17714SOL    HW157989   0.689   5.919   4.296  1.8520 -0.0757 -0.2644
17714SOL    HW257990   0.781   6.039   4.313  0.2975  1.4439 -2.1245
17715SOL     OW57991   8.484   5.522   0.236  0.8603  0.5510  0.3861
17715SOL    HW157992   8.415   5.588   0.247 -0.2055  0.1084 -2.6755
17715SOL    HW257993   8.561   5.573   0.210  1.0405  0.8360  1.4298
17716SOL     OW57994   3.759   2.104   4.509  0.4635  0.6867  0.3851
17716SOL    HW157995   3.844   2.069   4.535  0.8501  0.3634 -1.2388
17716SOL    HW257996   3.773   2.198   4.500  1.0428  0.4852 -1.1847
17717SOL     OW57997   5.018   4.840   9.130  0.0318  0.0775  0.0284
17717SOL    HW157998   5.041   4.919   9.080 -0.5782  0.3645  0.1902
17717SOL    HW257999   4.957   4.871   9.197 -3.9381 -1.1294 -2.6672
17718SOL     OW58000   9.270   1.741   4.402 -0.3809 -0.3487 -0.4476
17718SOL    HW158001   9.254   1.746   4.307 -2.6267  0.1290 -0.0963
17718SOL    HW258002   9.253   1.829   4.434 -2.2850 -1.0819  0.7123
17719SOL     OW58003   1.935   8.932   0.915  0.6580  0.0255 -0.2906
17719SOL    HW158004   1.956   8.928   0.822 -1.9304  1.6150 -1.0566
17719SOL    HW258005   1.997   8.996   0.950  2.7936 -1.8347 -0.4655
17720SOL     OW58006   5.606   9.727   6.287  0.6045  0.1760 -0.9996
17720SOL    HW158007   5.536   9.789   6.304 -0.1378 -0.4514 -1.7287
17720SOL    HW258008   5.635   9.700   6.374 -1.7095 -1.3773 -0.6190
17721SOL     OW58009   9.571   9.124   8.886  0.4919  0.5952  0.1641
17721SOL    HW158010   9.646   9.084   8.929  0.9835  0.6947 -0.5848
17721SOL    HW258011   9.540   9.190   8.948  2.0459  1.6999 -0.1842
17722SOL     OW58012   2.235   2.090   2.281  0.1795  0.0539  0.1700
17722SOL    HW158013   2.184   2.084   2.200 -0.6304  0.1109  0.6644
17722SOL    HW258014   2.256   1.999   2.302  0.2162  0.0232 -0.0001
17723SOL     OW58015   2.271   2.691   3.212 -0.3554 -0.4652 -0.1473
17723SOL    HW158016   2.352   2.658   3.171 -0.4923 -0.4036 -0.4687
17723SOL    HW258017   2.258   2.634   3.288  0.0352 -0.4250 -0.0485
17724SOL     OW58018   4.411   7.439   9.056 -0.0813 -0.4971 -0.3840
17724SOL    HW158019   4.381   7.359   9.012  0.5444 -0.4358 -0.9257
17724SOL    HW258020   4.459   7.408   9.132  1.3523 -0.7015 -1.3279
17725SOL     OW58021   0.673   5.804   9.047 -0.0583  0.1516  0.1115
17725SOL    HW158022   0.584   5.837   9.039 -0.7417 -1.5582  0.2901
17725SOL    HW258023   0.707   5.806   8.957 -0.2206  0.9168  0.0610
17726SOL     OW58024   3.247   2.778   3.397 -0.6548  0.0287  0.4066
17726SOL    HW158025   3.194   2.768   3.318 -0.6622  0.5828  0.3353
17726SOL    HW258026   3.207   2.852   3.443 -1.2171 -0.8422  1.3886
17727SOL     OW58027   8.530   0.819   7.324  0.2017 -0.0351 -0.4259
17727SOL    HW158028   8.616   0.860   7.325  0.2942 -0.1388 -1.6410
17727SOL    HW258029   8.526   0.775   7.239  0.0008 -2.3196  0.6915
17728SOL     OW58030   7.474   4.048   6.141 -0.4686  0.4271  0.2701
17728SOL    HW158031   7.526   4.127   6.154 -1.9073  1.4043  0.2984
17728SOL    HW258032   7.473   4.006   6.227  0.3737  0.3236  0.2362
17729SOL     OW58033   2.338   9.118   7.854  0.4627 -1.0184  0.0327
17729SOL    HW158034   2.293   9.042   7.817  2.4340 -2.0356 -0.4156
17729SOL    HW258035   2.392   9.151   7.782  0.5747  0.0502  0.5948
17730SOL     OW58036   8.102   2.400   2.158  0.2543 -0.0170 -0.4626
17730SOL    HW158037   8.051   2.440   2.228  2.4826 -0.3555  1.4814
17730SOL    HW258038   8.077   2.449   2.080 -1.8342  0.8265  0.6469
17731SOL     OW58039   3.042   2.778   5.666  0.1216  0.1017  0.3299
17731SOL    HW158040   2.964   2.730   5.693 -1.1878  0.9909 -1.6403
17731SOL    HW258041   3.074   2.731   5.590  0.9046  0.3271  0.5145
17732SOL     OW58042   3.855   9.055   3.364 -0.6153 -0.0175 -0.5204
17732SOL    HW158043   3.839   8.961   3.372 -0.2696 -0.3305 -2.7730
17732SOL    HW258044   3.951   9.063   3.367 -0.6684  0.6161  2.1597
17733SOL     OW58045   8.544   5.975   4.306  0.5045 -0.3508 -0.2716
17733SOL    HW158046   8.451   5.999   4.309  0.1551 -1.6310 -0.0035
17733SOL    HW258047   8.558   5.926   4.386  1.8524  1.1956  0.4823
17734SOL     OW58048   8.043   4.965   0.055 -0.7172  0.2349  0.2542
17734SOL    HW158049   8.059   5.015  -0.025 -1.1000 -0.5606 -0.3308
17734SOL    HW258050   8.075   4.877   0.035 -2.5287 -0.4670  0.3004
17735SOL     OW58051   1.307   6.553   0.622  0.0433 -0.4253 -0.3742
17735SOL    HW158052   1.345   6.616   0.682  0.0831 -1.4189  0.6813
17735SOL    HW258053   1.222   6.532   0.660 -0.2666 -0.4835 -1.0873
17736SOL     OW58054   6.529   8.856   9.701 -0.2710  0.6069 -0.0716
17736SOL    HW158055   6.549   8.808   9.781 -2.1957 -2.3209 -1.1562
17736SOL    HW258056   6.614   8.890   9.672  0.9218 -0.5318  1.8219
17737SOL     OW58057   5.278   7.548   9.571  0.3762  0.0313  0.0650
17737SOL    HW158058   5.317   7.635   9.572 -0.0045  0.2039  1.0204
17737SOL    HW258059   5.264   7.529   9.479 -1.3304  1.8018 -0.1028
17738SOL     OW58060   0.201   8.507   1.025  0.4861  0.3203 -0.0775
17738SOL    HW158061   0.234   8.541   0.942  1.0206 -1.0538 -0.4446
17738SOL    HW258062   0.243   8.422   1.035  0.1040  0.2758  1.4040
17739SOL     OW58063   4.299   6.828   2.000  0.5915 -0.4914  0.3281
17739SOL    HW158064   4.206   6.844   1.987  1.0011  1.9794 -0.0407
17739SOL    HW258065   4.315   6.849   2.092  1.0251  0.6145  0.0175
17740SOL     OW58066   2.362   4.087   5.568  0.4609  0.4575  0.1522
17740SOL    HW158067   2.453   4.072   5.542  0.7171 -0.5599  1.4999
17740SOL    HW258068   2.367   4.112   5.661 -0.6718 -0.5785  0.5275
17741SOL     OW58069   0.655   6.158   1.506  0.0092  0.3855  0.1754
17741SOL    HW158070   0.602   6.184   1.581 -0.4125 -0.2349  0.0947
17741SOL    HW258071   0.593   6.121   1.444  0.2627  1.4898 -0.7709
17742SOL     OW58072   2.378   4.094   3.535 -0.3179 -0.3272  0.2404
17742SOL    HW158073   2.454   4.102   3.593  0.1992 -2.0448 -0.1220
17742SOL    HW258074   2.303   4.090   3.594 -0.2714  2.2666  0.5723
17743SOL     OW58075   2.112   6.960   7.043 -0.1141  0.0127  0.3736
17743SOL    HW158076   2.111   6.904   7.121 -1.1866 -0.4220  0.0527
17743SOL    HW258077   2.167   6.913   6.981 -0.3016 -0.2641  0.4147
17744SOL     OW58078   9.005   8.087   5.327 -0.3075  0.7605 -0.1976
17744SOL    HW158079   8.992   7.995   5.351  0.1225  0.6822 -0.2434
17744SOL    HW258080   8.920   8.128   5.341 -0.2508  0.5727  0.8258
17745SOL     OW58081   2.183   3.823   4.027 -0.3080 -0.0732  0.0815
17745SOL    HW158082   2.187   3.734   3.992  0.8596  0.3383 -0.9257
17745SOL    HW258083   2.140   3.874   3.959 -1.4463  0.0642  0.8723
17746SOL     OW58084   6.404   7.282   5.185 -0.0653  0.0056 -0.0291
17746SOL    HW158085   6.385   7.188   5.187 -1.0175  0.1421 -1.3390
17746SOL    HW258086   6.490   7.289   5.143  0.1790 -0.2950  0.4168
17747SOL     OW58087   1.296   9.113   8.831  0.0803  0.6533  0.4684
17747SOL    HW158088   1.265   9.115   8.922  1.4027 -0.3017  0.9722
17747SOL    HW258089   1.366   9.179   8.828 -1.9559  2.9378 -0.7087
17748SOL     OW58090   5.746   3.920   8.970 -0.1768  0.6319 -0.2020
17748SOL    HW158091   5.709   3.903   8.884  0.2137 -1.2116 -0.0408
17748SOL    HW258092   5.840   3.902   8.960  0.1157  1.7296  0.2957
17749SOL     OW58093   6.286   3.293   8.956 -0.1123  0.0199  0.0577
17749SOL    HW158094   6.233   3.299   9.036  1.0216  0.9836  0.7694
17749SOL    HW258095   6.277   3.201   8.929 -2.1444  0.1530  0.1230
17750SOL     OW58096   2.787   7.729   4.956  0.6372 -0.6550 -0.1891
17750SOL    HW158097   2.763   7.796   4.892  0.0867  0.0741  0.7696
17750SOL    HW258098   2.879   7.745   4.974 -0.0744  1.5031  1.9294
17751SOL     OW58099   7.181   3.483   1.102  0.4734 -0.0253  0.5584
17751SOL    HW158100   7.134   3.543   1.044  0.1704 -2.4585 -1.9529
17751SOL    HW258101   7.205   3.536   1.178 -2.1105  2.5362 -0.2204
17752SOL     OW58102   4.880   5.191   8.099  0.1776  0.2847 -0.6617
17752SOL    HW158103   4.965   5.234   8.099 -0.0527  1.2800  3.9526
17752SOL    HW258104   4.818   5.262   8.080  0.2307  0.1519 -1.3356
17753SOL     OW58105   5.269   1.280   3.736  0.1419 -0.1680  0.0854
17753SOL    HW158106   5.350   1.318   3.770 -0.5873 -0.3927  2.1813
17753SOL    HW258107   5.299   1.218   3.668  1.5673  1.1231 -0.5388
17754SOL     OW58108   1.523   2.917   5.993 -0.4806 -0.0669  0.0924
17754SOL    HW158109   1.603   2.873   6.022 -1.3615 -1.7601  0.0493
17754SOL    HW258110   1.457   2.892   6.057 -1.0220  1.2716  0.0956
17755SOL     OW58111   4.100   5.018   1.584 -0.4997 -0.1682 -0.8330
17755SOL    HW158112   4.117   5.028   1.677  0.1544 -0.2408 -0.9408
17755SOL    HW258113   4.080   4.925   1.572 -1.2017 -0.0432 -0.6736
17756SOL     OW58114   6.877   7.673   0.057 -0.0285  0.4809  0.0761
17756SOL    HW158115   6.935   7.740   0.092 -0.7588  1.8785 -1.2587
17756SOL    HW258116   6.817   7.653   0.129  0.6309  0.7535  0.7096
17757SOL     OW58117   7.694   6.151   9.707 -0.1040  0.0399 -0.2764
17757SOL    HW158118   7.614   6.184   9.749  0.4953  0.2361  0.7398
17757SOL    HW258119   7.662   6.083   9.647 -0.9430 -0.9120  1.1718
17758SOL     OW58120   7.901   7.654   9.346 -0.1370  0.6097 -1.3172
17758SOL    HW158121   7.820   7.705   9.345 -0.1321  0.6256 -2.3957
17758SOL    HW258122   7.908   7.621   9.436 -0.0493  2.6232 -0.5482
17759SOL     OW58123   1.587   1.809   7.872  0.3906 -0.0147 -0.4260
17759SOL    HW158124   1.518   1.861   7.913  0.0303 -1.1626  0.4785
17759SOL    HW258125   1.655   1.872   7.850 -0.4914  0.9897 -0.3586
17760SOL     OW58126   5.580   4.253   7.306  0.0931 -0.1785  0.2421
17760SOL    HW158127   5.521   4.326   7.325 -0.3162 -0.5172  0.2859
17760SOL    HW258128   5.626   4.280   7.227 -0.9404 -0.3844 -0.4559
17761SOL     OW58129   5.608   2.375   0.333  0.2088  0.1926 -0.3029
17761SOL    HW158130   5.589   2.323   0.255  0.1704  1.0510 -0.8825
17761SOL    HW258131   5.552   2.339   0.401  0.8170 -1.0808 -0.4585
17762SOL     OW58132   9.142   0.178   6.025 -0.2193 -0.3843  0.2453
17762SOL    HW158133   9.182   0.227   5.953  0.9465 -0.8919  0.5251
17762SOL    HW258134   9.179   0.218   6.104  2.6178 -3.0942  0.4736
17763SOL     OW58135   8.222   6.173   3.106  0.5036 -0.5184 -0.1786
17763SOL    HW158136   8.297   6.127   3.070  1.2458 -0.6379  1.4289
17763SOL    HW258137   8.228   6.261   3.071 -0.1744 -1.2221 -2.2170
17764SOL     OW58138   7.123   2.528   5.935 -0.2609  0.4680 -0.3229
17764SOL    HW158139   7.116   2.437   5.904  0.5824  0.1506  0.3790
17764SOL    HW258140   7.049   2.539   5.994  0.7055 -0.4155  1.1200
17765SOL     OW58141   5.377   0.188   1.956 -0.1976 -0.4284  0.0396
17765SOL    HW158142   5.426   0.124   1.904  2.8075  1.7602 -0.1156
17765SOL    HW258143   5.386   0.270   1.907  2.0085  1.5574  3.3522
17766SOL     OW58144   4.014   4.793   5.803 -0.0881  0.2587  0.4503
17766SOL    HW158145   3.925   4.772   5.831  0.1992  0.1353  1.2987
17766SOL    HW258146   4.027   4.883   5.833  0.6625 -0.2980  1.8564
17767SOL     OW58147   7.374   3.586   4.609 -0.2020  0.0596  0.0831
17767SOL    HW158148   7.460   3.611   4.643  1.0744 -2.1935 -1.2367
17767SOL    HW258149   7.335   3.532   4.678  0.6143 -1.0766 -0.3079
17768SOL     OW58150   8.908   3.669   6.884  0.0630  0.0791 -0.7163
17768SOL    HW158151   8.916   3.758   6.916 -1.2803  0.4702 -1.3925
17768SOL    HW258152   8.857   3.677   6.804 -0.9561 -1.3973 -0.2540
17769SOL     OW58153   7.254   2.625   6.165 -0.0476  0.2341  0.1313
17769SOL    HW158154   7.219   2.589   6.083 -0.6330 -0.7342  0.7778
17769SOL    HW258155   7.266   2.718   6.147  0.8284 -0.1282 -1.3846
17770SOL     OW58156   2.207   2.451   5.164 -0.1014 -0.0374 -0.4021
17770SOL    HW158157   2.224   2.369   5.118 -0.2667 -0.2838 -0.0336
17770SOL    HW258158   2.263   2.446   5.242 -1.6053 -0.7231  0.6706
17771SOL     OW58159   1.584   0.125   4.948 -0.2253 -0.6298 -0.5593
17771SOL    HW158160   1.512   0.188   4.953 -0.9300 -1.3218 -1.5319
17771SOL    HW258161   1.663   0.177   4.961 -0.9202 -0.0114  1.6551
17772SOL     OW58162   5.745   3.360   1.751 -0.0808 -0.0353 -0.3698
17772SOL    HW158163   5.820   3.311   1.717 -1.3032 -2.0364 -0.3495
17772SOL    HW258164   5.759   3.363   1.846 -0.0165 -0.3394 -0.3708
17773SOL     OW58165   4.487   7.642   5.850 -0.3982 -0.0067  0.5093
17773SOL    HW158166   4.512   7.639   5.942 -0.5946 -0.2842  0.5547
17773SOL    HW258167   4.434   7.564   5.837 -1.1670  0.5291  0.3910
17774SOL     OW58168   4.845   0.353   1.893  0.2564  0.6142 -0.2382
17774SOL    HW158169   4.786   0.350   1.968 -1.2076  1.4962 -1.2906
17774SOL    HW258170   4.834   0.268   1.850  1.1399  0.0849  0.5215
17775SOL     OW58171   8.917   3.156   7.128  0.1849  0.7788  0.3403
17775SOL    HW158172   9.006   3.128   7.148 -0.0285  1.7289  3.0043
17775SOL    HW258173   8.926   3.249   7.108 -0.0503  0.5345 -0.9975
17776SOL     OW58174   6.983   9.418   5.200 -0.4072  0.0657  0.4531
17776SOL    HW158175   6.954   9.499   5.242  0.8995  1.0682 -0.4864
17776SOL    HW258176   7.076   9.412   5.222 -0.2977 -0.7473 -0.1902
17777SOL     OW58177   5.023   8.919   6.373 -0.1832  0.8686 -0.3149
17777SOL    HW158178   5.066   8.835   6.388 -0.9406  0.6878  0.9277
17777SOL    HW258179   5.094   8.982   6.369  0.2572  0.5002  1.2112
17778SOL     OW58180   2.716   3.122   5.596 -0.0123 -0.1512  0.1803
17778SOL    HW158181   2.640   3.162   5.638  0.8020  0.9854  0.6202
17778SOL    HW258182   2.787   3.132   5.659  0.8149 -0.0380 -0.7391
17779SOL     OW58183   7.719   3.166   1.602  0.8062 -0.0391  0.1297
17779SOL    HW158184   7.678   3.103   1.542  0.5576 -0.4335  0.7058
17779SOL    HW258185   7.691   3.138   1.689 -2.4642  3.0214  0.3024
17780SOL     OW58186   8.687   2.852   4.939 -0.0317  0.3287  0.0064
17780SOL    HW158187   8.643   2.855   5.024 -0.2589 -0.2375 -0.0874
17780SOL    HW258188   8.656   2.772   4.898  0.4831  0.3255 -0.3966
17781SOL     OW58189   9.284   0.016   0.450  0.0045  0.0320  0.3098
17781SOL    HW158190   9.241   0.084   0.502  0.2976 -0.0934  0.7219
17781SOL    HW258191   9.370   0.052   0.430 -0.4702  0.5165 -0.9913
17782SOL     OW58192   3.963   6.780   3.078  0.4890 -0.2186  0.9075
17782SOL    HW158193   4.050   6.821   3.069  0.3987 -0.0664  0.7134
17782SOL    HW258194   3.919   6.800   2.995  0.8956 -1.7759  0.2710
17783SOL     OW58195   3.553   8.272   6.026 -0.4675  0.5355 -0.1983
17783SOL    HW158196   3.612   8.206   6.061 -1.0518 -0.0371 -0.2692
17783SOL    HW258197   3.591   8.297   5.941 -0.7524 -0.4204 -0.6160
17784SOL     OW58198   4.003   7.565   9.053 -1.4967  0.0781 -0.0225
17784SOL    HW158199   4.031   7.531   9.138 -0.8796 -0.1678 -0.3226
17784SOL    HW258200   4.050   7.512   8.989 -1.6590  0.5211 -0.5134
17785SOL     OW58201   4.816   2.848   5.039 -0.0391  1.1217 -0.3946
17785SOL    HW158202   4.853   2.779   4.984 -0.3276  0.1011  0.6522
17785SOL    HW258203   4.874   2.922   5.026  0.8136  0.3976 -0.8540
17786SOL     OW58204   7.266   5.820   3.533 -0.2734  0.1283 -0.6091
17786SOL    HW158205   7.229   5.748   3.482 -3.2405  0.3541  0.9985
17786SOL    HW258206   7.280   5.783   3.620  0.1798  0.9528 -0.3246
17787SOL     OW58207   9.282   5.672   1.069 -0.1578  0.4957  0.1047
17787SOL    HW158208   9.249   5.651   1.156  0.4859  1.0678  0.5056
17787SOL    HW258209   9.306   5.765   1.075  1.3636  0.1589 -0.1773
17788SOL     OW58210   8.601   8.282   6.268  0.6142  0.1502  0.1111
17788SOL    HW158211   8.511   8.267   6.297  0.4142  2.4206  0.8772
17788SOL    HW258212   8.646   8.199   6.285 -1.0386 -0.6489  0.8490
17789SOL     OW58213   2.784   3.819   0.235  0.6329 -0.7484 -0.0227
17789SOL    HW158214   2.762   3.742   0.182 -1.1657  1.3844 -2.5941
17789SOL    HW258215   2.812   3.782   0.319 -1.7724 -4.1574 -0.5121
17790SOL     OW58216   6.545   6.841   7.668 -0.3160  0.1499 -0.0174
17790SOL    HW158217   6.527   6.782   7.741 -1.4393  0.0300 -0.3790
17790SOL    HW258218   6.510   6.796   7.591  2.8486 -0.7908 -1.0657
17791SOL     OW58219   2.563   0.408   0.835  0.1126 -0.1115 -0.4495
17791SOL    HW158220   2.476   0.404   0.875  0.4649 -1.7479  0.2081
17791SOL    HW258221   2.548   0.383   0.743 -0.0465 -0.9635 -0.1999
17792SOL     OW58222   4.467   2.326   3.301  0.3250 -0.3326  0.4730
17792SOL    HW158223   4.425   2.388   3.361  2.4324 -0.3167  2.0435
17792SOL    HW258224   4.432   2.241   3.327 -0.3640 -0.1207  0.2708
17793SOL     OW58225   2.268   4.574   8.086  0.4223 -0.1199  0.5911
17793SOL    HW158226   2.240   4.615   8.004 -2.0423 -0.8311  0.9740
17793SOL    HW258227   2.283   4.482   8.063 -0.8896 -0.4610  1.0005
17794SOL     OW58228   3.443   9.393   4.695  0.2553  0.2766  0.3207
17794SOL    HW158229   3.491   9.456   4.748  3.0864 -1.9030  0.5961
17794SOL    HW258230   3.511   9.351   4.641 -1.5900 -1.9339 -0.4249
17795SOL     OW58231   3.138   5.964   4.348  0.4583 -0.1385  0.4041
17795SOL    HW158232   3.122   6.059   4.342 -1.4752 -0.4799 -0.5035
17795SOL    HW258233   3.060   5.924   4.310 -0.1795 -2.1706  3.4456
17796SOL     OW58234   5.610   0.869   5.853  0.4138  0.5948  0.3860
17796SOL    HW158235   5.563   0.952   5.860  2.6935  2.0194 -0.2018
17796SOL    HW258236   5.612   0.850   5.760  1.6973  1.0167  0.3084
17797SOL     OW58237   2.262   5.882   9.599  0.6320  0.1677 -0.1325
17797SOL    HW158238   2.172   5.892   9.570  0.5869  1.3654  0.3441
17797SOL    HW258239   2.290   5.799   9.562 -0.8232 -0.4727  0.1313
17798SOL     OW58240   4.390   4.860   1.332 -0.0131 -0.0131  0.1424
17798SOL    HW158241   4.372   4.804   1.256  0.4036 -0.4295  0.3406
17798SOL    HW258242   4.485   4.864   1.337 -0.0225 -0.4318  0.9500
17799SOL     OW58243   5.764   9.263   6.187 -0.0486  0.4895  0.4425
17799SOL    HW158244   5.725   9.175   6.191  0.5680  0.1242 -1.0066
17799SOL    HW258245   5.695   9.318   6.150  0.6381 -0.1129 -1.9105
17800SOL     OW58246   8.359   7.566   6.707  0.0679  0.2863 -0.0900
17800SOL    HW158247   8.289   7.612   6.662  0.0302 -0.9358 -1.3542
17800SOL    HW258248   8.348   7.589   6.799 -0.6528  1.8143 -0.5280
17801SOL     OW58249   1.597   0.919   0.912  0.2918  0.1779  0.6334
17801SOL    HW158250   1.584   0.843   0.856  0.1478  0.0443  0.8452
17801SOL    HW258251   1.521   0.920   0.970  0.1369  0.6611  0.4309
17802SOL     OW58252   2.175   2.289   0.718  0.6166  0.1681 -0.1772
17802SOL    HW158253   2.149   2.324   0.632  1.5333 -0.1121 -0.5747
17802SOL    HW258254   2.122   2.338   0.780 -0.2351  0.2186 -0.9146
17803SOL     OW58255   3.997   8.409   7.954  0.4783  0.5311 -0.1696
17803SOL    HW158256   3.996   8.359   7.872 -1.2855 -0.6763  0.5244
17803SOL    HW258257   4.079   8.458   7.951  1.7056 -1.4465 -1.4915
17804SOL     OW58258   7.563   4.969   4.143 -0.1670  0.1116 -0.2974
17804SOL    HW158259   7.652   5.002   4.126 -0.4933  1.0425 -0.2903
17804SOL    HW258260   7.506   5.030   4.096 -0.9647  1.2266  1.9334
17805SOL     OW58261   9.702   8.036   5.036  0.2901  1.0614 -0.3712
17805SOL    HW158262   9.712   8.088   5.115  1.8699 -1.2715  1.0796
17805SOL    HW258263   9.719   7.945   5.063  0.8898  0.1412 -3.3422
17806SOL     OW58264   4.703   7.391   8.595 -1.2739  0.0821 -0.1216
17806SOL    HW158265   4.764   7.421   8.528  0.3102 -1.0131  0.7490
17806SOL    HW258266   4.729   7.439   8.674 -0.5926 -1.3821  0.5886
17807SOL     OW58267   9.634   0.570   7.578  0.3815  0.1887  0.2964
17807SOL    HW158268   9.590   0.630   7.638  1.5791  0.2030  1.1873
17807SOL    HW258269   9.564   0.515   7.544 -0.2987  0.0083  1.9048
17808SOL     OW58270   8.876   2.113   6.184  0.0825  0.5077 -0.2498
17808SOL    HW158271   8.846   2.166   6.110 -0.4750  0.7947  0.1807
17808SOL    HW258272   8.972   2.115   6.178  0.0625 -0.8648 -1.9638
17809SOL     OW58273   4.141   5.768   4.049 -0.1612 -0.0035 -0.5970
17809SOL    HW158274   4.224   5.815   4.040  2.4457 -3.7858  0.9082
17809SOL    HW258275   4.120   5.775   4.142 -1.5066  0.7716 -0.9359
17810SOL     OW58276   9.016   3.690   7.580 -0.5714  0.4694 -0.4827
17810SOL    HW158277   8.983   3.671   7.668  1.0335  0.2252  0.1004
17810SOL    HW258278   8.995   3.612   7.529  0.0331 -0.1296  0.1615
17811SOL     OW58279   7.252   3.670   3.471 -0.6747 -0.4640 -0.0209
17811SOL    HW158280   7.195   3.728   3.421 -1.7571 -2.2596 -0.9655
17811SOL    HW258281   7.215   3.671   3.559 -0.5035  0.4745  0.0555
17812SOL     OW58282   5.161   0.448   9.153 -0.0601  0.0951 -0.0216
17812SOL    HW158283   5.139   0.463   9.245  2.2918 -1.2200  0.8400
17812SOL    HW258284   5.162   0.353   9.144  1.9401  0.1472 -0.7704
17813SOL     OW58285   5.250   5.957   3.457 -0.1570 -0.5832  0.2290
17813SOL    HW158286   5.270   6.050   3.448 -3.8026  0.5782  2.2276
17813SOL    HW258287   5.292   5.932   3.540 -1.2326  0.0377  0.9925
17814SOL     OW58288   8.083   7.961   2.418 -0.3397 -1.0183 -0.0612
17814SOL    HW158289   8.000   7.926   2.450  0.2662 -3.0761 -0.5554
17814SOL    HW258290   8.071   7.966   2.323 -0.3059 -0.1457 -0.0228
17815SOL     OW58291   4.121   0.093   8.488  0.4963  1.1894 -0.4697
17815SOL    HW158292   4.148   0.184   8.499 -0.1902  1.2726  0.6905
17815SOL    HW258293   4.057   0.094   8.417 -0.8838  1.9145  0.7427
17816SOL     OW58294   6.818   6.512   5.614 -0.0814  0.3651  0.2349
17816SOL    HW158295   6.910   6.494   5.600 -0.4890 -1.4618 -0.2429
17816SOL    HW258296   6.811   6.607   5.606  1.7106  0.5180  0.1153
17817SOL     OW58297   9.129   9.134   6.061  0.2685 -0.5681 -0.0834
17817SOL    HW158298   9.053   9.191   6.047 -0.0727 -0.7628  0.9036
17817SOL    HW258299   9.186   9.152   5.987  0.7016  1.9258  0.7675
17818SOL     OW58300   4.258   2.295   2.739  0.1602  0.1915 -0.8975
17818SOL    HW158301   4.279   2.303   2.832 -0.5246  1.3717 -0.8240
17818SOL    HW258302   4.185   2.234   2.735  0.9416 -0.7651 -0.7789
17819SOL     OW58303   9.190   2.455   8.887  0.1571  0.0222  0.3783
17819SOL    HW158304   9.121   2.492   8.832  0.3881 -0.5630 -0.3185
17819SOL    HW258305   9.143   2.414   8.960 -0.1625  0.5887  0.4970
17820SOL     OW58306   9.373   4.376   4.120  0.1537  0.0373  0.2112
17820SOL    HW158307   9.465   4.350   4.116  0.1192 -0.1809  0.7426
17820SOL    HW258308   9.363   4.442   4.051  0.9893  0.9478  0.9378
17821SOL     OW58309   3.975   9.634   5.052  0.0389  0.5743 -0.1061
17821SOL    HW158310   3.899   9.615   4.997  1.9891 -1.5599 -2.2763
17821SOL    HW258311   3.992   9.552   5.099  1.0689  0.9779  0.2529
17822SOL     OW58312   3.766   2.301   8.518 -0.1372 -0.1864 -0.0481
17822SOL    HW158313   3.775   2.394   8.538 -1.2927  0.1663 -1.0154
17822SOL    HW258314   3.781   2.257   8.602  0.9084  0.8285  0.3181
17823SOL     OW58315   8.526   9.180   3.110 -0.0008  0.0696  0.1902
17823SOL    HW158316   8.536   9.212   3.199 -0.3631  3.0845 -0.7294
17823SOL    HW258317   8.579   9.240   3.057 -0.6639 -0.9466 -1.7171
17824SOL     OW58318   8.793   8.066   2.083 -0.2497 -0.0900  0.1939
17824SOL    HW158319   8.737   8.128   2.036 -0.0322  0.0007  0.0513
17824SOL    HW258320   8.860   8.041   2.019  1.0263  1.2771  0.9257
17825SOL     OW58321   1.044   4.104   6.805 -0.4467 -0.4951  0.1033
17825SOL    HW158322   1.095   4.117   6.885 -0.9347 -0.7564  0.4659
17825SOL    HW258323   1.081   4.025   6.765 -0.0140 -0.2015 -0.0833
17826SOL     OW58324   5.674   5.805   5.471  0.6219 -0.3179 -0.3273
17826SOL    HW158325   5.635   5.872   5.414 -1.3610 -1.4783 -0.4341
17826SOL    HW258326   5.630   5.817   5.555  0.9410 -0.8756 -0.0810
17827SOL     OW58327   9.119   2.011   4.064 -0.4772  0.1947 -0.2716
17827SOL    HW158328   9.155   2.097   4.045 -3.7186  1.6604 -0.4991
17827SOL    HW258329   9.075   1.985   3.983 -2.5188  0.0085  0.8176
17828SOL     OW58330   3.454   1.548   8.915  0.7098 -0.2039 -0.5281
17828SOL    HW158331   3.428   1.640   8.925  0.0905 -0.3615 -0.6399
17828SOL    HW258332   3.445   1.531   8.822 -0.1225 -0.6437 -0.3801
17829SOL     OW58333   3.425   8.062   7.409  0.0869  0.6721  0.1724
17829SOL    HW158334   3.367   8.136   7.387  0.1487  0.9685  0.9785
17829SOL    HW258335   3.453   8.028   7.324 -1.0168  0.7201 -0.2312
17830SOL     OW58336   8.385   8.623   9.364  0.2151  0.7348 -0.0881
17830SOL    HW158337   8.329   8.555   9.327 -0.5099  1.6528 -0.7241
17830SOL    HW258338   8.470   8.610   9.321 -0.4077  1.3114 -1.5671
17831SOL     OW58339   3.320   4.497   4.013 -0.4997 -0.2515  0.3691
17831SOL    HW158340   3.273   4.572   3.979  0.5486 -0.4580 -1.6721
17831SOL    HW258341   3.334   4.440   3.938  0.5609 -1.5065  1.4498
17832SOL     OW58342   1.917   5.170   3.353 -0.2063 -0.4895 -0.1980
17832SOL    HW158343   1.921   5.090   3.406 -0.7441 -0.0923  0.4696
17832SOL    HW258344   1.828   5.203   3.367  0.3886  0.9002  0.5562
17833SOL     OW58345   6.896   6.147   0.074  0.1939 -0.3386  0.0921
17833SOL    HW158346   6.874   6.070   0.021  0.2104 -0.4716  0.2766
17833SOL    HW258347   6.830   6.213   0.050  0.3706 -0.3046 -0.2963
17834SOL     OW58348   3.375   4.582   3.124  0.3147  0.4225  0.1713
17834SOL    HW158349   3.344   4.537   3.045  0.5769  0.2475  0.1684
17834SOL    HW258350   3.444   4.526   3.158 -0.5459 -0.0793  1.1524
17835SOL     OW58351   3.434   0.937   0.028 -0.7707 -0.0392  0.0227
17835SOL    HW158352   3.434   0.887  -0.053  1.1977 -0.9324  0.4928
17835SOL    HW258353   3.526   0.959   0.043 -1.3795  2.4778  0.6338
17836SOL     OW58354   7.244   5.613   2.837  0.1404  0.1695 -0.9605
17836SOL    HW158355   7.183   5.639   2.768 -0.6393 -0.4300 -0.5264
17836SOL    HW258356   7.253   5.691   2.893  1.7009  1.0386 -2.3508
17837SOL     OW58357   2.168   8.956   6.797  0.3181 -0.2740 -0.0706
17837SOL    HW158358   2.256   8.949   6.833 -0.0092 -1.5014  0.5594
17837SOL    HW258359   2.130   8.869   6.810 -0.8129  0.0904 -0.7851
17838SOL     OW58360   7.493   7.822   3.830  0.1504  0.5653 -0.0912
17838SOL    HW158361   7.458   7.869   3.754  1.9724  0.9304 -0.7549
17838SOL    HW258362   7.425   7.758   3.852 -1.4982  2.1047 -0.4526
17839SOL     OW58363   8.650   7.529   5.147 -0.6117 -0.0269 -0.8094
17839SOL    HW158364   8.717   7.596   5.160 -1.4673  1.4841 -3.3366
17839SOL    HW258365   8.697   7.446   5.151  1.9615  0.9996 -4.3179
17840SOL     OW58366   2.991   1.394   5.483  0.5147  0.3780  0.0152
17840SOL    HW158367   3.005   1.470   5.428 -0.1032 -0.9281 -2.0556
17840SOL    HW258368   2.897   1.376   5.476  0.7719 -1.0060 -0.1413
17841SOL     OW58369   4.771   0.449   1.078  0.6892 -0.6038 -0.1794
17841SOL    HW158370   4.755   0.354   1.077 -0.7146 -0.4007 -0.3205
17841SOL    HW258371   4.703   0.484   1.020  0.2807  0.6029  0.9898
17842SOL     OW58372   2.873   5.363   6.275  0.0628  0.3315  0.0682
17842SOL    HW158373   2.849   5.354   6.183 -1.6538  1.6529  0.3525
17842SOL    HW258374   2.799   5.407   6.315  0.1322 -1.4695  2.4045
17843SOL     OW58375   9.429   5.986   3.190  0.6889 -0.2133 -0.2827
17843SOL    HW158376   9.353   5.955   3.141  1.5250  0.2715 -1.9876
17843SOL    HW258377   9.395   6.013   3.274 -0.8040 -1.2551 -0.5210
17844SOL     OW58378   9.082   0.122   2.066  0.0233 -0.2414  0.2482
17844SOL    HW158379   9.025   0.104   1.991  0.9558 -0.6241 -0.3790
17844SOL    HW258380   9.052   0.061   2.134  0.1537 -0.9525 -0.3249
17845SOL     OW58381   1.657   7.491   0.578  0.0518  0.1478  0.5086
17845SOL    HW158382   1.574   7.485   0.531 -1.0150 -0.7941  2.3851
17845SOL    HW258383   1.692   7.577   0.554 -0.5986 -0.1139 -1.6308
17846SOL     OW58384   1.878   0.859   6.305  0.5324 -0.5627 -0.0197
17846SOL    HW158385   1.860   0.892   6.393 -1.3142 -0.7575 -0.2691
17846SOL    HW258386   1.816   0.786   6.294  0.3221 -0.1732 -1.6799
17847SOL     OW58387   5.560   9.474   6.134  0.1582  0.6585  0.1211
17847SOL    HW158388   5.472   9.479   6.096  0.2984  0.6266 -0.2126
17847SOL    HW258389   5.579   9.564   6.161  0.6466  0.9822 -1.2453
17848SOL     OW58390   5.523   5.609   0.001 -0.7461 -0.4319 -0.4314
17848SOL    HW158391   5.612   5.641  -0.011 -1.0648  1.5433  1.7317
17848SOL    HW258392   5.519   5.584   0.094 -2.2755 -1.0593 -0.6392
17849SOL     OW58393   1.951   8.878   2.966 -0.2231  0.1218 -0.0473
17849SOL    HW158394   1.997   8.961   2.980 -1.6294  1.1932 -1.2996
17849SOL    HW258395   2.020   8.813   2.954  0.9180  1.1559  0.7766
17850SOL     OW58396   4.369   3.829   4.646 -0.1997 -0.4065  0.5085
17850SOL    HW158397   4.416   3.793   4.570  0.0243  0.2442  0.3362
17850SOL    HW258398   4.388   3.768   4.716  2.5508  0.8247  0.9726
17851SOL     OW58399   0.255   2.920   6.710  0.8421  0.0008 -0.3983
17851SOL    HW158400   0.161   2.936   6.720  0.5907 -1.8595  0.4903
17851SOL    HW258401   0.269   2.917   6.615 -0.2821 -1.1747 -0.5485
17852SOL     OW58402   0.750   4.663   1.401  0.1544 -0.1062  0.0443
17852SOL    HW158403   0.773   4.684   1.492  2.0379  0.8289 -0.5814
17852SOL    HW258404   0.664   4.702   1.388  0.0089  0.0459  1.3297
17853SOL     OW58405   6.553   5.669   8.925  0.0162  0.2534 -0.1201
17853SOL    HW158406   6.489   5.618   8.974  1.1654 -1.0798  0.0620
17853SOL    HW258407   6.512   5.754   8.912 -1.2065 -0.1035  1.2170
17854SOL     OW58408   6.582   9.653   4.196 -0.0487  0.0534 -0.7165
17854SOL    HW158409   6.632   9.577   4.167  0.7799  0.2743  0.1049
17854SOL    HW258410   6.599   9.659   4.290 -2.1413 -0.2407 -0.2837
17855SOL     OW58411   5.929   9.232   2.986 -0.0887  0.2561  0.1195
17855SOL    HW158412   5.911   9.288   2.911 -1.2067  0.1924  0.3165
17855SOL    HW258413   6.012   9.264   3.021  0.2430  0.5365 -0.8993
17856SOL     OW58414   4.187   7.181   2.769  0.3751 -0.0807  0.0209
17856SOL    HW158415   4.189   7.269   2.733 -2.7420  0.0871 -0.0366
17856SOL    HW258416   4.137   7.130   2.705 -1.0351 -0.9468  1.7046
17857SOL     OW58417   5.075   0.173   2.569  0.1466  0.2282  0.5305
17857SOL    HW158418   5.121   0.177   2.653  0.4106 -0.2409  0.4147
17857SOL    HW258419   5.107   0.249   2.520 -0.4745  0.8534  1.0838
17858SOL     OW58420   7.204   6.846   3.828 -0.0828  0.3967 -0.3105
17858SOL    HW158421   7.130   6.809   3.875  0.6559  0.8660  1.2743
17858SOL    HW258422   7.164   6.894   3.755 -1.3113  0.3752  0.3210
17859SOL     OW58423   7.572   2.098   1.111 -0.4711  0.4584 -0.0844
17859SOL    HW158424   7.566   2.132   1.022 -1.4361 -0.0111 -0.2079
17859SOL    HW258425   7.483   2.103   1.145 -0.0617  0.8833  0.9504
17860SOL     OW58426   3.978   6.935   1.682  0.2659  0.5990 -0.1655
17860SOL    HW158427   3.990   6.983   1.600 -0.2347  0.2295 -0.4696
17860SOL    HW258428   4.001   6.844   1.660 -0.2994  0.4141 -0.0260
17861SOL     OW58429   4.810   5.383   8.502 -0.0908  0.2329 -0.0967
17861SOL    HW158430   4.876   5.356   8.438 -1.7644  2.1894 -2.8733
17861SOL    HW258431   4.748   5.310   8.505  0.2781 -0.0896 -0.3184
17862SOL     OW58432   8.421   4.073   2.670  0.4914 -0.4193 -0.5492
17862SOL    HW158433   8.352   4.138   2.682  0.2548 -0.6792 -0.4849
17862SOL    HW258434   8.375   3.996   2.638  0.5897 -0.9402  0.5087
17863SOL     OW58435   1.170   2.536   7.968 -0.3647  0.2612 -0.1946
17863SOL    HW158436   1.167   2.494   7.882  1.0059  2.5558 -1.4683
17863SOL    HW258437   1.262   2.560   7.979 -0.4229 -0.3902  2.1619
17864SOL     OW58438   6.870   3.560   4.829  0.0908 -0.2545  0.3036
17864SOL    HW158439   6.788   3.587   4.788 -1.0524 -2.5339  0.8644
17864SOL    HW258440   6.842   3.518   4.911  1.6989 -1.9167  0.0778
17865SOL     OW58441   9.354   6.757   0.388 -0.7609 -0.4443 -0.1537
17865SOL    HW158442   9.304   6.805   0.321 -0.5923  1.8164  1.2585
17865SOL    HW258443   9.407   6.824   0.431  0.0330 -2.0403  1.4654
17866SOL     OW58444   6.232   2.716   9.631 -0.0091  0.1548  0.4509
17866SOL    HW158445   6.242   2.754   9.719  0.6854 -1.0460  0.9113
17866SOL    HW258446   6.258   2.786   9.572 -0.7849  1.0914  1.1764
17867SOL     OW58447   1.964   2.161   4.409  0.0281 -0.3637 -0.2436
17867SOL    HW158448   1.972   2.073   4.446  3.0195 -0.3344 -0.5507
17867SOL    HW258449   1.964   2.219   4.485  2.4278 -0.4981 -0.0476
17868SOL     OW58450   5.054   3.430   2.677 -0.0392 -0.0372  0.7062
17868SOL    HW158451   5.098   3.419   2.762  1.5566 -3.1577 -0.3350
17868SOL    HW258452   4.967   3.392   2.690  0.5357 -1.3869  0.7647
17869SOL     OW58453   5.224   1.793   9.679  0.0680  0.0935 -0.1848
17869SOL    HW158454   5.255   1.704   9.659 -1.0149 -0.3313 -0.0311
17869SOL    HW258455   5.145   1.780   9.732 -1.4192  1.1001 -2.0251
17870SOL     OW58456   1.247   0.567   4.975  0.8981 -0.2699 -0.2771
17870SOL    HW158457   1.253   0.639   4.912 -2.2539  1.1121  0.7862
17870SOL    HW258458   1.327   0.574   5.027  1.3175  1.6474 -1.0759
17871SOL     OW58459   4.027   5.329   1.777 -0.0002  0.0676  0.2822
17871SOL    HW158460   3.956   5.389   1.800 -0.9299 -1.4974  1.7540
17871SOL    HW258461   3.997   5.287   1.696 -1.0878 -1.0156  1.2086
17872SOL     OW58462   4.316   9.590   2.835 -0.4204  0.4821  0.6776
17872SOL    HW158463   4.281   9.501   2.838  1.1357 -0.2723 -1.0965
17872SOL    HW258464   4.337   9.611   2.926 -2.6252 -0.1549  1.3852
17873SOL     OW58465   1.259   5.384   1.084 -0.2647  0.4848 -0.2347
17873SOL    HW158466   1.343   5.429   1.074  0.8237 -1.7698 -1.8528
17873SOL    HW258467   1.280   5.301   1.127 -1.6854 -0.0642 -0.5324
17874SOL     OW58468   2.996   2.329   6.967  0.1715  0.6816  0.1626
17874SOL    HW158469   2.963   2.249   6.926 -0.6642  0.2407  1.6112
17874SOL    HW258470   2.998   2.394   6.897 -2.5824  0.3773 -0.3239
17875SOL     OW58471   2.223   9.157   9.184  0.6071  0.3844 -0.0279
17875SOL    HW158472   2.185   9.136   9.270  0.1377 -0.4766 -0.4360
17875SOL    HW258473   2.296   9.095   9.175  1.1371  0.9838  0.0687
17876SOL     OW58474   6.373   7.635   0.524 -0.3339  0.0057 -0.3398
17876SOL    HW158475   6.299   7.576   0.511 -0.4808  0.0729  0.1709
17876SOL    HW258476   6.348   7.715   0.477 -0.5712  0.0134 -0.2039
17877SOL     OW58477   5.297   5.667   0.768 -0.3030  0.2256  0.0562
17877SOL    HW158478   5.389   5.686   0.751 -1.0864  2.5594 -2.2365
17877SOL    HW258479   5.273   5.605   0.700  0.1768 -2.9738  2.5306
17878SOL     OW58480   3.532   4.236   0.711 -0.2147  0.0640 -0.1028
17878SOL    HW158481   3.611   4.226   0.659 -0.5251  0.4207 -0.6531
17878SOL    HW258482   3.563   4.245   0.801  0.2434 -2.5971  0.0801
17879SOL     OW58483   2.245   0.561   4.525  0.3717 -0.3831  0.6335
17879SOL    HW158484   2.336   0.531   4.527  0.1003 -1.3366 -0.3784
17879SOL    HW258485   2.217   0.545   4.435  0.2701  3.2337 -0.1201
17880SOL     OW58486   7.733   8.831   5.178  0.3348  0.5689 -0.2225
17880SOL    HW158487   7.826   8.812   5.167  0.2234 -1.8219  1.9601
17880SOL    HW258488   7.697   8.830   5.089  1.8146 -2.3462 -0.9142
17881SOL     OW58489   2.839   4.469   2.036  0.0939  0.5910  0.2869
17881SOL    HW158490   2.851   4.445   2.128  0.4427  2.6115  0.8267
17881SOL    HW258491   2.813   4.561   2.038  0.6979  0.8620 -1.6683
17882SOL     OW58492   0.819   3.354   4.101 -0.2954  0.0766  0.0415
17882SOL    HW158493   0.731   3.344   4.139 -0.1439  1.3567  0.8235
17882SOL    HW258494   0.878   3.349   4.176  0.0898  1.6758 -0.1080
17883SOL     OW58495   8.869   3.317   3.488  0.5892  0.0103  0.0843
17883SOL    HW158496   8.930   3.321   3.563  0.2103 -1.9145  0.5502
17883SOL    HW258497   8.878   3.403   3.446  1.6227  0.7617  1.6966
17884SOL     OW58498   4.370   9.148   5.831 -0.4821 -0.6359 -0.0418
17884SOL    HW158499   4.343   9.128   5.920 -1.6038  1.5433  0.1770
17884SOL    HW258500   4.309   9.099   5.775  0.5707 -2.4493  0.3069
17885SOL     OW58501   7.186   3.780   6.960 -0.4979  0.7875  0.1459
17885SOL    HW158502   7.179   3.717   6.888  1.4400  0.0315  0.5513
17885SOL    HW258503   7.149   3.861   6.925  1.0469  0.6613 -2.0022
17886SOL     OW58504   3.833   9.320   8.185 -0.2792  0.0734  0.2315
17886SOL    HW158505   3.906   9.368   8.222  1.5988 -1.5201 -1.1640
17886SOL    HW258506   3.814   9.363   8.102  0.3836 -0.6155 -0.2961
17887SOL     OW58507   9.634   1.996   3.606  0.1477 -0.7743 -0.5192
17887SOL    HW158508   9.541   2.015   3.596  0.0616 -1.4478 -1.0895
17887SOL    HW258509   9.675   2.034   3.529  0.3690 -0.3952 -0.2221
17888SOL     OW58510   6.942   7.419   7.387 -0.1922 -0.1516  0.2559
17888SOL    HW158511   6.960   7.423   7.481  2.1927 -1.1040 -0.0863
17888SOL    HW258512   6.961   7.328   7.363 -0.7209  0.0890 -1.1639
17889SOL     OW58513   3.335   2.420   9.423 -0.5682  0.1040  0.5319
17889SOL    HW158514   3.428   2.409   9.403 -0.6144  1.7172 -0.7565
17889SOL    HW258515   3.333   2.471   9.504 -0.3275  0.5371  0.2659
17890SOL     OW58516   7.217   8.477   5.737 -0.5066  0.3583  0.4573
17890SOL    HW158517   7.156   8.546   5.764 -1.6552 -0.3859 -0.1550
17890SOL    HW258518   7.229   8.490   5.643  1.1065  1.1164  0.7513
17891SOL     OW58519   0.135   5.370   0.672  0.4446 -0.2624 -0.9910
17891SOL    HW158520   0.209   5.352   0.728  0.4414  0.3138 -0.7904
17891SOL    HW258521   0.058   5.345   0.724  0.3627  1.4451 -0.2101
17892SOL     OW58522   5.676   6.959   6.979  0.1659  0.0052  0.7907
17892SOL    HW158523   5.770   6.948   6.994  0.3629  0.9896  0.3843
17892SOL    HW258524   5.667   7.051   6.954 -0.7836 -0.3102 -0.0855
17893SOL     OW58525   2.722   9.185   8.078 -0.6792  0.4248  0.2831
17893SOL    HW158526   2.629   9.202   8.095 -0.8666 -1.3934  1.3131
17893SOL    HW258527   2.728   9.090   8.069  0.9506  0.5891 -0.7473
17894SOL     OW58528   0.438   5.253   8.083 -0.4874 -0.5529  0.5467
17894SOL    HW158529   0.400   5.316   8.022  0.1727 -0.2968  0.3968
17894SOL    HW258530   0.412   5.286   8.170  0.7045  0.5215  0.5296
17895SOL     OW58531   7.143   4.828   0.746 -0.3601  0.4313 -0.1927
17895SOL    HW158532   7.134   4.811   0.840  1.1765  0.8744  0.0605
17895SOL    HW258533   7.233   4.857   0.736 -0.7259  1.1022 -1.7142
17896SOL     OW58534   2.099   7.250   6.189 -1.0052  0.1739  0.4682
17896SOL    HW158535   2.122   7.179   6.249  0.1236  0.3801  0.3079
17896SOL    HW258536   2.006   7.264   6.203 -1.6165 -2.2883 -0.4912
17897SOL     OW58537   4.983   8.831   6.674  0.0040  0.3839 -0.5475
17897SOL    HW158538   4.968   8.759   6.735  1.8456  1.3417  1.1481
17897SOL    HW258539   5.045   8.796   6.610  0.8457  0.4240  0.2345
17898SOL     OW58540   5.415   1.929   6.168  0.3400 -0.3698 -0.1430
17898SOL    HW158541   5.450   1.868   6.233 -0.6280  1.0490  1.8431
17898SOL    HW258542   5.320   1.920   6.176  0.2001  0.3632 -0.8642
17899SOL     OW58543   4.757   8.929   4.018 -0.0153 -0.3982 -0.1412
17899SOL    HW158544   4.672   8.937   3.976  0.1708  0.0283 -0.4424
17899SOL    HW258545   4.819   8.966   3.956  0.1677  0.9930  0.8121
17900SOL     OW58546   8.591   4.832   6.142  0.8238 -0.3255  0.0666
17900SOL    HW158547   8.521   4.768   6.153 -0.4228  0.6298 -1.7102
17900SOL    HW258548   8.636   4.834   6.226 -2.7436  0.6919  2.1607
17901SOL     OW58549   5.418   6.123   8.427 -0.5114  0.1801 -0.2346
17901SOL    HW158550   5.401   6.069   8.350  1.0619  0.1993 -0.6384
17901SOL    HW258551   5.498   6.087   8.465 -1.3966  0.0066  1.5820
17902SOL     OW58552   7.517   2.075   6.466  0.7764 -0.0116  0.0591
17902SOL    HW158553   7.591   2.050   6.522  1.5753  0.9140 -0.5544
17902SOL    HW258554   7.492   2.162   6.497  0.2582 -0.1050 -0.0800
17903SOL     OW58555   0.488   8.201   7.786  0.1667  0.1698  0.1818
17903SOL    HW158556   0.467   8.117   7.745 -0.0555  0.5760 -0.5693
17903SOL    HW258557   0.456   8.266   7.723  1.4129  0.8181  0.1953
17904SOL     OW58558   7.275   2.488   9.134 -0.0816 -0.1614 -0.0471
17904SOL    HW158559   7.199   2.514   9.082 -0.8440  2.4922  2.1720
17904SOL    HW258560   7.284   2.394   9.116 -2.8512 -0.2525 -1.6495
17905SOL     OW58561   0.382   0.516   5.153 -0.2739  0.4373  0.0752
17905SOL    HW158562   0.379   0.437   5.098 -0.1511  0.4293  0.0800
17905SOL    HW258563   0.434   0.489   5.229  0.9012  0.9086 -0.5328
17906SOL     OW58564   6.718   2.612   1.556  0.2353 -0.0952 -0.2231
17906SOL    HW158565   6.622   2.610   1.556  0.1529 -0.5383 -2.8242
17906SOL    HW258566   6.743   2.521   1.542  0.9128  0.3166 -1.8813
17907SOL     OW58567   6.079   6.595   3.698 -0.3685 -0.9047 -0.1047
17907SOL    HW158568   6.082   6.551   3.613  0.3316 -1.2186  0.0747
17907SOL    HW258569   6.082   6.524   3.762 -0.8035 -0.6651  0.1806
17908SOL     OW58570   5.207   8.755   9.742 -0.1724  0.7366  0.5383
17908SOL    HW158571   5.261   8.783   9.816  0.0619  0.3067  0.5323
17908SOL    HW258572   5.258   8.780   9.664  0.5972 -0.7403  0.5314
17909SOL     OW58573   0.054   8.916   2.329  0.5236 -0.0180  0.0204
17909SOL    HW158574  -0.031   8.954   2.304  0.1461 -0.6654  0.2891
17909SOL    HW258575   0.119   8.971   2.285 -0.0590  0.1016 -0.7176
17910SOL     OW58576   6.834   2.730   9.701 -0.7286 -0.3289 -0.1773
17910SOL    HW158577   6.839   2.727   9.606  1.0074  2.1680 -0.2410
17910SOL    HW258578   6.921   2.756   9.729 -1.1483 -1.1861  2.1422
17911SOL     OW58579   5.592   2.358   3.338 -0.1752  0.0968 -0.0487
17911SOL    HW158580   5.544   2.398   3.265  0.4036  0.3615 -0.2898
17911SOL    HW258581   5.550   2.272   3.349  0.0926 -0.1831 -1.0743
17912SOL     OW58582   3.140   0.815   4.327 -0.0669  1.0077 -0.4701
17912SOL    HW158583   3.172   0.783   4.243 -1.2642  0.1287 -0.6174
17912SOL    HW258584   3.056   0.771   4.339  0.2205  0.8752  1.3282
17913SOL     OW58585   3.406   5.655   7.962  0.0856  0.0535 -0.3981
17913SOL    HW158586   3.412   5.619   7.874  0.3114 -0.0648 -0.3343
17913SOL    HW258587   3.314   5.641   7.987  0.2791 -0.9178 -0.1849
17914SOL     OW58588   7.681   8.999   2.554  0.2350 -0.0164 -0.4014
17914SOL    HW158589   7.739   9.074   2.569 -1.1677  0.6527  2.1771
17914SOL    HW258590   7.597   9.024   2.592 -0.2378 -2.9642  0.8102
17915SOL     OW58591   5.241   5.247   6.831  0.0263 -0.2428  0.5048
17915SOL    HW158592   5.284   5.313   6.776 -1.2904  1.1400  1.0844
17915SOL    HW258593   5.297   5.170   6.822  0.6253  0.3517 -1.6635
17916SOL     OW58594   5.675   2.567   0.801 -0.0442 -0.6916  0.1168
17916SOL    HW158595   5.629   2.554   0.884 -1.1146 -2.4106 -0.7169
17916SOL    HW258596   5.607   2.591   0.738  0.6768  0.0022 -0.4346
17917SOL     OW58597   7.432   0.349   2.830  0.0244  0.0740 -0.2453
17917SOL    HW158598   7.452   0.406   2.756 -1.6475 -0.4771 -1.1821
17917SOL    HW258599   7.517   0.327   2.868  0.7426  3.4073  0.3777
17918SOL     OW58600   4.765   1.557   6.685  0.5151 -0.2642  0.1506
17918SOL    HW158601   4.679   1.576   6.723  1.0575  2.1232  0.2898
17918SOL    HW258602   4.826   1.564   6.758  1.2988  2.2695 -0.6396
17919SOL     OW58603   9.484   0.940   5.151  0.5917 -0.1148  0.6030
17919SOL    HW158604   9.465   0.898   5.067 -0.5762 -0.4408  1.0016
17919SOL    HW258605   9.428   1.018   5.151  1.9541  0.8926  0.3213
17920SOL     OW58606   1.732   5.569   7.699  0.2589 -0.0895  0.3719
17920SOL    HW158607   1.717   5.506   7.628  2.3407 -0.8133  0.5014
17920SOL    HW258608   1.727   5.517   7.779 -0.8748  0.4978  0.7083
17921SOL     OW58609   6.959   6.671   8.194 -0.9204 -0.6408 -0.3183
17921SOL    HW158610   7.030   6.736   8.197 -0.4207 -1.2012  1.1261
17921SOL    HW258611   6.961   6.637   8.105  0.0527 -0.0182 -0.5535
17922SOL     OW58612   3.112   7.769   3.149 -0.1110 -0.0640 -0.1090
17922SOL    HW158613   3.024   7.801   3.128  0.2129  1.2052  0.3875
17922SOL    HW258614   3.101   7.674   3.160 -1.0765 -0.1838 -1.7611
17923SOL     OW58615   3.328   6.345   2.089  0.0634 -0.5329  0.1710
17923SOL    HW158616   3.283   6.292   2.154  3.1030 -1.1857  1.9371
17923SOL    HW258617   3.319   6.296   2.007 -0.3418 -1.8549  0.9755
17924SOL     OW58618   3.075   8.720   7.945 -0.3409 -0.2309 -0.7446
17924SOL    HW158619   3.021   8.774   7.887  0.4741  0.4967 -0.8428
17924SOL    HW258620   3.019   8.645   7.967 -2.2417  1.5126  0.8581
17925SOL     OW58621   1.423   0.282   4.517 -0.4469 -0.7936  0.3338
17925SOL    HW158622   1.501   0.261   4.464 -0.7382 -0.3186 -0.3081
17925SOL    HW258623   1.364   0.208   4.503 -1.0233 -0.1187 -1.0292
17926SOL     OW58624   3.026   2.173   3.151 -0.7337 -0.4325  0.6278
17926SOL    HW158625   2.991   2.199   3.066 -0.5212  1.5996  1.1187
17926SOL    HW258626   3.112   2.214   3.156 -0.7076 -0.6001  1.7882
17927SOL     OW58627   3.468   7.765   2.556  0.3299  0.8156 -0.3437
17927SOL    HW158628   3.526   7.841   2.563  0.1445  1.0864 -1.6352
17927SOL    HW258629   3.398   7.783   2.619  0.2355  1.7714 -0.7020
17928SOL     OW58630   0.634   1.975   2.985 -0.2052 -0.4352  0.8829
17928SOL    HW158631   0.649   2.057   2.939 -1.3304  0.0536  1.3625
17928SOL    HW258632   0.685   1.983   3.065  0.8796 -0.8395  0.2592
17929SOL     OW58633   1.737   6.595   7.182  0.8736  0.5413  0.2875
17929SOL    HW158634   1.801   6.525   7.199 -1.7807 -2.1471  0.0516
17929SOL    HW258635   1.761   6.628   7.095  1.8300 -0.5438  0.1049
17930SOL     OW58636   1.042   1.342   8.289 -0.6658  0.9003  0.4471
17930SOL    HW158637   1.121   1.310   8.246 -1.3303 -0.5286  0.2195
17930SOL    HW258638   1.070   1.371   8.375  0.0960  0.3741  0.3788
17931SOL     OW58639   8.564   5.294   6.017 -0.2827 -0.0665 -0.2455
17931SOL    HW158640   8.614   5.374   6.031 -0.2876 -0.2362  0.7926
17931SOL    HW258641   8.489   5.322   5.964  0.3227  0.3877 -0.8836
17932SOL     OW58642   8.390   9.514   2.436 -0.9668 -0.2661  0.0656
17932SOL    HW158643   8.425   9.435   2.477  1.0144  1.1177  1.2066
17932SOL    HW258644   8.301   9.522   2.471 -0.7918 -1.3533  0.8178
17933SOL     OW58645   1.255   4.919   6.512 -0.0804 -0.2237 -0.5749
17933SOL    HW158646   1.260   4.873   6.429 -0.5112 -1.6928  0.1789
17933SOL    HW258647   1.190   4.987   6.498 -0.6734 -0.9097 -1.2456
17934SOL     OW58648   6.046   2.646   0.618  0.2480  0.3828 -0.2731
17934SOL    HW158649   5.995   2.580   0.571  1.2988 -0.3995 -0.3515
17934SOL    HW258650   5.981   2.709   0.650 -0.9520 -1.4472  1.0593
17935SOL     OW58651   0.616   6.592   6.928 -0.5248 -0.6515  0.2431
17935SOL    HW158652   0.615   6.674   6.877  0.6191 -0.6292  0.2431
17935SOL    HW258653   0.582   6.526   6.867 -1.1974 -0.2386  0.1541
17936SOL     OW58654   2.833   0.504   9.017 -0.2844  0.0316 -0.1469
17936SOL    HW158655   2.738   0.502   9.006 -0.1970  0.4540 -1.1364
17936SOL    HW258656   2.862   0.414   8.998 -0.4927 -0.1149  0.2332
17937SOL     OW58657   7.643   9.654   4.425  0.1786  0.0304  0.1852
17937SOL    HW158658   7.596   9.610   4.495  0.9539 -0.5248  0.3564
17937SOL    HW258659   7.584   9.647   4.349 -0.8644  1.0210  0.8511
17938SOL     OW58660   6.691   8.108   9.184 -0.3677  0.1877  0.5740
17938SOL    HW158661   6.612   8.122   9.236  0.2305  1.5754  1.1533
17938SOL    HW258662   6.718   8.019   9.206  0.2571  0.9377  3.2591
17939SOL     OW58663   2.713   0.839   5.353  0.9180  0.0033  0.0275
17939SOL    HW158664   2.774   0.767   5.370  1.1441  0.1714 -0.0579
17939SOL    HW258665   2.741   0.908   5.413  1.6144  0.5363 -0.8736
17940SOL     OW58666   4.284   0.372   2.535  0.0761 -0.0652 -0.5698
17940SOL    HW158667   4.201   0.346   2.576  1.4112 -1.9539  1.1159
17940SOL    HW258668   4.316   0.445   2.588  0.7885 -1.1462  0.5343
17941SOL     OW58669   3.137   7.906   5.048 -0.0930 -0.2227 -0.0714
17941SOL    HW158670   3.218   7.925   5.001 -0.9244 -0.2741 -1.5978
17941SOL    HW258671   3.096   7.836   4.997 -1.1747 -0.0826  0.5764
17942SOL     OW58672   4.587   2.218   2.943 -0.1575  0.3058  0.0535
17942SOL    HW158673   4.607   2.272   2.867 -2.5315 -0.4916 -1.2472
17942SOL    HW258674   4.508   2.259   2.981 -0.7234 -0.9954  0.3183
17943SOL     OW58675   2.620   4.915   4.268  0.7089 -0.4980  0.5768
17943SOL    HW158676   2.683   4.987   4.268  0.9304 -0.6033 -2.3149
17943SOL    HW258677   2.674   4.836   4.273  0.8384 -0.5731 -1.4357
17944SOL     OW58678   7.627   4.762   1.339  0.7826  0.2229  0.2725
17944SOL    HW158679   7.550   4.819   1.336 -1.2277 -2.2444  0.5552
17944SOL    HW258680   7.616   4.711   1.420  3.5273  0.7361  1.0672
17945SOL     OW58681   7.379   4.615   5.418  0.2173  0.0978 -1.2144
17945SOL    HW158682   7.464   4.575   5.401  1.0397  0.4270  1.5241
17945SOL    HW258683   7.383   4.641   5.510 -2.8025  0.2915 -1.0245
17946SOL     OW58684   0.750   2.075   1.868  0.3920 -0.0033  0.2580
17946SOL    HW158685   0.713   2.013   1.931 -2.3067 -1.6376 -2.6337
17946SOL    HW258686   0.735   2.161   1.908 -0.7855 -0.9693  2.0282
17947SOL     OW58687   9.135   0.556   7.229  0.4349 -0.0426  0.1158
17947SOL    HW158688   9.221   0.590   7.204  0.4445 -0.1698 -0.0269
17947SOL    HW258689   9.131   0.470   7.188  0.7846 -0.6047  1.2376
17948SOL     OW58690   4.767   0.982   5.981 -0.3315  0.1490  0.1127
17948SOL    HW158691   4.711   0.941   5.915 -1.5672 -0.0850  1.2736
17948SOL    HW258692   4.789   1.068   5.944 -0.3447 -0.2840 -0.9375
17949SOL     OW58693   4.761   2.376   7.969  0.1792 -0.1034  0.0590
17949SOL    HW158694   4.778   2.397   8.061 -1.1766  2.7468 -0.2496
17949SOL    HW258695   4.728   2.286   7.971 -0.4443  0.1033  2.4373
17950SOL     OW58696   4.804   4.245   5.782  0.6698  0.2611  0.3888
17950SOL    HW158697   4.833   4.328   5.819  0.4183  0.3366  0.4220
17950SOL    HW258698   4.863   4.180   5.818  2.6208  0.7328 -1.6985
17951SOL     OW58699   0.055   0.966   2.699 -0.3532  0.1653  0.3279
17951SOL    HW158700   0.056   1.057   2.728  0.2602  0.2376  0.0994
17951SOL    HW258701   0.093   0.969   2.611  0.1546 -0.3798  0.5256
17952SOL     OW58702   9.554   8.136   2.644  0.0378 -0.9758 -0.3178
17952SOL    HW158703   9.542   8.229   2.621  2.6910 -0.5467 -0.3349
17952SOL    HW258704   9.565   8.092   2.559  1.5944 -0.7744 -0.2586
17953SOL     OW58705   0.483   5.946   2.762  0.1699  0.2780 -0.2420
17953SOL    HW158706   0.541   5.936   2.838 -0.6802 -0.6929  0.3135
17953SOL    HW258707   0.542   5.961   2.688  0.9971  1.8488  0.6924
17954SOL     OW58708   2.746   0.862   9.587  0.1608 -0.5639  0.1160
17954SOL    HW158709   2.837   0.844   9.611 -0.1996 -0.9795  1.1910
17954SOL    HW258710   2.694   0.807   9.644 -0.8305  0.9204  0.7125
17955SOL     OW58711   7.182   6.483   4.251  0.2255 -0.8346 -0.2632
17955SOL    HW158712   7.184   6.523   4.338  1.2257 -2.3343  0.4458
17955SOL    HW258713   7.127   6.405   4.262 -1.8976  0.3371 -1.6756
17956SOL     OW58714   0.470   0.236   7.987 -0.7511 -0.0468 -0.2957
17956SOL    HW158715   0.374   0.234   7.987 -0.8461  1.4138 -2.2599
17956SOL    HW258716   0.492   0.319   7.945  1.4039 -0.2214  0.3764
17957SOL     OW58717   6.229   1.752   8.338  0.0356  0.1390  0.0654
17957SOL    HW158718   6.145   1.797   8.351 -0.2757 -0.7738  1.4001
17957SOL    HW258719   6.211   1.685   8.273  0.3736  1.5187 -1.5332
17958SOL     OW58720   6.029   6.624   5.571  0.1180 -0.1793 -0.0069
17958SOL    HW158721   6.020   6.563   5.644 -1.5490 -0.1831 -0.1871
17958SOL    HW258722   5.991   6.578   5.496 -2.4383  1.4966  0.1195
17959SOL     OW58723   1.838   3.493   7.584 -0.1320  0.4954  0.5985
17959SOL    HW158724   1.829   3.539   7.667  0.4087 -0.7429  1.3701
17959SOL    HW258725   1.797   3.408   7.599  0.9185 -0.1489 -0.0461
17960SOL     OW58726   6.478   7.100   7.754 -0.2771  0.0471 -0.2554
17960SOL    HW158727   6.425   7.115   7.676  0.3551  2.1156 -0.3588
17960SOL    HW258728   6.525   7.018   7.737 -0.2618  0.3909 -1.9881
17961SOL     OW58729   8.478   8.360   7.745 -0.1885  0.1788 -0.2722
17961SOL    HW158730   8.475   8.448   7.705  1.6215  0.0218 -0.8272
17961SOL    HW258731   8.542   8.368   7.815  1.4232 -1.1306 -1.5289
17962SOL     OW58732   4.888   1.631   2.174  0.0953  0.1744 -0.4650
17962SOL    HW158733   4.866   1.563   2.111  0.4891 -0.0441 -0.3635
17962SOL    HW258734   4.810   1.638   2.229  0.7584 -1.5433  0.7401
17963SOL     OW58735   2.665   3.222   9.623 -0.4495  0.0667 -0.0745
17963SOL    HW158736   2.647   3.316   9.622 -1.7024 -0.1594 -0.1873
17963SOL    HW258737   2.730   3.209   9.554 -1.8183  0.5807 -1.5270
17964SOL     OW58738   9.035   8.820   9.248  0.0315 -0.2559 -0.8109
17964SOL    HW158739   8.958   8.872   9.270  1.0382  0.8658  0.2142
17964SOL    HW258740   9.003   8.729   9.251 -1.8196  0.2311 -2.9409
17965SOL     OW58741   5.779   7.902   8.534  0.2985  0.3169 -0.3633
17965SOL    HW158742   5.691   7.867   8.544  0.8407 -0.8863  0.3624
17965SOL    HW258743   5.798   7.945   8.617 -0.2386  2.1405 -1.1295
17966SOL     OW58744   7.646   2.092   3.159  0.0405 -0.2361 -0.1334
17966SOL    HW158745   7.552   2.106   3.154  0.1296  0.4885  0.0124
17966SOL    HW258746   7.664   2.021   3.098 -0.8131 -1.4994  1.0275
17967SOL     OW58747   2.313   7.042   5.655 -0.3707 -0.5144 -0.3851
17967SOL    HW158748   2.218   7.029   5.646 -0.2669 -1.6558  0.0572
17967SOL    HW258749   2.324   7.138   5.655 -1.8335 -0.2392  2.2691
17968SOL     OW58750   0.009   2.246   9.171  0.3801  0.0467  0.2639
17968SOL    HW158751   0.065   2.319   9.198  1.0970 -0.1429 -0.6648
17968SOL    HW258752  -0.080   2.281   9.173  0.5527  0.4606  1.4123
17969SOL     OW58753   2.144   5.105   7.361 -0.3315  0.1806  0.4386
17969SOL    HW158754   2.225   5.156   7.366 -0.3397  0.2024  0.3464
17969SOL    HW258755   2.170   5.017   7.389 -0.6494  0.6018  2.1724
17970SOL     OW58756   5.802   2.659   6.138 -0.2648  0.5197 -0.0227
17970SOL    HW158757   5.806   2.584   6.078 -0.3417  0.9576 -0.5819
17970SOL    HW258758   5.883   2.707   6.122 -0.7901  1.2519 -0.6068
17971SOL     OW58759   4.852   2.823   3.816 -0.0311  0.0448 -0.2414
17971SOL    HW158760   4.766   2.863   3.799 -0.8842 -0.1888  2.9057
17971SOL    HW258761   4.835   2.729   3.811  0.0832  0.0012  0.1573
17972SOL     OW58762   7.871   2.070   0.590  0.7258  0.2529 -0.6558
17972SOL    HW158763   7.966   2.055   0.594  0.7840  0.2101 -1.7144
17972SOL    HW258764   7.862   2.146   0.532  0.1733  1.1275  0.5466
17973SOL     OW58765   6.517   1.368   0.367  0.1763  0.5069 -0.1866
17973SOL    HW158766   6.599   1.334   0.403  0.5562  1.2579 -0.3316
17973SOL    HW258767   6.505   1.453   0.409 -0.8191  0.1763  0.2423
17974SOL     OW58768   5.773   4.250   3.819  0.0937 -0.0904  0.1931
17974SOL    HW158769   5.781   4.229   3.912  0.7438 -0.1868  0.1215
17974SOL    HW258770   5.809   4.339   3.812  1.2422 -0.5619 -0.1571
17975SOL     OW58771   0.643   7.666   3.888 -0.6830 -0.1411 -0.0239
17975SOL    HW158772   0.678   7.754   3.879 -0.5119 -0.1330  0.6547
17975SOL    HW258773   0.701   7.623   3.951 -1.0980 -0.5485  0.0899
17976SOL     OW58774   6.604   8.992   4.364  0.1532  0.7313 -0.1725
17976SOL    HW158775   6.541   9.016   4.296  0.1597  0.4663 -0.2711
17976SOL    HW258776   6.682   9.043   4.343 -0.2466  1.5738  0.3327
17977SOL     OW58777   0.320   3.987   3.412 -0.2538 -0.1603 -0.4350
17977SOL    HW158778   0.389   3.952   3.467  0.1449  1.7409  0.3605
17977SOL    HW258779   0.365   4.044   3.350 -0.9319 -0.4653 -1.2295
17978SOL     OW58780   6.845   3.709   7.901 -0.1527  0.5183  0.6153
17978SOL    HW158781   6.761   3.711   7.855 -1.3612  0.7092  2.7034
17978SOL    HW258782   6.865   3.616   7.910  0.0079  0.4780 -0.1400
17979SOL     OW58783   5.252   4.870   3.219  0.2141 -0.3389 -0.7098
17979SOL    HW158784   5.233   4.940   3.157 -2.6964 -0.0557  0.3760
17979SOL    HW258785   5.201   4.795   3.189  0.6686 -0.9642  0.0177
17980SOL     OW58786   2.344   6.084   6.131  0.3714 -0.2687  0.3905
17980SOL    HW158787   2.412   6.035   6.085  1.2540  1.5145 -0.3257
17980SOL    HW258788   2.309   6.144   6.065 -0.3781  0.3375  1.3048
17981SOL     OW58789   2.352   5.191   1.806  0.2476 -0.5149  0.1742
17981SOL    HW158790   2.372   5.120   1.745  0.6670 -1.1498  1.0370
17981SOL    HW258791   2.258   5.186   1.819  0.1179 -0.2313 -0.5836
17982SOL     OW58792   0.394   9.541   2.998 -0.6545  0.0725 -0.1130
17982SOL    HW158793   0.307   9.574   2.975 -1.0989  0.4629  1.9087
17982SOL    HW258794   0.384   9.446   3.000 -1.6478  0.1690  2.1130
17983SOL     OW58795   4.805   3.333   4.132 -0.2228 -0.1694  0.0642
17983SOL    HW158796   4.850   3.413   4.107  0.2295  0.0369  1.4351
17983SOL    HW258797   4.874   3.275   4.162 -0.7402 -0.2350  1.1978
17984SOL     OW58798   1.207   5.691   8.304  0.5230  0.3431 -0.5148
17984SOL    HW158799   1.135   5.693   8.241  1.1720  0.3265 -1.2647
17984SOL    HW258800   1.286   5.709   8.252  1.1168 -0.0630  0.2232
17985SOL     OW58801   8.088   0.138   4.771 -0.6319 -0.0605  0.1932
17985SOL    HW158802   8.179   0.142   4.801 -0.2764  0.1646 -0.8867
17985SOL    HW258803   8.093   0.100   4.683 -1.7973 -2.2516  0.9906
17986SOL     OW58804   6.775   9.005   9.172 -0.5716  0.0176  0.0481
17986SOL    HW158805   6.687   8.993   9.135 -0.4657 -1.0376  0.1007
17986SOL    HW258806   6.771   8.961   9.257 -0.2926  0.8854  0.5208
17987SOL     OW58807   3.406   2.242   7.701  0.1019  0.1976  0.7840
17987SOL    HW158808   3.426   2.178   7.632  0.9316  2.2821 -1.0044
17987SOL    HW258809   3.425   2.195   7.783  0.3132 -1.9478 -0.4195
17988SOL     OW58810   7.512   3.984   6.386 -0.2563  0.5178 -0.3070
17988SOL    HW158811   7.605   3.992   6.366  0.1444 -0.4577  1.0084
17988SOL    HW258812   7.510   3.953   6.476 -1.8056 -1.4517 -0.9481
17989SOL     OW58813   8.890   0.347   1.323  0.4664  0.5428 -0.0003
17989SOL    HW158814   8.876   0.273   1.382  1.7722  0.5307  0.3355
17989SOL    HW258815   8.856   0.423   1.371 -0.6192  0.2137 -0.2293
17990SOL     OW58816   7.696   1.068   8.554 -0.3060  0.4788 -0.1294
17990SOL    HW158817   7.769   1.010   8.575 -0.8549 -0.1002  0.2299
17990SOL    HW258818   7.621   1.009   8.545 -0.3395  0.7817 -2.6534
17991SOL     OW58819   2.149   3.407   3.397  0.5769  0.7573  0.1516
17991SOL    HW158820   2.189   3.473   3.340  0.6082  0.6990  0.1066
17991SOL    HW258821   2.223   3.361   3.437  0.5620  0.1440 -0.5095
17992SOL     OW58822   0.051   6.576   8.987  0.0944 -0.0275 -0.0998
17992SOL    HW158823   0.016   6.490   8.962  1.6714 -0.2978 -1.4908
17992SOL    HW258824   0.133   6.557   9.031  0.7827  0.7945 -0.9985
17993SOL     OW58825   0.063   0.186   3.237  0.4854 -0.1798 -0.4803
17993SOL    HW158826   0.063   0.194   3.332  0.0199  0.6658 -0.5442
17993SOL    HW258827   0.017   0.264   3.206  3.4909  1.3726 -1.5248
17994SOL     OW58828   6.097   9.504   8.242 -0.3581 -0.0621  0.3906
17994SOL    HW158829   6.161   9.535   8.179 -1.3300  1.8707  0.2876
17994SOL    HW258830   6.052   9.432   8.198  0.3851 -0.1283 -0.2791
17995SOL     OW58831   4.451   9.645   1.771  0.1841  0.1356 -0.2527
17995SOL    HW158832   4.509   9.628   1.846  2.3121  1.1704 -1.5707
17995SOL    HW258833   4.411   9.560   1.752  0.8681 -0.5032  1.0164
17996SOL     OW58834   0.493   2.833   4.377 -0.1110 -0.2053  0.0336
17996SOL    HW158835   0.510   2.918   4.337 -1.0201 -0.8215 -1.7612
17996SOL    HW258836   0.546   2.772   4.326  0.1826 -0.7824  1.0128
17997SOL     OW58837   1.271   7.848   1.598 -0.7650 -0.0766 -0.1037
17997SOL    HW158838   1.302   7.930   1.561 -2.4603  0.9258  0.6104
17997SOL    HW258839   1.251   7.793   1.522 -1.7938  1.0176 -0.6491
17998SOL     OW58840   9.326   4.342   6.017 -0.3490  0.4476  0.3138
17998SOL    HW158841   9.268   4.337   6.093 -1.0834  0.2997 -0.2446
17998SOL    HW258842   9.269   4.322   5.943  0.0333  1.9756 -0.4326
17999SOL     OW58843   5.037   3.232   6.113 -0.0527  0.1554  0.1532
17999SOL    HW158844   5.086   3.209   6.192  1.8590  0.9705 -0.7250
17999SOL    HW258845   5.101   3.223   6.042 -1.5636 -0.0259 -1.2534
18000SOL     OW58846   7.358   6.022   2.046  0.0642 -0.1483 -0.8828
18000SOL    HW158847   7.410   5.993   2.121 -0.3212  0.3988 -0.3947
18000SOL    HW258848   7.355   6.117   2.053  0.3051 -0.0603 -1.7892
18001SOL     OW58849   2.075   8.657   0.914  0.7155 -0.6734  0.1346
18001SOL    HW158850   2.081   8.567   0.884  1.4721 -1.1802  1.7089
18001SOL    HW258851   1.998   8.658   0.971 -0.3235  0.1201 -1.2170
18002SOL     OW58852   8.166   2.744   0.624  0.3680 -0.1062 -0.2600
18002SOL    HW158853   8.188   2.753   0.531  1.0594  0.6013 -0.0350
18002SOL    HW258854   8.236   2.690   0.660  0.0337 -0.4841 -0.1667
18003SOL     OW58855   7.893   2.880   3.402  0.2993  0.0823 -0.1680
18003SOL    HW158856   7.932   2.953   3.354 -2.6311  1.0593 -1.2981
18003SOL    HW258857   7.921   2.802   3.354  1.7976  0.5935 -0.1795
18004SOL     OW58858   6.396   5.816   6.520 -0.9702 -0.8917 -0.2381
18004SOL    HW158859   6.350   5.785   6.598 -1.2968 -0.9319 -0.4480
18004SOL    HW258860   6.327   5.833   6.456 -0.8190  0.4778 -0.0613
18005SOL     OW58861   6.019   1.288   2.327  0.9382 -0.3602 -0.3430
18005SOL    HW158862   6.058   1.310   2.411  2.3695 -1.8688 -0.5657
18005SOL    HW258863   5.993   1.373   2.289  1.8828  0.4857  0.8330
18006SOL     OW58864   9.620   8.940   6.215  0.2957  0.5970  0.1224
18006SOL    HW158865   9.621   8.986   6.131  0.5148  0.5478  0.0985
18006SOL    HW258866   9.563   8.993   6.270  0.2170  0.6746 -0.0318
18007SOL     OW58867   3.119   6.207   4.587 -0.2383 -0.1029 -0.1980
18007SOL    HW158868   3.153   6.120   4.564 -0.4661 -0.0305 -0.8304
18007SOL    HW258869   3.058   6.228   4.516 -0.3087  0.5047  0.0391
18008SOL     OW58870   9.010   7.677   0.201  0.2300  0.1989 -0.1306
18008SOL    HW158871   9.068   7.683   0.124 -0.6378  1.9760 -0.7162
18008SOL    HW258872   8.937   7.624   0.171  1.4906 -2.0853  0.6230
18009SOL     OW58873   1.830   7.362   7.927 -0.1485  0.2144  0.1956
18009SOL    HW158874   1.834   7.444   7.878 -1.9863  0.9219  1.1102
18009SOL    HW258875   1.918   7.351   7.963  0.5307  0.9886 -1.1700
18010SOL     OW58876   3.911   8.063   2.745  0.3850 -0.2185  0.1522
18010SOL    HW158877   3.873   8.051   2.832  0.6513 -0.9340  0.1805
18010SOL    HW258878   3.980   8.127   2.757 -0.1831  0.3816  0.2841
18011SOL     OW58879   1.758   2.918   8.557 -0.5151  0.5092  0.8709
18011SOL    HW158880   1.743   3.013   8.551  2.5106  0.9645 -1.1086
18011SOL    HW258881   1.822   2.909   8.628  1.2474  0.3146 -0.6761
18012SOL     OW58882   1.030   3.327   6.392 -0.1551  0.0940  0.0008
18012SOL    HW158883   0.972   3.347   6.319  1.1985  1.0068 -0.8693
18012SOL    HW258884   1.100   3.274   6.354  1.1905  1.5501  0.3467
18013SOL     OW58885   6.288   1.965   9.266  0.1892  0.3762  0.1994
18013SOL    HW158886   6.224   2.035   9.278  0.8299  0.8548  0.9011
18013SOL    HW258887   6.351   2.000   9.203  0.9821  0.7766  1.1956
18014SOL     OW58888   0.236   0.816   0.950  0.6215 -0.4801 -0.0897
18014SOL    HW158889   0.183   0.857   1.018 -0.0341 -2.4940  0.6843
18014SOL    HW258890   0.183   0.823   0.871  1.4913  2.0888 -0.5497
18015SOL     OW58891   4.424   9.260   2.850 -0.3746 -0.4388 -0.3666
18015SOL    HW158892   4.404   9.308   2.930 -1.7090 -2.2746  0.4798
18015SOL    HW258893   4.498   9.204   2.873  2.1150  2.0278 -1.7492
18016SOL     OW58894   2.789   6.186   6.928 -0.4345  0.0881 -0.0096
18016SOL    HW158895   2.817   6.210   6.840  0.5582  1.0949  0.5447
18016SOL    HW258896   2.852   6.120   6.957  0.4745  1.1999  0.6511
18017SOL     OW58897   7.517   5.873   9.057 -0.0009  0.5189 -0.0400
18017SOL    HW158898   7.485   5.960   9.036  1.3763  1.4006  1.3441
18017SOL    HW258899   7.521   5.871   9.152 -2.1491 -1.8943  0.1238
18018SOL     OW58900   9.055   2.872   9.186  0.6971 -0.1858 -0.0623
18018SOL    HW158901   9.140   2.852   9.146 -0.3271  0.8795 -2.9849
18018SOL    HW258902   8.993   2.814   9.142 -0.5110  1.0425 -0.0520
18019SOL     OW58903   8.483   3.362   7.905 -0.1931  0.5124 -0.7946
18019SOL    HW158904   8.431   3.377   7.983 -1.1343 -0.9284 -1.1131
18019SOL    HW258905   8.574   3.373   7.934 -0.5526  0.4366  0.3885
18020SOL     OW58906   6.524   2.601   5.928 -0.0395  0.1676  0.1629
18020SOL    HW158907   6.529   2.600   6.024 -0.3660  2.3491  0.2631
18020SOL    HW258908   6.510   2.510   5.903 -0.0588 -0.4277  2.1956
18021SOL     OW58909   2.552   0.079   4.453 -0.6809  0.0011 -0.1374
18021SOL    HW158910   2.567   0.119   4.539 -1.0825  1.6240 -0.7843
18021SOL    HW258911   2.640   0.074   4.414 -0.8356  2.3315 -0.8964
18022SOL     OW58912   3.794   0.814   7.458 -0.7173  0.2076 -0.1372
18022SOL    HW158913   3.715   0.762   7.474 -0.3331 -0.2185  0.3940
18022SOL    HW258914   3.801   0.871   7.534 -1.5150  1.5520 -1.0298
18023SOL     OW58915   4.392   0.964   2.875 -0.0440  0.4911 -0.0273
18023SOL    HW158916   4.459   0.900   2.851 -0.6244 -1.1019  2.2915
18023SOL    HW258917   4.393   1.028   2.803  1.9888 -0.9834 -1.4191
18024SOL     OW58918   4.176   3.757   1.144 -0.0288  0.1975 -0.1354
18024SOL    HW158919   4.125   3.700   1.086  0.6435  0.5183 -1.0804
18024SOL    HW258920   4.176   3.711   1.228 -1.2577 -0.1509 -0.2993
18025SOL     OW58921   3.739   1.413   5.737 -0.0351  0.2331 -0.0318
18025SOL    HW158922   3.804   1.452   5.678 -1.8009  2.7697 -0.4562
18025SOL    HW258923   3.792   1.367   5.803  2.1701  1.5521 -0.7542
18026SOL     OW58924   9.025   8.718   1.688 -0.2375  0.4164  0.3559
18026SOL    HW158925   9.069   8.700   1.605  1.1661  0.6381  1.0279
18026SOL    HW258926   9.052   8.646   1.745 -1.4733  0.0754  0.5289
18027SOL     OW58927   9.498   1.999   9.151 -0.3963 -0.1944 -0.2377
18027SOL    HW158928   9.511   1.910   9.185  0.4514  0.1084  0.2605
18027SOL    HW258929   9.474   2.051   9.228  0.4471  0.2757 -0.2841
18028SOL     OW58930   8.706   9.565   0.549  0.0826 -0.6740 -0.5457
18028SOL    HW158931   8.801   9.572   0.557 -0.1438  0.3501  2.8555
18028SOL    HW258932   8.690   9.476   0.518  2.1038 -0.5725 -2.0775
18029SOL     OW58933   7.525   1.958   2.525 -0.5106  0.0268  0.2384
18029SOL    HW158934   7.550   2.020   2.594  0.3683  0.7027 -0.6651
18029SOL    HW258935   7.443   1.920   2.556 -0.9350  1.4562  0.9308
18030SOL     OW58936   2.720   3.815   3.047  0.2216  0.1827 -0.6135
18030SOL    HW158937   2.633   3.844   3.018 -0.1577 -1.7681 -1.5946
18030SOL    HW258938   2.781   3.864   2.992 -0.1973  1.8587  0.3464
18031SOL     OW58939   7.458   7.891   2.239  0.0415 -0.6279 -0.3869
18031SOL    HW158940   7.383   7.950   2.229  0.2749 -0.2884 -0.1532
18031SOL    HW258941   7.483   7.868   2.150  1.2940  1.3415 -0.5918
18032SOL     OW58942   6.579   2.838   5.231  0.6527 -0.3915 -0.0366
18032SOL    HW158943   6.619   2.923   5.252  1.2572 -0.9909  1.3819
18032SOL    HW258944   6.615   2.778   5.296  1.4498 -2.1209 -1.9665
18033SOL     OW58945   9.189   3.939   5.893  0.0539  0.1679 -0.1186
18033SOL    HW158946   9.211   3.878   5.823 -1.6398  0.4286 -0.9419
18033SOL    HW258947   9.148   3.884   5.960  1.6791 -0.0828  0.7280
18034SOL     OW58948   7.098   0.990   7.242  0.3059 -0.0673  0.0169
18034SOL    HW158949   7.111   0.907   7.196  0.0808 -0.3207  0.4055
18034SOL    HW258950   7.065   0.965   7.328 -2.1962  0.4864 -0.6867
18035SOL     OW58951   7.588   2.901   3.568 -0.1296 -0.0268  0.0417
18035SOL    HW158952   7.629   2.936   3.489  1.3639 -0.6279  0.5158
18035SOL    HW258953   7.499   2.934   3.565 -0.4684 -0.8988 -2.4728
18036SOL     OW58954   1.911   5.490   6.054 -0.1635 -0.1302 -0.2441
18036SOL    HW158955   2.006   5.497   6.062 -0.1731 -0.8742  0.6640
18036SOL    HW258956   1.897   5.466   5.962  0.4669  0.6844 -0.5751
18037SOL     OW58957   7.237   3.092   0.350  0.1264 -0.0084 -0.1382
18037SOL    HW158958   7.331   3.105   0.345  0.1720 -0.1648  0.3279
18037SOL    HW258959   7.224   3.033   0.425 -0.3538  0.1448 -0.0971
18038SOL     OW58960   6.767   8.622   6.863  0.1064  0.2445  0.7808
18038SOL    HW158961   6.711   8.588   6.932  0.0007  0.2588  0.7017
18038SOL    HW258962   6.709   8.671   6.806  0.0066 -0.6264  0.1070
18039SOL     OW58963   1.042   9.098   4.874 -0.3017 -0.2361  0.2867
18039SOL    HW158964   1.024   9.179   4.921 -0.2625 -0.6265  0.9735
18039SOL    HW258965   1.035   9.123   4.781  1.3715  0.9456  0.4242
18040SOL     OW58966   3.345   0.665   4.864  0.7589 -0.1438 -0.1208
18040SOL    HW158967   3.383   0.608   4.930  0.4220  0.2815  0.4496
18040SOL    HW258968   3.386   0.637   4.782 -1.6103 -3.3032 -0.4097
18041SOL     OW58969   9.281   9.305   1.701  0.2620  0.2443  0.0511
18041SOL    HW158970   9.248   9.276   1.616  1.5501 -1.0916 -0.0359
18041SOL    HW258971   9.356   9.361   1.680 -1.9725  3.5744  0.2299
18042SOL     OW58972   2.108   0.757   7.889  0.0535 -0.0147 -0.2742
18042SOL    HW158973   2.155   0.814   7.828 -0.4110 -0.3997 -1.0084
18042SOL    HW258974   2.069   0.689   7.834 -0.6017 -0.2198  0.4164
18043SOL     OW58975   7.625   2.775   7.510 -0.0705  0.4475 -0.2620
18043SOL    HW158976   7.680   2.728   7.447  0.6011  0.4938  0.2762
18043SOL    HW258977   7.593   2.707   7.570 -0.0997  0.5094 -0.2073
18044SOL     OW58978   0.698   2.159   5.668 -0.3088 -0.1756  0.1178
18044SOL    HW158979   0.729   2.249   5.680  0.9283 -0.7425  1.4145
18044SOL    HW258980   0.769   2.116   5.620 -0.8535 -0.4944 -0.4101
18045SOL     OW58981   3.153   4.519   3.614 -0.0890 -0.3739 -0.0649
18045SOL    HW158982   3.107   4.598   3.643  0.0124 -0.7664  1.2453
18045SOL    HW258983   3.162   4.530   3.520  0.7905  1.6374  0.2045
18046SOL     OW58984   7.253   5.646   5.792  0.1595 -0.0119 -0.2017
18046SOL    HW158985   7.169   5.601   5.805  0.3438  0.2112  2.0580
18046SOL    HW258986   7.260   5.654   5.697 -2.5516  0.2942 -0.4664
18047SOL     OW58987   3.290   7.264   7.311  0.0136 -0.0408  0.2318
18047SOL    HW158988   3.261   7.249   7.221 -1.0405  0.9980  0.3702
18047SOL    HW258989   3.327   7.352   7.310 -1.5982  0.6943  1.1456
18048SOL     OW58990   0.388   5.329   8.357  0.0275  0.1831 -0.0428
18048SOL    HW158991   0.305   5.283   8.365  0.1247 -0.0386 -0.2870
18048SOL    HW258992   0.364   5.422   8.353 -0.3795  0.0340 -2.2247
18049SOL     OW58993   4.762   4.990   0.703 -0.5472  0.1040 -0.0183
18049SOL    HW158994   4.838   5.043   0.728  0.2361 -0.8793 -0.2805
18049SOL    HW258995   4.796   4.901   0.695 -2.2808 -0.9537  2.7862
18050SOL     OW58996   7.450   9.002   8.029  0.1960  0.1556  0.0020
18050SOL    HW158997   7.366   9.027   7.989 -0.1363 -0.6493  0.1813
18050SOL    HW258998   7.503   9.081   8.023  0.0204  0.1869 -1.6755
18051SOL     OW58999   1.675   3.609   1.563 -0.0835  0.0856  0.4200
18051SOL    HW159000   1.652   3.681   1.504  1.1878  0.2221  0.0674
18051SOL    HW259001   1.668   3.531   1.509 -1.9347 -0.1358  0.9293
18052SOL     OW59002   8.214   5.712   7.926 -0.2965 -0.8383 -0.7916
18052SOL    HW159003   8.169   5.629   7.936 -1.8308 -0.0889 -1.2455
18052SOL    HW259004   8.294   5.690   7.878 -1.4174 -1.8518 -2.2952
18053SOL     OW59005   7.175   4.282   8.226  0.1816 -0.0583  0.3037
18053SOL    HW159006   7.107   4.232   8.182  0.2978  1.5175 -1.8237
18053SOL    HW259007   7.248   4.283   8.165  0.7252  1.3849  0.9227
18054SOL     OW59008   2.964   8.953   5.114  0.0523  0.3145  0.2345
18054SOL    HW159009   2.996   8.957   5.204 -0.3876 -0.8719  0.4655
18054SOL    HW259010   3.005   8.875   5.077  0.4143  0.9203 -0.6758
18055SOL     OW59011   9.093   7.769   6.464 -0.2031  0.3347  0.4287
18055SOL    HW159012   8.998   7.776   6.459 -0.1682  0.0162 -1.9453
18055SOL    HW259013   9.121   7.763   6.373  2.1628  1.1402  1.0326
18056SOL     OW59014   7.802   6.287   2.745 -0.4248 -0.2474 -0.1208
18056SOL    HW159015   7.706   6.297   2.745 -0.3520  0.8474 -1.6389
18056SOL    HW259016   7.832   6.345   2.815 -0.8303  0.0399 -0.1802
18057SOL     OW59017   8.241   6.672   4.862  0.3351 -0.2997 -0.5261
18057SOL    HW159018   8.175   6.674   4.793  1.4656 -1.1416 -1.6608
18057SOL    HW259019   8.238   6.583   4.897 -0.7052  0.3063  1.0222
18058SOL     OW59020   6.377   7.627   5.017  0.0591  0.2560  0.3404
18058SOL    HW159021   6.461   7.651   5.057  1.1645 -0.6244 -1.3071
18058SOL    HW259022   6.317   7.697   5.042  1.8638  2.1003 -0.2532
18059SOL     OW59023   1.034   5.272   8.794 -0.1774  0.1512 -0.2423
18059SOL    HW159024   0.945   5.246   8.820 -0.6684  0.8504 -1.1504
18059SOL    HW259025   1.082   5.190   8.785 -0.9885 -0.2949 -0.6005
18060SOL     OW59026   6.588   4.689   7.147  0.2015 -0.3322  0.2611
18060SOL    HW159027   6.614   4.680   7.056 -1.5478 -0.4307 -0.2628
18060SOL    HW259028   6.610   4.779   7.170  1.2678 -0.5132 -0.0440
18061SOL     OW59029   5.625   6.943   4.876 -0.7868 -0.6871 -0.6314
18061SOL    HW159030   5.659   6.880   4.939  1.3940 -0.0342 -1.0662
18061SOL    HW259031   5.659   6.914   4.792  0.0575  0.8840 -0.8718
18062SOL     OW59032   0.381   0.075   3.990  0.2997  0.0902 -0.6526
18062SOL    HW159033   0.303   0.033   3.953 -1.5422  2.2720  0.5152
18062SOL    HW259034   0.437   0.090   3.914 -1.4136  0.4462 -1.9223
18063SOL     OW59035   0.810   3.015   0.563  0.8103 -0.3692 -0.1997
18063SOL    HW159036   0.825   3.095   0.614 -0.0194 -1.1924  1.4161
18063SOL    HW259037   0.755   3.043   0.490 -1.0689  0.2825  1.3678
18064SOL     OW59038   8.466   6.439   5.566  0.1801  0.2542  0.7277
18064SOL    HW159039   8.431   6.500   5.502 -0.4572 -1.0087 -0.1711
18064SOL    HW259040   8.541   6.398   5.523 -0.7905 -1.2546  0.3946
18065SOL     OW59041   8.345   8.182   9.304  0.1361  0.4191  0.8850
18065SOL    HW159042   8.256   8.155   9.323  0.6426 -0.4896  2.0977
18065SOL    HW259043   8.371   8.129   9.228 -0.5590  1.1701  0.1082
18066SOL     OW59044   1.708   6.980   0.439  0.1169  0.0942  0.2216
18066SOL    HW159045   1.646   6.944   0.375  1.7075 -0.9447 -0.8053
18066SOL    HW259046   1.662   7.055   0.477 -2.3900 -1.5209  0.6537
18067SOL     OW59047   6.616   5.682   8.061  0.2471 -0.0812 -0.0469
18067SOL    HW159048   6.589   5.770   8.088 -0.7474 -0.3211 -0.2247
18067SOL    HW259049   6.551   5.624   8.100  0.5456 -0.6919 -0.4409
18068SOL     OW59050   7.776   1.215   7.088  0.3042  0.3439 -0.1080
18068SOL    HW159051   7.803   1.183   7.002 -0.3853 -0.1228 -0.1564
18068SOL    HW259052   7.766   1.309   7.076  0.6576  0.3460 -0.4144
18069SOL     OW59053   3.697   2.774   6.234  0.1681  0.1085  0.0534
18069SOL    HW159054   3.629   2.841   6.242  1.5732  1.6049  0.0847
18069SOL    HW259055   3.716   2.770   6.141 -1.2402 -1.7161 -0.2175
18070SOL     OW59056   4.606   8.569   1.876  0.6111 -0.4825  0.6161
18070SOL    HW159057   4.564   8.509   1.814 -0.4028  2.1078 -1.3861
18070SOL    HW259058   4.698   8.571   1.848  0.4487 -0.3756  0.0824
18071SOL     OW59059   4.586   1.314   6.825 -0.1081 -0.1255 -0.6644
18071SOL    HW159060   4.527   1.263   6.770 -1.8167 -1.3405  2.0594
18071SOL    HW259061   4.542   1.398   6.836 -0.4660 -0.3727 -0.1256
18072SOL     OW59062   6.942   3.092   3.916 -0.3726 -0.3247  0.6715
18072SOL    HW159063   7.030   3.088   3.877  0.5392 -0.5007  2.6052
18072SOL    HW259064   6.912   3.181   3.897  0.8586  0.2362  1.2187
18073SOL     OW59065   7.262   7.396   4.929 -0.0579 -0.0219  0.3133
18073SOL    HW159066   7.181   7.352   4.953  0.6296 -0.6830  1.5319
18073SOL    HW259067   7.291   7.439   5.009  1.4846 -0.9357  0.2912
18074SOL     OW59068   3.830   1.647   0.061  0.2425  0.1002 -0.2091
18074SOL    HW159069   3.836   1.626  -0.032  0.9430  0.4879 -0.2539
18074SOL    HW259070   3.737   1.634   0.082 -0.2254  1.4455 -1.3104
18075SOL     OW59071   2.888   5.124   4.633 -0.5686  0.3506  0.0743
18075SOL    HW159072   2.883   5.049   4.692 -1.0772 -0.7406 -1.2856
18075SOL    HW259073   2.978   5.124   4.601 -0.8433 -0.3810 -0.7516
18076SOL     OW59074   8.657   7.923   5.923  0.4066 -0.4037  0.1355
18076SOL    HW159075   8.724   7.958   5.982  0.3501  0.7490 -0.4653
18076SOL    HW259076   8.591   7.991   5.918 -0.3592 -1.1470 -0.0283
18077SOL     OW59077   6.767   8.752   4.208 -0.1777  0.6501  0.1620
18077SOL    HW159078   6.846   8.702   4.232  0.5064  1.3335 -0.6127
18077SOL    HW259079   6.757   8.815   4.279 -1.4230 -0.9455  1.4910
18078SOL     OW59080   2.109   3.814   7.166 -0.0749 -0.2590  0.4745
18078SOL    HW159081   2.156   3.766   7.098  0.1062 -0.7783  0.9554
18078SOL    HW259082   2.160   3.894   7.179 -0.3807  0.0786 -0.3363
18079SOL     OW59083   6.713   2.933   4.616  0.0702 -0.5774  0.4181
18079SOL    HW159084   6.699   3.004   4.679 -0.3757 -0.5169  0.2511
18079SOL    HW259085   6.806   2.911   4.626  0.5211  0.8538 -0.3654
18080SOL     OW59086   5.301   2.401   4.669  0.3468  0.0950  0.6266
18080SOL    HW159087   5.361   2.469   4.701 -0.0130  1.1003 -0.7255
18080SOL    HW259088   5.327   2.386   4.579 -1.2083  0.3260  0.1060
18081SOL     OW59089   7.242   3.030   7.453  0.0325  0.0913  0.6330
18081SOL    HW159090   7.245   2.935   7.465 -1.0549  0.2738  3.0845
18081SOL    HW259091   7.311   3.048   7.390 -1.9901 -2.6235 -2.7022
18082SOL     OW59092   3.798   1.714   1.773 -0.0863 -0.2411 -0.3529
18082SOL    HW159093   3.887   1.679   1.782  0.1614 -0.2009 -2.3225
18082SOL    HW259094   3.746   1.639   1.743 -0.1530  0.3546 -1.7853
18083SOL     OW59095   6.794   8.370   9.152 -0.2510  0.0577 -0.0307
18083SOL    HW159096   6.731   8.413   9.094 -1.4925 -1.6799 -0.0471
18083SOL    HW259097   6.756   8.285   9.170  2.1223 -1.1102 -0.0736
18084SOL     OW59098   9.200   8.023   3.726 -0.2926  0.1068 -0.5523
18084SOL    HW159099   9.186   7.943   3.676  1.3956 -0.1006 -0.7552
18084SOL    HW259100   9.257   8.077   3.670 -0.7521  1.1042 -0.0812
18085SOL     OW59101   7.661   5.081   2.550  0.5730 -0.0255 -0.0648
18085SOL    HW159102   7.612   5.147   2.599 -0.5429 -0.4096 -0.6189
18085SOL    HW259103   7.594   5.032   2.503  1.5524 -0.1830 -1.3529
18086SOL     OW59104   0.074   1.340   3.439  0.1728 -0.4784 -0.0515
18086SOL    HW159105   0.100   1.318   3.528  1.5224 -0.9031 -0.5188
18086SOL    HW259106   0.148   1.311   3.385  0.0040  1.0352 -1.1663
18087SOL     OW59107   3.161   1.007   6.703 -0.4468 -0.1419 -0.5812
18087SOL    HW159108   3.147   0.970   6.616 -0.2599 -1.6095 -0.0093
18087SOL    HW259109   3.246   0.973   6.730 -0.3790  0.5244  0.0811
18088SOL     OW59110   4.543   4.738   0.177  0.3916  0.3576  0.1815
18088SOL    HW159111   4.637   4.747   0.191  0.5887  1.2366 -1.5223
18088SOL    HW259112   4.513   4.826   0.155  0.1653 -0.6438 -4.6532
18089SOL     OW59113   2.090   0.357   4.705  0.0807 -0.2728  0.2045
18089SOL    HW159114   2.168   0.374   4.652  0.7884 -0.4335  1.1759
18089SOL    HW259115   2.075   0.438   4.752 -0.4442 -0.1915 -0.0924
18090SOL     OW59116   3.349   5.816   4.082  0.1588 -0.2695 -0.1554
18090SOL    HW159117   3.428   5.763   4.080 -0.5694 -1.3914 -1.7193
18090SOL    HW259118   3.379   5.905   4.098  1.8355 -0.5165 -1.6963
18091SOL     OW59119   3.839   1.787   0.339 -0.9092 -0.3810 -0.1347
18091SOL    HW159120   3.748   1.756   0.335 -1.3274  0.8507 -0.7375
18091SOL    HW259121   3.839   1.867   0.286 -0.0069  0.9137  1.7025
18092SOL     OW59122   1.672   6.257   7.548  0.2548  0.0451  0.3125
18092SOL    HW159123   1.690   6.221   7.635 -2.6081 -0.1229  0.9229
18092SOL    HW259124   1.726   6.205   7.489  0.7200 -1.2277  1.7911
18093SOL     OW59125   4.585   0.764   2.851  0.2182 -0.5388 -0.0993
18093SOL    HW159126   4.537   0.762   2.933 -0.9277  0.9104 -0.6908
18093SOL    HW259127   4.536   0.705   2.793  0.3255 -0.6267 -0.1009
18094SOL     OW59128   2.058   2.570   6.871 -0.0612 -0.6699  0.3699
18094SOL    HW159129   2.037   2.479   6.890  0.5570 -0.9793 -0.4134
18094SOL    HW259130   2.094   2.569   6.783  2.4269 -0.0627  1.2979
18095SOL     OW59131   2.819   8.295   2.971 -0.1392  0.2816 -0.5667
18095SOL    HW159132   2.891   8.336   3.019 -1.0027  1.1224  0.0549
18095SOL    HW259133   2.830   8.323   2.881 -0.1167  1.0273 -0.3351
18096SOL     OW59134   5.409   8.159   5.612  0.1352  0.1922  0.8841
18096SOL    HW159135   5.476   8.148   5.679  0.3700  1.3701  0.8653
18096SOL    HW259136   5.457   8.160   5.529  0.3645  2.7592  0.9650
18097SOL     OW59137   7.750   5.880   1.567 -0.1230 -0.1845 -0.0638
18097SOL    HW159138   7.796   5.807   1.526  0.3043  0.6247 -1.0768
18097SOL    HW259139   7.725   5.848   1.654  3.4879 -0.2433  1.0984
18098SOL     OW59140   2.830   2.696   8.320 -0.3774 -0.5571 -0.5623
18098SOL    HW159141   2.757   2.647   8.357  1.2622 -1.2223  2.0457
18098SOL    HW259142   2.875   2.634   8.263 -0.5149 -0.8660 -0.3355
18099SOL     OW59143   1.116   2.021   2.147 -0.5248 -0.4712  0.1210
18099SOL    HW159144   1.051   1.950   2.152 -1.0130 -0.1298 -0.9316
18099SOL    HW259145   1.063   2.101   2.139  0.0233 -0.0788  0.3895
18100SOL     OW59146   5.380   4.202   0.046 -0.0512  0.0520  0.1633
18100SOL    HW159147   5.417   4.290   0.036 -0.9968  0.5612  0.8671
18100SOL    HW259148   5.445   4.154   0.096 -0.7828  1.2902  2.4771
18101SOL     OW59149   1.046   0.477   3.705  0.2799  0.2931  0.4238
18101SOL    HW159150   1.054   0.506   3.614  1.1033 -0.9483  0.0775
18101SOL    HW259151   1.130   0.496   3.745  0.3578 -0.3203  0.5677
18102SOL     OW59152   6.433   0.366   2.027  0.2929 -0.2345  0.4268
18102SOL    HW159153   6.472   0.287   2.064  1.7807 -0.5944 -1.6974
18102SOL    HW259154   6.399   0.338   1.942  0.2364  1.2538 -0.0723
18103SOL     OW59155   6.506   2.082   5.257  0.0043  0.2174 -0.2669
18103SOL    HW159156   6.510   1.986   5.252  0.6982  0.2601 -0.8714
18103SOL    HW259157   6.463   2.100   5.340 -2.7309 -0.6365 -1.3912
18104SOL     OW59158   0.919   4.305   0.029 -0.5575 -0.0487 -0.2352
18104SOL    HW159159   0.900   4.322  -0.063 -1.8506 -2.4930 -0.5040
18104SOL    HW259160   1.002   4.257   0.027 -1.0525 -0.9243 -0.2411
18105SOL     OW59161   1.607   4.617   2.584  0.0593 -0.1016  0.1261
18105SOL    HW159162   1.547   4.689   2.603  0.9364  0.5783  0.3732
18105SOL    HW259163   1.683   4.633   2.639  0.5157 -0.9040 -0.2445
18106SOL     OW59164   8.073   7.396   9.527 -0.1104 -0.0775  0.0655
18106SOL    HW159165   8.010   7.404   9.599 -0.6334 -0.8550 -0.2863
18106SOL    HW259166   8.146   7.453   9.552  0.4699 -1.5689  2.0119
18107SOL     OW59167   7.546   0.486   6.672 -0.4460 -0.1788  0.5488
18107SOL    HW159168   7.585   0.567   6.704  0.0398 -0.2782  0.2310
18107SOL    HW259169   7.599   0.463   6.595 -1.7295  0.1874 -0.4634
18108SOL     OW59170   5.191   9.364   0.737  0.1570 -0.0548 -0.7670
18108SOL    HW159171   5.202   9.269   0.731 -0.4338 -0.1483 -0.4661
18108SOL    HW259172   5.268   9.400   0.693  0.4831 -0.6704 -0.7151
18109SOL     OW59173   0.974   9.105   0.858  0.4288 -0.2076  0.2508
18109SOL    HW159174   0.969   9.009   0.853  2.6774 -0.3041 -1.4774
18109SOL    HW259175   0.923   9.136   0.783  0.6904 -0.1008  0.1159
18110SOL     OW59176   2.720   4.602   8.235 -0.2393  0.4753 -0.1382
18110SOL    HW159177   2.722   4.631   8.144  1.2866  1.4215  0.1408
18110SOL    HW259178   2.748   4.679   8.285  0.7878 -0.5562  0.9467
18111SOL     OW59179   6.278   6.738   3.821 -0.2368  0.2967 -0.1738
18111SOL    HW159180   6.200   6.707   3.776 -0.2496  0.4966 -0.2929
18111SOL    HW259181   6.264   6.833   3.830  0.3966  0.4897 -1.0187
18112SOL     OW59182   7.859   4.276   1.133  0.0116 -0.2067  0.4005
18112SOL    HW159183   7.932   4.325   1.171  1.4001 -0.8718 -1.2557
18112SOL    HW259184   7.854   4.197   1.186 -0.2626  0.3420  1.2177
18113SOL     OW59185   0.370   3.297   0.577  0.4017 -0.2077  0.0977
18113SOL    HW159186   0.383   3.280   0.671  0.1893  0.0003  0.1671
18113SOL    HW259187   0.300   3.363   0.575 -0.7998 -1.4386 -0.2682
18114SOL     OW59188   4.108   9.195   4.131 -0.0468 -0.3604 -0.3344
18114SOL    HW159189   4.191   9.243   4.125  0.6146 -1.5401 -0.9451
18114SOL    HW259190   4.119   9.137   4.207 -0.9409  0.5951  0.5637
18115SOL     OW59191   7.832   9.165   7.207 -0.2697  0.2813 -0.1591
18115SOL    HW159192   7.914   9.150   7.255 -0.5292  0.0593  0.2185
18115SOL    HW259193   7.807   9.254   7.229 -0.0791  0.3833 -0.3518
18116SOL     OW59194   1.676   7.006   2.185  0.7890  0.2155  0.0489
18116SOL    HW159195   1.668   6.911   2.174  2.9324  0.1144 -1.2990
18116SOL    HW259196   1.624   7.043   2.115  0.1308  0.0427  0.4382
18117SOL     OW59197   5.920   2.476   4.288 -0.3226 -0.9605 -0.4441
18117SOL    HW159198   5.963   2.538   4.346 -0.0913 -2.1545  0.6909
18117SOL    HW259199   5.851   2.527   4.245  0.0193  0.1321  0.2797
18118SOL     OW59200   6.683   3.878   6.617 -0.4135  0.1454  0.1490
18118SOL    HW159201   6.611   3.941   6.628 -0.6484  1.0031 -4.3636
18118SOL    HW259202   6.642   3.804   6.571  0.9697 -0.7768  0.3643
18119SOL     OW59203   3.554   3.271   7.093  0.2476  0.5806  0.1378
18119SOL    HW159204   3.594   3.332   7.031 -0.8414 -0.2157 -1.4134
18119SOL    HW259205   3.571   3.309   7.179  2.7762  1.1873 -0.5278
18120SOL     OW59206   7.493   1.467   0.816  0.2226 -0.0610  0.1913
18120SOL    HW159207   7.413   1.443   0.770 -1.2307  2.2024  1.3293
18120SOL    HW259208   7.499   1.404   0.888 -0.4185 -0.3785 -0.0242
18121SOL     OW59209   3.904   4.097   0.938 -0.2198  0.2295  0.1708
18121SOL    HW159210   3.956   4.160   0.888  1.4025 -1.4500 -0.3909
18121SOL    HW259211   3.866   4.039   0.872 -1.2179  0.2510  0.6998
18122SOL     OW59212   4.507   5.784   6.370  0.0745 -0.4467 -0.2677
18122SOL    HW159213   4.447   5.807   6.298  2.3096  1.4961 -1.6421
18122SOL    HW259214   4.517   5.689   6.363 -2.0162 -0.6981 -0.6040
18123SOL     OW59215   8.238   9.518   9.111 -0.6891 -0.8081 -0.1758
18123SOL    HW159216   8.180   9.474   9.173  0.4122 -2.1394 -0.0335
18123SOL    HW259217   8.194   9.600   9.089 -2.5245 -1.7010  0.0536
18124SOL     OW59218   4.259   4.120   6.209  0.8058 -0.3217  0.4571
18124SOL    HW159219   4.320   4.072   6.153  1.8651  0.5122  0.8399
18124SOL    HW259220   4.313   4.149   6.283 -0.4251 -0.9123  1.6358
18125SOL     OW59221   5.078   6.954   4.410 -0.4698 -0.7185  0.0603
18125SOL    HW159222   4.987   6.943   4.435 -0.0678 -2.1571  0.9842
18125SOL    HW259223   5.108   7.029   4.461 -0.9531 -0.6723  0.2816
18126SOL     OW59224   7.896   2.313   1.003  0.8004  0.1941  1.1241
18126SOL    HW159225   7.822   2.363   0.968  2.4838  0.9914 -1.5571
18126SOL    HW259226   7.965   2.378   1.016  1.8513 -0.8822  1.1294
18127SOL     OW59227   1.571   9.229   6.942  0.0506  0.3382  0.5531
18127SOL    HW159228   1.581   9.317   6.978 -1.4351  0.8998 -0.3076
18127SOL    HW259229   1.522   9.242   6.861 -0.5995 -1.3194  0.6435
18128SOL     OW59230   4.412   4.805   4.648  0.0700 -0.1977 -0.1489
18128SOL    HW159231   4.450   4.822   4.563  0.3861  1.1852  0.2483
18128SOL    HW259232   4.479   4.830   4.711  0.3415 -2.3831  0.5496
18129SOL     OW59233   8.676   8.212   2.506  0.3388 -0.0761  0.1441
18129SOL    HW159234   8.750   8.151   2.500 -0.6438 -1.5180  1.6896
18129SOL    HW259235   8.661   8.241   2.416  0.1891 -2.9950 -0.8920
18130SOL     OW59236   2.434   3.771   4.347 -0.4986  0.2299 -0.8907
18130SOL    HW159237   2.508   3.732   4.394 -0.8867 -0.2164 -0.6382
18130SOL    HW259238   2.454   3.758   4.255 -0.3495 -0.0534 -0.8202
18131SOL     OW59239   4.441   6.296   1.925 -0.2451  0.3791 -0.3422
18131SOL    HW159240   4.455   6.389   1.941  2.1233  0.1151 -0.5576
18131SOL    HW259241   4.389   6.266   2.000  0.8029  1.4513  0.8495
18132SOL     OW59242   4.205   2.740   5.704  0.1127  0.0979 -0.0424
18132SOL    HW159243   4.139   2.803   5.733 -0.3991 -0.3650 -0.1950
18132SOL    HW259244   4.257   2.723   5.782 -0.1478  0.2208  0.1604
18133SOL     OW59245   1.482   1.385   3.811 -0.3592 -0.1453 -0.1003
18133SOL    HW159246   1.529   1.465   3.835 -0.1307 -0.7793  1.7906
18133SOL    HW259247   1.512   1.365   3.723  1.7136  0.3608  0.4268
18134SOL     OW59248   8.298   1.489   5.045 -0.1656  0.1823 -0.3155
18134SOL    HW159249   8.243   1.484   5.123 -0.3426 -0.3370 -0.4748
18134SOL    HW259250   8.383   1.519   5.078 -0.3227  0.2541  0.0309
18135SOL     OW59251   5.202   2.281   0.056 -0.2122  0.4567  0.0729
18135SOL    HW159252   5.110   2.264   0.073 -0.0204 -0.0963  0.6299
18135SOL    HW259253   5.243   2.280   0.143  0.3517  0.4513 -0.1880
18136SOL     OW59254   3.190   7.213   0.923  0.3214 -0.3176  0.2104
18136SOL    HW159255   3.249   7.247   0.855  0.3466 -2.3437 -0.8517
18136SOL    HW259256   3.112   7.186   0.875 -0.9546  1.0278  1.4336
18137SOL     OW59257   1.415   5.260   3.658  0.3062  0.2398 -0.3337
18137SOL    HW159258   1.333   5.220   3.687  0.4672  0.9329  1.1841
18137SOL    HW259259   1.393   5.300   3.574 -0.0500 -2.3064 -1.5588
18138SOL     OW59260   7.153   3.727   2.128 -0.1854  0.0319 -0.2037
18138SOL    HW159261   7.229   3.701   2.076  0.5190  1.2360  0.1811
18138SOL    HW259262   7.175   3.703   2.217  0.2705  1.4001  0.0851
18139SOL     OW59263   6.556   1.145   9.663  0.0244 -0.5591 -0.3582
18139SOL    HW159264   6.594   1.105   9.741 -0.4034  0.8442  0.6040
18139SOL    HW259265   6.579   1.085   9.592  0.0171 -2.1171  0.9036
18140SOL     OW59266   8.493   7.324   6.645 -0.1415 -0.1300  0.5468
18140SOL    HW159267   8.413   7.275   6.663 -1.6650  0.4934 -3.5086
18140SOL    HW259268   8.474   7.413   6.676 -0.7425 -0.1539  0.2600
18141SOL     OW59269   8.106   4.415   7.733  0.2112  0.4075  0.5261
18141SOL    HW159270   8.201   4.418   7.723  0.0992 -1.1426 -1.8888
18141SOL    HW259271   8.092   4.364   7.813  1.5116 -2.2317 -0.7656
18142SOL     OW59272   1.666   3.848   5.503  0.1678  0.2128 -0.1301
18142SOL    HW159273   1.613   3.873   5.428 -0.0116 -0.0054 -0.0752
18142SOL    HW259274   1.725   3.780   5.470 -0.5947 -0.6136  0.1650
18143SOL     OW59275   5.694   0.544   5.800  0.3751 -0.2508  0.5415
18143SOL    HW159276   5.789   0.554   5.807  0.3343  0.3057  0.3498
18143SOL    HW259277   5.671   0.483   5.870  0.7393  0.4522  1.2878
18144SOL     OW59278   3.697   0.211   7.083  0.0494 -0.1029  0.1520
18144SOL    HW159279   3.614   0.254   7.064  1.0100  1.7430 -0.1026
18144SOL    HW259280   3.722   0.245   7.169  1.1147  0.3476 -0.3170
18145SOL     OW59281   5.360   9.668   7.309 -0.1079  0.4332 -0.4534
18145SOL    HW159282   5.360   9.728   7.235  0.2198 -0.6901 -1.3875
18145SOL    HW259283   5.268   9.665   7.337 -0.2158  0.9461 -0.7435
18146SOL     OW59284   3.483   0.862   1.904 -0.3449  0.0513 -0.4040
18146SOL    HW159285   3.477   0.767   1.912  1.3561 -0.4136 -3.1886
18146SOL    HW259286   3.403   0.887   1.857 -0.4509 -0.1236 -0.3163
18147SOL     OW59287   1.742   3.185   4.804 -0.3079  0.0970  0.4505
18147SOL    HW159288   1.727   3.145   4.890  2.2892  1.0030  1.4065
18147SOL    HW259289   1.826   3.229   4.812  0.1385  0.0353 -2.6543
18148SOL     OW59290   2.731   4.349   9.113  0.0342 -0.2880 -0.4507
18148SOL    HW159291   2.818   4.367   9.077 -0.4661  2.7989 -0.4320
18148SOL    HW259292   2.671   4.366   9.041 -0.7216  1.9065  0.5923
18149SOL     OW59293   4.301   8.407   4.109  0.1886  0.5145 -0.4804
18149SOL    HW159294   4.363   8.341   4.077 -2.5049 -1.5028 -1.9235
18149SOL    HW259295   4.352   8.488   4.110  2.3916 -0.6241 -3.3445
18150SOL     OW59296   1.600   4.560   3.443 -0.0754 -0.5057  0.5198
18150SOL    HW159297   1.634   4.511   3.369  0.5876 -0.1992  0.6078
18150SOL    HW259298   1.660   4.540   3.515  0.5345  0.8423  0.4168
18151SOL     OW59299   9.746   9.510   9.210 -0.2447 -0.8621  0.1873
18151SOL    HW159300   9.841   9.517   9.212  0.0419 -3.6839  0.0188
18151SOL    HW259301   9.717   9.546   9.294  1.0065 -0.4128  0.4454
18152SOL     OW59302   7.892   7.449   8.196 -0.1734 -0.0354  0.8036
18152SOL    HW159303   7.859   7.364   8.225 -2.1751  0.6166  0.5174
18152SOL    HW259304   7.934   7.485   8.275 -1.1362 -0.4144  1.5151
18153SOL     OW59305   9.057   9.493   5.095  0.5327  0.8946  0.5467
18153SOL    HW159306   9.112   9.416   5.107  0.0385  0.1737 -1.4489
18153SOL    HW259307   9.043   9.527   5.184  1.3472 -0.8766  1.3973
18154SOL     OW59308   9.627   5.702   3.426  1.1282  0.1156  0.4952
18154SOL    HW159309   9.691   5.631   3.417  0.6948 -0.2446  0.2113
18154SOL    HW259310   9.569   5.691   3.350  0.0195 -0.2924  1.3701
18155SOL     OW59311   0.783   8.915   2.167  0.2343  0.1254 -0.1148
18155SOL    HW159312   0.728   8.983   2.127 -1.8076 -1.8505 -0.8755
18155SOL    HW259313   0.775   8.930   2.261  0.1444  1.1617 -0.2741
18156SOL     OW59314   0.006   1.039   1.051 -0.9407  0.4161  0.1370
18156SOL    HW159315  -0.029   0.988   0.978 -0.2187  0.9421 -0.5885
18156SOL    HW259316  -0.022   0.991   1.129 -1.0483 -0.5936 -0.5037
18157SOL     OW59317   6.544   2.712   8.787  0.3198  0.4956 -0.2096
18157SOL    HW159318   6.503   2.790   8.823 -0.4826 -1.0529  2.5290
18157SOL    HW259319   6.623   2.698   8.839  0.0517 -0.8877 -0.1139
18158SOL     OW59320   7.975   3.966   0.516 -0.7502 -0.4617 -0.2136
18158SOL    HW159321   7.887   3.978   0.550 -0.5255 -1.8369  0.9215
18158SOL    HW259322   7.990   3.871   0.519  0.3673 -0.3605 -1.4301
18159SOL     OW59323   1.753   8.030   2.796  0.1472  0.9307  0.5243
18159SOL    HW159324   1.685   7.973   2.759 -0.5445  2.1165 -0.0725
18159SOL    HW259325   1.813   7.969   2.839 -1.7457 -0.1329  1.8572
18160SOL     OW59326   1.063   9.607   3.504  0.3076  0.0319 -0.5262
18160SOL    HW159327   1.065   9.640   3.415  1.3594  1.0918 -0.1353
18160SOL    HW259328   1.139   9.549   3.511  0.4446  0.2486 -0.2058
18161SOL     OW59329   3.932   1.685   8.299 -0.2799 -0.0160  0.1448
18161SOL    HW159330   3.977   1.768   8.310 -1.3096  0.7483 -1.0276
18161SOL    HW259331   3.937   1.668   8.205 -1.0262 -0.7160  0.2219
18162SOL     OW59332   5.994   5.828   6.373 -0.6031  0.0960 -0.1877
18162SOL    HW159333   5.957   5.820   6.461  0.2147  0.0541  0.1608
18162SOL    HW259334   5.930   5.785   6.316  0.4833 -3.1395  0.8196
18163SOL     OW59335   6.614   1.837   5.494  0.0767  0.1948  0.9957
18163SOL    HW159336   6.682   1.801   5.550  0.1461  1.2757  1.6215
18163SOL    HW259337   6.615   1.781   5.416  0.2726 -1.0529  1.8681
18164SOL     OW59338   8.807   7.429   1.629 -0.6448 -0.0495 -0.0535
18164SOL    HW159339   8.824   7.523   1.634 -0.8224  0.0678 -1.3819
18164SOL    HW259340   8.712   7.421   1.628 -0.6579 -0.0910 -1.8099
18165SOL     OW59341   6.650   1.472   8.624 -0.0816  0.1157 -0.7333
18165SOL    HW159342   6.640   1.410   8.551  0.5866 -1.7193  0.6563
18165SOL    HW259343   6.659   1.417   8.702  2.5572  1.8885  0.3710
18166SOL     OW59344   3.642   4.042   9.168  0.0054  0.5715  0.2420
18166SOL    HW159345   3.562   4.048   9.116  0.3302 -1.5511 -0.6014
18166SOL    HW259346   3.684   3.962   9.138  0.5460 -0.4191  3.3182
18167SOL     OW59347   3.060   3.067   6.358 -0.1166 -0.1594  0.2593
18167SOL    HW159348   3.071   3.154   6.321  0.3382 -0.3458 -0.0613
18167SOL    HW259349   3.066   3.008   6.282 -4.2001 -0.3038 -0.1543
18168SOL     OW59350   5.310   1.863   6.489  0.5265 -0.8425  0.6846
18168SOL    HW159351   5.397   1.824   6.485  0.9669  0.1446  0.3157
18168SOL    HW259352   5.324   1.952   6.523 -0.3240 -0.6461  0.5651
18169SOL     OW59353   0.055   8.147   2.777 -0.2172 -0.0080 -0.0242
18169SOL    HW159354   0.100   8.079   2.828  0.5298  0.0289 -0.6241
18169SOL    HW259355  -0.017   8.101   2.734 -0.2838 -0.2279  0.3163
18170SOL     OW59356   7.501   0.524   7.678  0.2003 -0.3409  0.8414
18170SOL    HW159357   7.553   0.506   7.600 -2.2943 -1.8661 -0.5686
18170SOL    HW259358   7.556   0.493   7.751  2.3024  0.5330 -0.2827
18171SOL     OW59359   7.237   3.637   5.524 -0.3582  0.3823  0.6172
18171SOL    HW159360   7.147   3.633   5.556 -0.1770  1.7908  1.3955
18171SOL    HW259361   7.244   3.723   5.482 -0.2013 -0.8651 -2.1590
18172SOL     OW59362   1.508   0.395   7.218  0.5065 -0.1156  0.6193
18172SOL    HW159363   1.491   0.314   7.170 -0.8707  0.1813  0.5594
18172SOL    HW259364   1.587   0.431   7.177  0.4445 -0.8173 -0.1529
18173SOL     OW59365   7.987   0.911   5.070 -0.3624 -0.3301  0.0979
18173SOL    HW159366   8.046   0.835   5.065 -1.7139 -1.5808  1.8283
18173SOL    HW259367   7.998   0.944   5.159 -1.5401  0.0093  0.1286
18174SOL     OW59368   3.869   8.359   0.025  0.6259  0.4054 -0.8791
18174SOL    HW159369   3.910   8.395   0.104  2.5418 -1.0805 -1.1091
18174SOL    HW259370   3.941   8.315  -0.021 -1.4242 -4.2338 -0.3020
18175SOL     OW59371   2.635   1.585   0.820 -0.2815 -0.4416  0.0787
18175SOL    HW159372   2.655   1.504   0.773  1.2546 -0.5125  0.7964
18175SOL    HW259373   2.658   1.655   0.759 -3.0613 -0.4668 -1.1403
18176SOL     OW59374   1.463   5.710   6.274 -0.3892 -0.4105  0.4829
18176SOL    HW159375   1.513   5.661   6.208 -1.8806 -0.2068 -0.8527
18176SOL    HW259376   1.404   5.646   6.312 -0.6966 -0.1700  0.4165
18177SOL     OW59377   1.411   1.095   9.573 -0.1200 -0.8464 -0.3288
18177SOL    HW159378   1.341   1.146   9.613 -0.6228 -1.3728 -0.5281
18177SOL    HW259379   1.397   1.006   9.605  0.3212 -0.9953 -0.5494
18178SOL     OW59380   7.579   1.695   9.492  0.6307  0.7586  0.3636
18178SOL    HW159381   7.642   1.623   9.488  1.0624  1.1890 -1.9094
18178SOL    HW259382   7.496   1.653   9.515  0.9748 -0.4124 -0.4353
18179SOL     OW59383   3.264   4.261   6.573  0.0371  0.1503  0.5435
18179SOL    HW159384   3.229   4.334   6.521 -2.0500 -0.0836  1.5585
18179SOL    HW259385   3.341   4.298   6.616  0.3163  1.0848 -0.6743
18180SOL     OW59386   3.590   1.481   5.366  0.5591 -0.2072 -0.2656
18180SOL    HW159387   3.674   1.519   5.340  0.8832  1.6716  2.9097
18180SOL    HW259388   3.525   1.532   5.319  1.1494  1.2708  0.4457
18181SOL     OW59389   0.121   8.602   9.206 -0.4460  0.6891 -0.2126
18181SOL    HW159390   0.128   8.688   9.165  0.5283  0.0874 -1.3405
18181SOL    HW259391   0.046   8.561   9.162 -1.3261  1.1766  0.7815
18182SOL     OW59392   8.651   6.855   0.795  0.0416  0.7403  0.3063
18182SOL    HW159393   8.559   6.868   0.818 -0.0227  1.2958 -0.2277
18182SOL    HW259394   8.648   6.809   0.712  0.2003  2.2305 -0.5707
18183SOL     OW59395   0.911   5.822   5.310 -0.1082  0.2127  0.0809
18183SOL    HW159396   0.899   5.727   5.317  0.5217  0.0512 -0.9575
18183SOL    HW259397   0.844   5.858   5.369 -1.2539 -0.8364 -0.5275
18184SOL     OW59398   2.266   4.782   1.335 -0.2867  0.1376 -0.0270
18184SOL    HW159399   2.240   4.693   1.310 -0.4525 -0.3051  1.5925
18184SOL    HW259400   2.205   4.806   1.404  1.2692  0.5317  1.2645
18185SOL     OW59401   7.226   8.647   2.300 -0.5359 -0.2541 -0.4217
18185SOL    HW159402   7.277   8.727   2.311 -0.6856 -0.2991  0.6594
18185SOL    HW259403   7.276   8.595   2.237  2.2500 -1.4627  2.4949
18186SOL     OW59404   9.074   8.611   2.143 -0.0387 -0.7149 -0.1222
18186SOL    HW159405   9.102   8.537   2.089  0.4395 -0.0099 -0.8361
18186SOL    HW259406   9.057   8.682   2.082  1.3696  0.3805  0.7009
18187SOL     OW59407   2.529   4.000   2.971  0.6086  0.1293 -0.2219
18187SOL    HW159408   2.460   3.972   3.031 -0.4272 -0.0506 -1.4699
18187SOL    HW259409   2.526   4.096   2.974  0.3719  0.1201 -0.2110
18188SOL     OW59410   8.993   2.314   2.512  0.0915 -0.0184  0.1789
18188SOL    HW159411   8.927   2.258   2.470  0.8011  0.2729 -1.3926
18188SOL    HW259412   9.050   2.252   2.558  1.1493 -0.7338 -1.9312
18189SOL     OW59413   1.450   8.872   4.265 -0.3283  0.1957  0.1783
18189SOL    HW159414   1.510   8.802   4.290 -0.8726 -0.7325 -1.0042
18189SOL    HW259415   1.493   8.915   4.192 -1.1351 -0.5743 -0.7780
18190SOL     OW59416   6.503   8.578   0.095 -1.1854  0.3785  0.1213
18190SOL    HW159417   6.435   8.621   0.146 -0.1931 -0.0217  1.8688
18190SOL    HW259418   6.576   8.640   0.094 -1.0844  0.2634 -0.6044
18191SOL     OW59419   8.790   3.524   9.372 -0.0415  0.0741 -0.2377
18191SOL    HW159420   8.872   3.570   9.393 -1.5970  2.7521  0.4885
18191SOL    HW259421   8.786   3.525   9.277  0.6151  0.2382 -0.2708
18192SOL     OW59422   5.443   3.241   5.951 -0.3918  0.5590  0.2828
18192SOL    HW159423   5.482   3.162   5.914  1.8600  0.8271  1.9134
18192SOL    HW259424   5.365   3.256   5.897  0.8214 -0.9591 -2.0825
18193SOL     OW59425   5.672   7.426   6.756 -0.0577  0.1125 -0.0799
18193SOL    HW159426   5.720   7.351   6.721 -1.0127 -1.0458  0.9524
18193SOL    HW259427   5.716   7.503   6.720 -0.5885 -0.9282 -3.3097
18194SOL     OW59428   0.924   7.533   0.722 -0.2909  0.4506  0.3818
18194SOL    HW159429   0.928   7.443   0.754  0.6408  0.4495  0.2795
18194SOL    HW259430   1.014   7.554   0.697 -0.9810  0.3520 -2.5015
18195SOL     OW59431   4.698   5.645   8.172 -0.3337 -0.2154  0.2263
18195SOL    HW159432   4.642   5.722   8.156  1.9608  1.4853 -0.0673
18195SOL    HW259433   4.692   5.594   8.091 -0.7821  0.3776 -0.1240
18196SOL     OW59434   7.417   6.682   9.714  0.1300 -0.2342 -0.1057
18196SOL    HW159435   7.327   6.674   9.683 -0.1938  1.4023  0.2967
18196SOL    HW259436   7.410   6.740   9.790  1.4052 -0.9064  0.5484
18197SOL     OW59437   0.414   1.601   0.653  0.5765 -0.3153 -0.0891
18197SOL    HW159438   0.429   1.542   0.727  1.1849 -0.0588  0.0055
18197SOL    HW259439   0.348   1.557   0.600 -2.6958  1.1103  2.4157
18198SOL     OW59440   5.157   7.323   7.520 -0.2048  0.2870 -0.2869
18198SOL    HW159441   5.065   7.348   7.524 -0.6383 -1.0653 -1.0808
18198SOL    HW259442   5.176   7.289   7.608 -1.6321 -3.0542 -1.1051
18199SOL     OW59443   8.600   7.289   3.644 -0.2010  0.4370  0.3100
18199SOL    HW159444   8.675   7.252   3.691  0.4142  2.3111  0.9365
18199SOL    HW259445   8.640   7.339   3.573 -0.9349  0.4474 -0.0947
18200SOL     OW59446   7.397   5.071   1.735  0.2432 -0.0655 -0.0455
18200SOL    HW159447   7.344   5.147   1.760  0.1760 -0.3736  0.7438
18200SOL    HW259448   7.366   5.000   1.791  1.7549 -0.1549  0.7235
18201SOL     OW59449   7.694   4.915   7.572  0.2815  0.1992  0.3395
18201SOL    HW159450   7.716   4.965   7.650 -0.1435  2.0089 -0.6354
18201SOL    HW259451   7.660   4.981   7.511 -1.0014 -1.4105 -0.7536
18202SOL     OW59452   8.725   9.219   5.809 -0.1604 -0.3169  0.2480
18202SOL    HW159453   8.711   9.207   5.715 -0.5707  0.7095  0.1583
18202SOL    HW259454   8.642   9.192   5.849 -0.9015  1.5251  0.0858
18203SOL     OW59455   6.506   3.844   1.144  0.1171 -0.3284  0.2372
18203SOL    HW159456   6.565   3.851   1.069  0.5487  0.5078  0.6383
18203SOL    HW259457   6.432   3.900   1.121 -0.3142 -1.0066 -0.0632
18204SOL     OW59458   6.237   5.280   3.812 -0.3473 -0.2287 -0.5983
18204SOL    HW159459   6.163   5.341   3.804 -0.0649  0.1346 -0.4876
18204SOL    HW259460   6.230   5.246   3.902  0.0724  0.4110 -0.3120
18205SOL     OW59461   9.041   7.935   7.850  0.4480  0.2936  0.4745
18205SOL    HW159462   9.069   7.865   7.791 -2.2610 -0.8160  0.3562
18205SOL    HW259463   9.028   8.011   7.793 -0.9963 -0.4333 -0.2102
18206SOL     OW59464   3.785   9.700   7.907  0.0116 -0.2513 -0.0569
18206SOL    HW159465   3.850   9.762   7.873 -0.7351  0.3955 -0.3489
18206SOL    HW259466   3.761   9.735   7.993  0.8869 -1.1308  0.5657
18207SOL     OW59467   6.947   6.991   6.361  0.4528  0.2195 -0.3958
18207SOL    HW159468   6.932   7.064   6.421  0.1186 -1.1602  1.2783
18207SOL    HW259469   6.971   6.918   6.418  0.1208 -1.1604 -1.9494
18208SOL     OW59470   5.492   5.828   2.420 -0.2197 -0.0694 -0.0021
18208SOL    HW159471   5.421   5.889   2.437 -0.2067 -0.3759  1.2207
18208SOL    HW259472   5.522   5.801   2.507 -0.3225 -1.9160 -0.5058
18209SOL     OW59473   9.489   1.546   3.931  0.3424  0.5213 -0.3167
18209SOL    HW159474   9.416   1.601   3.901 -0.6810 -0.7444 -0.2472
18209SOL    HW259475   9.506   1.488   3.858  0.2377 -0.2222  0.2439
18210SOL     OW59476   8.861   7.037   8.870  0.4015 -0.0043  0.0898
18210SOL    HW159477   8.809   7.118   8.871 -0.9254 -0.8122 -0.1255
18210SOL    HW259478   8.944   7.062   8.831  0.2814  1.4076  0.6706
18211SOL     OW59479   4.099   0.245   3.604  0.1199 -0.2313 -0.2210
18211SOL    HW159480   4.020   0.256   3.658 -0.0518  1.2432 -0.7314
18211SOL    HW259481   4.099   0.321   3.546  2.6131  0.5329  0.6569
18212SOL     OW59482   8.620   5.934   3.768  0.2206 -0.5798 -0.0263
18212SOL    HW159483   8.589   5.960   3.854  0.3478 -1.9733  0.4687
18212SOL    HW259484   8.693   5.874   3.786  0.8336 -0.1915 -1.1173
18213SOL     OW59485   0.742   6.731   5.068 -0.6135 -0.0621 -0.2217
18213SOL    HW159486   0.722   6.745   5.160  0.1630  0.3368 -0.1001
18213SOL    HW259487   0.818   6.787   5.051 -0.2427 -0.7413 -0.8972
18214SOL     OW59488   6.597   8.277   0.400  0.3159 -0.2611  0.2614
18214SOL    HW159489   6.531   8.269   0.331 -0.3387 -0.1868  0.8634
18214SOL    HW259490   6.632   8.189   0.409  1.1181 -0.0739 -0.8384
18215SOL     OW59491   1.022   8.466   3.914  0.1542  0.3382  0.3811
18215SOL    HW159492   0.928   8.468   3.898 -0.0863 -0.5172  1.5505
18215SOL    HW259493   1.030   8.450   4.008  1.4787  1.8645  0.5772
18216SOL     OW59494   4.275   6.794   6.581  0.4550  0.0836 -0.3387
18216SOL    HW159495   4.289   6.709   6.623 -1.1492  0.0494  0.1962
18216SOL    HW259496   4.251   6.853   6.653 -1.4607  0.2368 -1.0541
18217SOL     OW59497   4.555   5.330   4.444 -0.0634 -0.0143  0.0044
18217SOL    HW159498   4.478   5.363   4.397 -0.1048  1.7540  1.1938
18217SOL    HW259499   4.629   5.369   4.398 -0.1398  2.6160  1.8912
18218SOL     OW59500   8.432   4.102   9.237  0.2661  0.2145 -0.7536
18218SOL    HW159501   8.436   4.088   9.142 -0.0444  0.0755 -0.7489
18218SOL    HW259502   8.400   4.192   9.247  0.8461  0.4247 -0.7820
18219SOL     OW59503   6.072   1.951   7.269 -0.2746  0.3485 -0.0109
18219SOL    HW159504   6.120   1.869   7.276 -2.5735 -1.2106 -1.2473
18219SOL    HW259505   6.032   1.948   7.182 -0.7549  2.6033  0.0782
18220SOL     OW59506   3.858   8.908   9.337  0.2781 -0.1048  0.1882
18220SOL    HW159507   3.805   8.987   9.346 -0.3073 -0.2543 -1.5054
18220SOL    HW259508   3.896   8.894   9.424 -2.3452  0.0743  1.4539
18221SOL     OW59509   0.329   1.827   9.663 -0.1033  0.6509 -0.2292
18221SOL    HW159510   0.260   1.882   9.700 -0.4888  0.1214 -0.1492
18221SOL    HW259511   0.405   1.884   9.656  0.0266  0.7340  1.5319
18222SOL     OW59512   6.451   6.110   5.270  0.2693 -0.0887  0.0856
18222SOL    HW159513   6.389   6.047   5.232 -0.7547  0.7734  0.2663
18222SOL    HW259514   6.426   6.194   5.231 -0.0827  0.6353  1.7862
18223SOL     OW59515   4.223   1.675   0.046 -0.0771  0.8534  0.2277
18223SOL    HW159516   4.275   1.595   0.047  0.9405  1.4999  0.3285
18223SOL    HW259517   4.244   1.717  -0.037 -2.7788 -0.3337 -1.1632
18224SOL     OW59518   7.772   1.827   3.281  0.1549  0.0297  0.0316
18224SOL    HW159519   7.710   1.897   3.300 -1.1538 -1.7932  3.3823
18224SOL    HW259520   7.719   1.747   3.281  2.0230 -1.2809 -0.5860
18225SOL     OW59521   7.252   1.042   6.828 -0.1961  0.0928  0.3634
18225SOL    HW159522   7.245   1.137   6.838 -0.3056  0.2647 -1.0779
18225SOL    HW259523   7.333   1.020   6.873 -1.5013  0.4282  3.0981
18226SOL     OW59524   5.789   4.044   3.650 -0.2250 -0.5342 -0.0157
18226SOL    HW159525   5.855   4.000   3.704  0.8471 -0.1096 -0.9394
18226SOL    HW259526   5.761   4.118   3.703  1.7669  0.6358 -0.5041
18227SOL     OW59527   3.937   6.210   1.824  0.0163 -0.1073  0.0338
18227SOL    HW159528   3.861   6.243   1.776 -0.1759 -0.0421  0.3847
18227SOL    HW259529   3.960   6.128   1.779 -0.9820 -0.7433  0.6557
18228SOL     OW59530   1.030   8.324   4.259  0.2217 -0.3782 -0.1523
18228SOL    HW159531   0.950   8.377   4.260  0.3930 -0.1279  0.8302
18228SOL    HW259532   1.096   8.378   4.302  0.4783 -1.2649  0.6010
18229SOL     OW59533   1.403   5.308   2.942 -0.3075 -0.0076  0.7312
18229SOL    HW159534   1.348   5.385   2.923  0.0099  0.0678  0.0836
18229SOL    HW259535   1.486   5.345   2.970 -0.2396 -0.1136  0.6709
18230SOL     OW59536   4.180   5.229   2.945  0.4416 -0.3945  0.2947
18230SOL    HW159537   4.112   5.210   3.008  0.9120 -3.2818  0.0505
18230SOL    HW259538   4.143   5.202   2.861  0.9711  0.4154 -0.2098
18231SOL     OW59539   0.835   4.169   1.778  0.0967  0.0443  0.1248
18231SOL    HW159540   0.900   4.217   1.830  1.2787 -1.5417  0.1932
18231SOL    HW259541   0.808   4.096   1.835 -0.1127 -0.5555 -0.7186
18232SOL     OW59542   6.965   4.172   8.071 -0.3075 -0.2984  0.2079
18232SOL    HW159543   6.962   4.077   8.079 -1.5121 -0.4104 -1.1267
18232SOL    HW259544   6.873   4.198   8.062  0.1588  0.6261 -2.8969
18233SOL     OW59545   2.371   0.988   8.989 -0.2890  0.1346 -0.7522
18233SOL    HW159546   2.292   0.978   8.937 -0.6765 -1.1567  0.0345
18233SOL    HW259547   2.442   0.960   8.931 -0.2836  1.9852 -1.7047
18234SOL     OW59548   8.754   6.734   1.731 -0.0752 -0.4400  0.0480
18234SOL    HW159549   8.732   6.770   1.645 -0.2217 -2.9442 -1.0378
18234SOL    HW259550   8.821   6.793   1.765 -1.3263  1.6602 -0.9291
18235SOL     OW59551   0.900   7.939   0.170 -0.2774 -0.6435 -0.2087
18235SOL    HW159552   0.949   7.867   0.208 -0.4021 -0.1766  0.8822
18235SOL    HW259553   0.903   7.924   0.076  0.2735 -1.6899 -0.0317
18236SOL     OW59554   8.994   4.681   3.734 -0.0959  0.1657 -0.2111
18236SOL    HW159555   8.995   4.726   3.819 -1.1339 -0.7303  0.2958
18236SOL    HW259556   8.923   4.618   3.741  1.4528 -1.7512 -0.8015
18237SOL     OW59557   7.998   0.251   2.187  0.2082 -0.5188 -0.3844
18237SOL    HW159558   7.932   0.298   2.135 -0.6931 -0.8158  0.4604
18237SOL    HW259559   8.040   0.192   2.125 -0.3221 -0.3269 -0.9373
18238SOL     OW59560   5.367   5.989   8.200  0.2154 -0.0084  0.6010
18238SOL    HW159561   5.406   5.937   8.130  1.0597  0.0523  1.0174
18238SOL    HW259562   5.296   6.037   8.158 -0.7771 -1.6949  0.2571
18239SOL     OW59563   1.576   4.740   0.584 -0.6386  0.5804 -0.0614
18239SOL    HW159564   1.485   4.727   0.557 -0.3664 -5.0572  0.5225
18239SOL    HW259565   1.626   4.734   0.503 -0.6302 -0.1704 -0.0060
18240SOL     OW59566   7.095   6.541   5.315  0.4127  0.2249  0.0215
18240SOL    HW159567   7.012   6.498   5.295  0.1468  1.0530 -0.7453
18240SOL    HW259568   7.069   6.625   5.353  0.9206 -0.4382  1.9226
18241SOL     OW59569   7.431   8.972   3.637 -0.2621 -0.6441  0.6334
18241SOL    HW159570   7.488   8.906   3.597 -0.2769 -0.2763 -0.0198
18241SOL    HW259571   7.369   8.994   3.567  0.7026  1.1937  0.3197
18242SOL     OW59572   6.321   0.405   9.240 -0.5987  0.2298 -0.2578
18242SOL    HW159573   6.414   0.384   9.226 -0.9290 -1.1572 -0.4603
18242SOL    HW259574   6.322   0.466   9.314  0.4720  0.1594 -0.1949
18243SOL     OW59575   5.766   2.999   1.080 -0.0228 -0.1174  0.3783
18243SOL    HW159576   5.699   3.061   1.051  1.2706  0.2648 -2.0835
18243SOL    HW259577   5.786   3.026   1.169 -1.6348  1.0592  0.4424
18244SOL     OW59578   5.802   0.307   1.932  0.2534 -0.3408  0.0358
18244SOL    HW159579   5.864   0.266   1.872  0.3258 -1.7274  1.0027
18244SOL    HW259580   5.850   0.316   2.015  0.0378  1.1848  0.0191
18245SOL     OW59581   4.141   3.585   0.871 -0.5325  0.3171 -0.4157
18245SOL    HW159582   4.211   3.520   0.877  0.9383  1.7427 -1.2965
18245SOL    HW259583   4.083   3.552   0.802 -0.0444 -0.2626 -0.5544
18246SOL     OW59584   5.940   2.754   4.692 -0.4753  0.4087  0.6814
18246SOL    HW159585   5.912   2.839   4.659  0.7571  0.9531  0.9737
18246SOL    HW259586   6.013   2.729   4.635 -0.0136  0.1475  1.3800
18247SOL     OW59587   8.827   3.551   9.100 -0.1378  0.5350  0.4537
18247SOL    HW159588   8.843   3.645   9.095 -0.8961  0.7045  0.9078
18247SOL    HW259589   8.806   3.525   9.010  2.7081  0.2458 -0.2282
18248SOL     OW59590   3.862   1.960   7.121  0.3923  0.0671 -1.0058
18248SOL    HW159591   3.809   1.909   7.060 -1.4415  2.0828 -1.2339
18248SOL    HW259592   3.826   1.939   7.207 -1.0244  1.5454 -1.1713
18249SOL     OW59593   7.978   5.470   2.501 -0.4325  0.2347 -0.0018
18249SOL    HW159594   7.999   5.512   2.584 -1.9572 -1.0493  1.0814
18249SOL    HW259595   7.985   5.377   2.518  0.6257 -0.0481 -1.7336
18250SOL     OW59596   5.674   8.672   1.457  0.1242 -0.3995  0.2830
18250SOL    HW159597   5.678   8.717   1.373  2.3573 -1.7926 -0.4722
18250SOL    HW259598   5.647   8.582   1.435 -0.6352 -0.4274  1.2531
18251SOL     OW59599   0.768   8.502   7.667  0.1820  0.1562  0.6961
18251SOL    HW159600   0.710   8.574   7.694 -0.6916 -0.2603 -0.0003
18251SOL    HW259601   0.770   8.442   7.741  0.6452  0.7210  1.1538
18252SOL     OW59602   9.333   0.846   9.138  0.2850 -0.3692  0.2171
18252SOL    HW159603   9.367   0.827   9.224 -1.2170  0.1660  0.9779
18252SOL    HW259604   9.246   0.806   9.137 -0.1050  0.4405 -0.6739
18253SOL     OW59605   7.080   7.490   8.780 -0.4786  0.4880 -0.0608
18253SOL    HW159606   7.117   7.419   8.728  1.2345  0.8353  0.6176
18253SOL    HW259607   7.152   7.553   8.790 -2.1748  2.8406 -1.4679
18254SOL     OW59608   0.250   9.705   2.527  0.0148 -0.4364 -0.0722
18254SOL    HW159609   0.306   9.774   2.491 -2.2056  1.6952  0.2117
18254SOL    HW259610   0.229   9.650   2.452  0.7358  0.0303 -0.6275
18255SOL     OW59611   5.079   7.787   0.201  0.6815  0.1740 -0.4191
18255SOL    HW159612   5.122   7.845   0.138  1.2682  1.4185  1.0656
18255SOL    HW259613   5.114   7.814   0.286 -2.2387  0.5757  0.7834
18256SOL     OW59614   8.111   8.960   2.906  0.2288 -0.4443  0.0440
18256SOL    HW159615   8.016   8.970   2.898  0.1195  1.5163  2.6001
18256SOL    HW259616   8.124   8.923   2.993  1.8354  2.2929  1.0861
18257SOL     OW59617   1.691   5.351   5.065 -0.7672  0.3648 -0.3535
18257SOL    HW159618   1.725   5.392   5.144 -2.1903  1.0256 -0.0630
18257SOL    HW259619   1.733   5.399   4.993  1.9736 -1.4197 -0.0988
18258SOL     OW59620   4.348   6.950   9.676 -0.2759 -0.1981  0.1220
18258SOL    HW159621   4.271   6.991   9.638 -0.9795 -0.0107  1.7199
18258SOL    HW259622   4.315   6.874   9.723  0.5253 -0.1728  0.7495
18259SOL     OW59623   0.614   9.220   1.831  0.5215 -0.3364 -0.4197
18259SOL    HW159624   0.629   9.139   1.782  0.8941 -0.3518 -0.2873
18259SOL    HW259625   0.520   9.237   1.822  0.2462 -1.3190  0.3576
18260SOL     OW59626   1.266   8.924   2.651  0.4445  0.2345  0.2037
18260SOL    HW159627   1.343   8.958   2.697  0.8876  0.5044 -0.7145
18260SOL    HW259628   1.192   8.967   2.695  0.7298 -0.6881  1.6762
18261SOL     OW59629   1.108   6.087   3.455  0.5693 -0.0123  0.6278
18261SOL    HW159630   1.023   6.111   3.418  1.1829 -1.2116 -1.7573
18261SOL    HW259631   1.106   6.120   3.544 -2.1770  0.4854  0.4477
18262SOL     OW59632   3.364   3.252   2.879 -0.0323 -0.2755 -0.1368
18262SOL    HW159633   3.310   3.285   2.808  0.1123 -1.4424 -0.8071
18262SOL    HW259634   3.447   3.227   2.837  0.1126 -0.8270  0.4630
18263SOL     OW59635   8.065   6.511   6.139  0.1282 -0.2389  0.1555
18263SOL    HW159636   8.150   6.550   6.118 -0.2727  0.2845 -0.5359
18263SOL    HW259637   8.025   6.493   6.054 -0.2471 -0.9563  0.4681
18264SOL     OW59638   5.881   1.869   3.123  0.1319  0.5497 -0.0072
18264SOL    HW159639   5.814   1.937   3.135 -0.5339  0.0061 -0.5504
18264SOL    HW259640   5.925   1.864   3.208 -0.9942  0.4255  0.5892
18265SOL     OW59641   5.392   6.506   2.244  0.1340  0.1909  0.5378
18265SOL    HW159642   5.480   6.472   2.257 -0.0518 -0.2892  0.5688
18265SOL    HW259643   5.340   6.464   2.313 -0.5357 -1.0900 -0.7061
18266SOL     OW59644   9.325   7.717   2.098  0.5601 -0.8235 -0.3535
18266SOL    HW159645   9.354   7.717   2.189  3.3426 -1.6549 -1.1359
18266SOL    HW259646   9.265   7.642   2.092 -1.8989  0.8649  1.3112
18267SOL     OW59647   1.115   9.556   7.687  0.1270  0.1323 -0.2273
18267SOL    HW159648   1.066   9.634   7.659  0.4056  0.1042 -0.8064
18267SOL    HW259649   1.120   9.502   7.609  0.6026 -0.1189 -0.0243
18268SOL     OW59650   4.198   0.537   7.053  0.3839 -0.3331 -0.3507
18268SOL    HW159651   4.267   0.582   7.005 -0.0001  0.4036 -0.2218
18268SOL    HW259652   4.236   0.451   7.074  2.2025  0.8976  1.8307
18269SOL     OW59653   8.066   9.427   8.253  0.0044  0.1687  0.6102
18269SOL    HW159654   8.101   9.516   8.244  1.6751 -0.3943  1.2333
18269SOL    HW259655   8.076   9.389   8.166  1.4493 -0.1427  0.8923
18270SOL     OW59656   9.388   0.399   2.807  0.4031 -0.4659 -0.1064
18270SOL    HW159657   9.390   0.339   2.881  0.1667 -0.5861 -0.1960
18270SOL    HW259658   9.378   0.343   2.730 -1.8008 -0.2347 -0.0497
18271SOL     OW59659   8.303   6.183   6.389  0.1113  0.1869  0.4427
18271SOL    HW159660   8.268   6.265   6.355  0.5663 -0.4010 -1.5506
18271SOL    HW259661   8.371   6.210   6.451  1.4372  1.3659 -1.4306
18272SOL     OW59662   9.498   5.642   4.202  0.1800 -0.4397 -0.2046
18272SOL    HW159663   9.402   5.645   4.194  0.1812 -0.7731 -0.3607
18272SOL    HW259664   9.530   5.669   4.116  0.2337  0.2373  0.0246
18273SOL     OW59665   7.037   9.029   1.827  0.5631 -0.0026 -0.2047
18273SOL    HW159666   7.000   9.112   1.796  0.3965 -0.1307 -0.3519
18273SOL    HW259667   7.004   9.020   1.916  1.7259  0.7847  0.3418
18274SOL     OW59668   2.078   6.770   5.784 -0.0519 -0.4014 -0.0752
18274SOL    HW159669   2.115   6.683   5.800  0.1883 -0.0263  1.6570
18274SOL    HW259670   2.078   6.811   5.870  0.5997  1.6180 -0.9919
18275SOL     OW59671   8.936   7.939   1.436 -0.3584 -0.6087 -0.4458
18275SOL    HW159672   8.878   8.001   1.390  0.0711  0.5861  0.5681
18275SOL    HW259673   8.971   7.989   1.510 -0.1017 -2.1253  0.5012
18276SOL     OW59674   5.418   2.952   5.585 -0.2924 -0.3371  0.5799
18276SOL    HW159675   5.341   2.921   5.633 -0.0676  0.0945  1.2215
18276SOL    HW259676   5.481   2.880   5.592 -1.1030 -1.2996 -1.1387
18277SOL     OW59677   1.694   0.101   8.480  0.0700 -0.1270 -0.7758
18277SOL    HW159678   1.614   0.154   8.483  1.0628  1.4449 -0.5475
18277SOL    HW259679   1.731   0.110   8.568  2.4604  2.4799 -1.8800
18278SOL     OW59680   6.262   5.754   7.551  0.4876 -0.4588  0.0232
18278SOL    HW159681   6.261   5.823   7.617 -0.4717  0.1780 -0.6170
18278SOL    HW259682   6.253   5.673   7.600  0.9372 -0.0812  0.7430
18279SOL     OW59683   2.191   5.159   2.281  0.2174 -0.2848  0.8045
18279SOL    HW159684   2.246   5.132   2.354  0.1228 -1.0948  0.5765
18279SOL    HW259685   2.177   5.253   2.296  0.9589 -0.2437  1.3208
18280SOL     OW59686   4.891   0.438   2.341  0.2688 -0.0358 -0.1116
18280SOL    HW159687   4.855   0.524   2.323  0.5157  0.2928  0.8836
18280SOL    HW259688   4.841   0.406   2.416  1.3802  0.0188  0.6775
18281SOL     OW59689   3.646   0.350   7.827 -0.3493 -0.2584 -0.7436
18281SOL    HW159690   3.654   0.296   7.749 -1.1429  0.7234 -1.5339
18281SOL    HW259691   3.560   0.327   7.863 -0.3451 -0.0913 -0.6274
18282SOL     OW59692   0.290   8.931   4.640 -0.2079  0.2080 -0.4394
18282SOL    HW159693   0.245   8.895   4.563 -0.8451  0.1456 -0.0424
18282SOL    HW259694   0.368   8.975   4.604  0.0518 -0.7010 -1.0261
18283SOL     OW59695   7.424   5.548   2.487 -0.5797  0.1324 -0.7448
18283SOL    HW159696   7.345   5.537   2.541  0.2447  1.9936  0.9528
18283SOL    HW259697   7.469   5.623   2.526  2.0385 -0.8630 -1.6855
18284SOL     OW59698   5.685   3.828   4.331 -0.4517  0.1030 -0.1628
18284SOL    HW159699   5.594   3.859   4.328 -0.3940  0.5096  1.2765
18284SOL    HW259700   5.719   3.845   4.243 -1.3471  1.2663 -0.3134
18285SOL     OW59701   4.209   4.433   3.907 -0.4761  0.3292  0.1128
18285SOL    HW159702   4.203   4.501   3.974  0.4023  0.9378 -0.4032
18285SOL    HW259703   4.276   4.464   3.846  0.9733 -1.6265  0.5888
18286SOL     OW59704   4.362   4.303   4.717  0.2201  0.0488  0.4827
18286SOL    HW159705   4.445   4.329   4.758  0.5634 -0.2267 -0.0222
18286SOL    HW259706   4.306   4.380   4.723  1.0560  0.7535 -0.5769
18287SOL     OW59707   7.590   1.921   2.973 -0.2228  0.0509 -0.0462
18287SOL    HW159708   7.601   1.851   3.038 -0.7920  1.2518  1.4012
18287SOL    HW259709   7.599   1.877   2.889  1.8488 -1.3619  0.8186
18288SOL     OW59710   5.871   0.357   8.766  0.4502  0.4605 -0.5175
18288SOL    HW159711   5.909   0.422   8.708  2.6370 -0.3634 -0.1017
18288SOL    HW259712   5.877   0.275   8.717  0.9432  0.0080  0.2739
18289SOL     OW59713   0.053   7.794   1.660  0.9436  0.0261 -0.2722
18289SOL    HW159714  -0.028   7.742   1.662  0.5206  0.6219 -1.2305
18289SOL    HW259715   0.069   7.818   1.751 -1.3838  2.0478 -0.3105
18290SOL     OW59716   0.517   3.620   5.642  0.3387  0.2077  0.0938
18290SOL    HW159717   0.533   3.700   5.693  0.6656  1.5575 -2.0073
18290SOL    HW259718   0.515   3.649   5.551 -1.6840 -1.8746 -0.6308
18291SOL     OW59719   7.455   3.265   8.040  0.2167 -0.1098 -0.4905
18291SOL    HW159720   7.502   3.198   7.991  0.3227  0.1724 -0.7822
18291SOL    HW259721   7.520   3.334   8.054  0.3103 -0.3719  0.4286
18292SOL     OW59722   0.463   4.991   4.007 -0.5612  0.2093 -0.8380
18292SOL    HW159723   0.466   4.983   3.912 -0.0483 -0.7357 -0.7604
18292SOL    HW259724   0.415   5.072   4.024 -2.0883 -0.4420 -1.8926
18293SOL     OW59725   5.296   6.446   3.289  0.1169  0.3954 -0.4116
18293SOL    HW159726   5.216   6.414   3.245 -0.8336  1.4634  0.4730
18293SOL    HW259727   5.359   6.457   3.218 -0.1938 -1.4023 -1.0081
18294SOL     OW59728   5.127   4.032   4.734  0.4638  0.0778  0.3522
18294SOL    HW159729   5.144   4.090   4.809  0.2912  0.4811  0.0853
18294SOL    HW259730   5.053   4.073   4.689  0.3840 -0.3173  0.1222
18295SOL     OW59731   4.732   8.576   5.898 -0.3332 -0.4700  0.4287
18295SOL    HW159732   4.698   8.610   5.815  3.0166  1.4922 -0.3393
18295SOL    HW259733   4.728   8.651   5.958  1.7877 -0.3332  0.4764
18296SOL     OW59734   8.439   1.176   8.330  0.1057 -0.0385  0.3611
18296SOL    HW159735   8.403   1.249   8.279  2.4675  0.5155 -0.6089
18296SOL    HW259736   8.413   1.098   8.282  2.3339  0.4785 -1.8615
18297SOL     OW59737   1.538   4.053   0.686  0.2156  0.1739  0.2535
18297SOL    HW159738   1.481   3.976   0.695  0.9108 -0.3169  0.4956
18297SOL    HW259739   1.525   4.082   0.596 -0.4424  0.0866  0.3132
18298SOL     OW59740   2.531   1.192   3.666  0.3912  0.2234  0.2623
18298SOL    HW159741   2.490   1.107   3.653  1.0857 -0.0278 -0.4113
18298SOL    HW259742   2.476   1.253   3.617  1.7421 -0.3774 -2.1899
18299SOL     OW59743   3.397   1.531   8.650  0.6282  0.1498  0.5394
18299SOL    HW159744   3.339   1.597   8.612  0.9733 -0.3291 -0.8971
18299SOL    HW259745   3.358   1.448   8.624  2.4810 -0.1953 -1.4184
18300SOL     OW59746   6.305   2.459   1.152  0.0222 -0.1797 -0.1143
18300SOL    HW159747   6.361   2.385   1.130 -0.9393 -0.9566 -0.0467
18300SOL    HW259748   6.297   2.508   1.070 -0.8615 -1.2180 -0.6776
18301SOL     OW59749   7.166   7.132   4.655  0.0014 -0.3288  0.2905
18301SOL    HW159750   7.111   7.057   4.632  0.2462 -0.6752  0.8131
18301SOL    HW259751   7.148   7.197   4.587 -0.6059 -0.6629  0.1234
18302SOL     OW59752   6.056   1.520   4.267 -0.3996 -0.3113 -0.0385
18302SOL    HW159753   5.980   1.575   4.289 -1.2419 -1.0983 -0.8974
18302SOL    HW259754   6.082   1.549   4.179  1.5910  1.3322  1.0124
18303SOL     OW59755   0.855   9.223   8.507  0.3115 -0.3793 -0.0237
18303SOL    HW159756   0.800   9.235   8.585  0.3899 -0.7856  0.0954
18303SOL    HW259757   0.936   9.185   8.540  1.4900  2.0693  0.0798
18304SOL     OW59758   5.838   3.574   5.518  0.0290  0.1379  0.8157
18304SOL    HW159759   5.819   3.661   5.482  1.0772 -0.1776 -0.5728
18304SOL    HW259760   5.928   3.555   5.491 -0.9111 -2.3454 -0.9594
18305SOL     OW59761   4.234   3.720   6.100 -0.0628 -0.2611  0.2002
18305SOL    HW159762   4.298   3.748   6.165 -0.2469 -0.4961  0.4841
18305SOL    HW259763   4.218   3.797   6.047  0.8825 -0.3352 -0.2295
18306SOL     OW59764   8.287   0.380   2.311  0.1537  0.0763  0.2356
18306SOL    HW159765   8.315   0.402   2.223 -0.0409  0.6033  0.3002
18306SOL    HW259766   8.313   0.289   2.323 -0.3446 -0.1876 -0.5815
18307SOL     OW59767   1.785   9.504   6.564 -0.1898  0.1082  0.3508
18307SOL    HW159768   1.856   9.469   6.510 -0.3579  1.1690 -0.6188
18307SOL    HW259769   1.803   9.472   6.652  0.7389 -0.7425 -0.1300
18308SOL     OW59770   8.594   9.062   5.105  0.2581 -0.7277 -0.3379
18308SOL    HW159771   8.543   9.096   5.031 -4.5317 -2.3577  1.7428
18308SOL    HW259772   8.640   8.986   5.070 -2.7138 -2.0970 -1.6478
18309SOL     OW59773   6.849   5.781   2.107 -0.9867  0.0950 -0.8748
18309SOL    HW159774   6.920   5.814   2.052  0.6549 -2.4038 -0.4206
18309SOL    HW259775   6.876   5.801   2.197  0.3504 -2.7510 -0.5453
18310SOL     OW59776   4.060   0.900   2.240  0.2388  0.8705  0.4330
18310SOL    HW159777   4.056   0.824   2.297  0.9978  1.4420  1.2781
18310SOL    HW259778   4.151   0.903   2.210 -0.2667  0.2868 -1.2396
18311SOL     OW59779   8.490   7.134   1.907  0.0155  0.1342  0.4250
18311SOL    HW159780   8.524   7.218   1.876 -0.2933  0.1221  0.0542
18311SOL    HW259781   8.468   7.149   1.999 -0.5560  0.6152  0.2129
18312SOL     OW59782   3.817   5.617   7.246 -0.0098 -0.2584 -0.0193
18312SOL    HW159783   3.734   5.626   7.292 -0.0430 -1.0858  0.0978
18312SOL    HW259784   3.881   5.659   7.304 -0.4540  1.0802 -0.4757
18313SOL     OW59785   4.841   3.394   4.627  0.3823 -0.4989 -0.1985
18313SOL    HW159786   4.906   3.387   4.697 -1.0646 -0.5164  1.1887
18313SOL    HW259787   4.820   3.487   4.624 -0.6567 -0.6993  0.4464
18314SOL     OW59788   4.721   0.507   6.440  0.3563 -0.0344  0.0581
18314SOL    HW159789   4.689   0.473   6.356 -0.6150 -1.6654  1.0295
18314SOL    HW259790   4.792   0.566   6.416  0.3833 -0.7694 -1.8959
18315SOL     OW59791   8.477   7.628   4.945  0.2088 -0.3457 -0.2322
18315SOL    HW159792   8.532   7.586   5.011  0.3982 -0.1916 -0.2918
18315SOL    HW259793   8.440   7.556   4.895  1.9770 -0.4164 -1.5175
18316SOL     OW59794   8.374   1.843   7.317  0.0197 -0.0052  0.2016
18316SOL    HW159795   8.354   1.750   7.308  0.2162  0.0172 -0.5393
18316SOL    HW259796   8.360   1.879   7.229 -0.5135  0.7533  0.5834
18317SOL     OW59797   9.098   1.480   4.168 -0.1503  0.4922  0.2236
18317SOL    HW159798   9.193   1.468   4.173 -0.1378  0.9836  1.5102
18317SOL    HW259799   9.086   1.575   4.166 -0.5992  0.4302 -0.7757
18318SOL     OW59800   9.622   8.338   0.553  0.1435  0.0223 -0.1058
18318SOL    HW159801   9.606   8.244   0.564  0.5215 -0.1769 -1.1434
18318SOL    HW259802   9.552   8.380   0.603 -0.6986 -0.8190 -0.5312
18319SOL     OW59803   3.801   4.841   8.051  0.6474  0.0018  0.0520
18319SOL    HW159804   3.731   4.906   8.046  0.6464 -0.0083 -0.0776
18319SOL    HW259805   3.760   4.759   8.023  0.9519  0.1914 -0.9977
18320SOL     OW59806   5.247   3.162   2.942 -0.0768 -0.0101 -0.2828
18320SOL    HW159807   5.177   3.153   2.877  1.3646 -1.2679 -1.7317
18320SOL    HW259808   5.215   3.231   3.001 -3.0916 -1.3767 -0.1185
18321SOL     OW59809   3.780   9.063   4.241 -0.2930  0.3634  0.0450
18321SOL    HW159810   3.807   9.144   4.284 -0.5482  1.3169 -1.5122
18321SOL    HW259811   3.854   9.004   4.252  1.0336  1.7395 -1.1296
18322SOL     OW59812   0.290   7.123   9.183 -0.3926 -0.7939  0.9633
18322SOL    HW159813   0.340   7.043   9.162 -1.1785 -1.5981  2.0278
18322SOL    HW259814   0.212   7.091   9.227 -0.7259  0.5833  1.4100
18323SOL     OW59815   8.863   4.891   1.836  0.3348  0.4576  0.1917
18323SOL    HW159816   8.828   4.807   1.807 -0.0898  0.4541  0.6926
18323SOL    HW259817   8.871   4.883   1.931 -0.6562  1.3092  0.3688
18324SOL     OW59818   1.176   4.138   0.608 -0.8282  0.0465  0.6823
18324SOL    HW159819   1.142   4.177   0.527 -1.5423 -0.1664  0.8735
18324SOL    HW259820   1.231   4.065   0.578 -0.6672  0.2899  0.3752
18325SOL     OW59821   9.238   6.228   3.975  0.4815  0.0417 -0.6483
18325SOL    HW159822   9.149   6.202   3.951  0.6172 -0.0077 -1.1013
18325SOL    HW259823   9.293   6.191   3.906  0.8229  0.3299 -0.5325
18326SOL     OW59824   8.461   0.599   8.908  0.1230  0.0979  0.2901
18326SOL    HW159825   8.368   0.582   8.922  0.1568 -0.6380 -0.3106
18326SOL    HW259826   8.496   0.516   8.875  0.3778  1.1590 -2.4243
18327SOL     OW59827   3.694   8.944   0.572  0.0598  0.1701  0.0847
18327SOL    HW159828   3.676   8.912   0.661  0.3466 -0.2317  0.0011
18327SOL    HW259829   3.622   8.912   0.519 -1.5286  2.5678  0.6303
18328SOL     OW59830   8.639   4.969   9.740 -0.2738  0.2116  0.2903
18328SOL    HW159831   8.590   4.997   9.663 -0.5807  0.7532  0.6780
18328SOL    HW259832   8.625   5.038   9.804  0.6038  0.1365  0.5743
18329SOL     OW59833   9.235   9.522   6.133 -0.9885 -0.2078  0.0717
18329SOL    HW159834   9.302   9.462   6.102  0.3794  1.1987  0.1603
18329SOL    HW259835   9.183   9.542   6.055  0.8170  1.2842 -0.8416
18330SOL     OW59836   2.826   8.690   3.786  0.2761 -0.3201  0.2422
18330SOL    HW159837   2.786   8.603   3.780  1.3570 -1.1169  2.9561
18330SOL    HW259838   2.776   8.735   3.854 -1.2206  1.8561 -2.1118
18331SOL     OW59839   0.137   1.389   8.635  0.0686 -0.3279  0.4251
18331SOL    HW159840   0.152   1.336   8.713 -0.1803 -0.4189  0.4129
18331SOL    HW259841   0.148   1.480   8.665 -1.4058 -0.2766  0.9045
18332SOL     OW59842   7.079   4.336   1.910  0.5429  0.7411 -0.3391
18332SOL    HW159843   7.099   4.326   1.817  0.9086  0.2096 -0.2123
18332SOL    HW259844   6.984   4.343   1.914  0.6240  3.4620 -0.9854
18333SOL     OW59845   2.139   0.351   5.976 -0.4635 -0.8418  0.4816
18333SOL    HW159846   2.162   0.260   5.957  0.3259 -0.5494  0.0068
18333SOL    HW259847   2.147   0.396   5.893 -0.8802 -0.3302  0.7110
18334SOL     OW59848   3.299   0.594   6.159 -0.5046  0.0459 -0.1395
18334SOL    HW159849   3.290   0.629   6.071  0.4317  0.0960 -0.2310
18334SOL    HW259850   3.249   0.513   6.159 -1.2539  0.5009 -0.4408
18335SOL     OW59851   1.501   9.262   2.636  0.5745  0.7536  0.4271
18335SOL    HW159852   1.421   9.241   2.587  0.8903  0.2066  0.1242
18335SOL    HW259853   1.547   9.324   2.580  1.2345 -0.3528 -0.2925
18336SOL     OW59854   8.366   1.582   9.598 -0.3498  0.2997 -0.3939
18336SOL    HW159855   8.293   1.575   9.660  0.7317  0.4410  0.9382
18336SOL    HW259856   8.341   1.525   9.525 -1.1163 -0.8637  0.7266
18337SOL     OW59857   2.331   3.102   6.158 -0.5865 -0.3971  0.2574
18337SOL    HW159858   2.371   3.149   6.230  1.7744 -0.7244 -0.7430
18337SOL    HW259859   2.329   3.165   6.086 -1.9736 -0.3790  0.2888
18338SOL     OW59860   0.725   3.682   3.066  0.4845  0.0831  0.1522
18338SOL    HW159861   0.696   3.708   3.153 -0.4306 -1.2946  0.2970
18338SOL    HW259862   0.790   3.747   3.041  2.1917 -0.5385  2.6365
18339SOL     OW59863   8.142   0.710   9.538 -0.7760  0.3545  0.7654
18339SOL    HW159864   8.151   0.786   9.481 -0.9904 -0.5304 -0.4768
18339SOL    HW259865   8.092   0.647   9.486  1.0217 -1.3848  1.0335
18340SOL     OW59866   8.957   4.602   6.325  0.0618  0.0095 -0.0733
18340SOL    HW159867   8.883   4.648   6.364  0.0800  0.3578 -0.4449
18340SOL    HW259868   8.922   4.517   6.299 -0.3733  0.4173 -0.8442
18341SOL     OW59869   6.247   6.172   8.762 -0.1364 -0.3888 -0.1093
18341SOL    HW159870   6.306   6.248   8.761  0.4208 -0.6778  2.6523
18341SOL    HW259871   6.161   6.208   8.742  0.2609  0.8482  0.3253
18342SOL     OW59872   7.876   7.880   1.232  0.3328  0.0708 -0.6616
18342SOL    HW159873   7.955   7.826   1.232 -0.6471 -1.5016  1.3358
18342SOL    HW259874   7.886   7.937   1.155  3.3293 -0.1093 -0.5262
18343SOL     OW59875   5.457   7.401   0.774 -0.0328 -0.4409  0.0927
18343SOL    HW159876   5.445   7.486   0.733  0.6395 -0.5862 -0.4396
18343SOL    HW259877   5.529   7.413   0.836 -0.8459 -0.2968  1.0310
18344SOL     OW59878   9.454   0.363   8.775  0.0568 -0.2624  0.2361
18344SOL    HW159879   9.524   0.423   8.747 -0.3892  0.2763  0.2578
18344SOL    HW259880   9.379   0.387   8.721  0.0794 -1.3018 -0.2667
18345SOL     OW59881   8.007   7.495   0.494  0.5547 -0.0051 -0.4728
18345SOL    HW159882   7.919   7.480   0.530  0.2755 -0.0880 -1.1754
18345SOL    HW259883   8.015   7.431   0.423  1.3940 -0.3574 -0.0693
18346SOL     OW59884   8.364   2.932   1.358 -0.4500  0.1087  0.6447
18346SOL    HW159885   8.301   2.870   1.321 -0.1199 -1.1009  2.0071
18346SOL    HW259886   8.321   2.965   1.437  0.4281 -0.3755  1.3349
18347SOL     OW59887   4.792   9.316   0.754 -0.3241 -0.5136  1.0791
18347SOL    HW159888   4.747   9.273   0.826 -1.0727 -0.0808  0.8856
18347SOL    HW259889   4.744   9.288   0.676 -1.6175  1.5617  1.0367
18348SOL     OW59890   0.069   1.882   4.214 -0.2725 -0.0539  0.3058
18348SOL    HW159891   0.118   1.952   4.257 -1.4484 -0.2909  2.1286
18348SOL    HW259892   0.123   1.859   4.138  2.0002  0.3300  1.6863
18349SOL     OW59893   3.041   9.353   5.299 -0.0590 -0.4234  0.3517
18349SOL    HW159894   2.969   9.412   5.277  0.1864  0.2452  1.2829
18349SOL    HW259895   3.034   9.341   5.393  0.1569 -1.5563  0.2354
18350SOL     OW59896   5.606   8.115   0.025  0.3459  0.1866 -0.6156
18350SOL    HW159897   5.675   8.049   0.019  1.2975  1.1301 -0.2568
18350SOL    HW259898   5.592   8.125   0.119 -0.3221 -0.0284 -0.6875
18351SOL     OW59899   2.043   3.060   7.106 -0.5110 -0.2053  0.3077
18351SOL    HW159900   2.029   3.041   7.014  2.4045  2.0099 -0.7515
18351SOL    HW259901   1.960   3.095   7.136 -1.5920 -1.1930 -1.3781
18352SOL     OW59902   5.439   5.713   3.727  0.0788  0.0166 -0.0921
18352SOL    HW159903   5.437   5.618   3.737 -0.9180 -0.0517 -0.8964
18352SOL    HW259904   5.349   5.741   3.742  0.2249  0.7597 -0.5704
18353SOL     OW59905   5.386   0.134   0.837 -0.1757  0.1125 -0.4705
18353SOL    HW159906   5.297   0.167   0.829  0.2174  1.4887  0.5726
18353SOL    HW259907   5.420   0.174   0.917  1.8677  0.7903 -1.5978
18354SOL     OW59908   0.162   2.348   0.885  0.5706 -0.1281  0.0533
18354SOL    HW159909   0.197   2.422   0.836  1.2535  1.4024  2.6611
18354SOL    HW259910   0.075   2.333   0.847  1.2191  0.6928 -1.8345
18355SOL     OW59911   0.485   1.694   8.983 -0.0526  0.7289 -0.2871
18355SOL    HW159912   0.397   1.727   8.966 -0.6559 -0.3463  0.6141
18355SOL    HW259913   0.489   1.611   8.934  0.2082  0.4375  0.2198
18356SOL     OW59914   0.387   2.490   1.280 -0.0648  0.4521  0.3794
18356SOL    HW159915   0.333   2.558   1.320  1.1793  1.9995 -0.4583
18356SOL    HW259916   0.471   2.496   1.326  0.7657  1.0055 -1.1341
18357SOL     OW59917   4.059   4.245   8.328 -0.1521  0.1446  0.2235
18357SOL    HW159918   3.965   4.256   8.340 -0.1719  0.5246 -0.2190
18357SOL    HW259919   4.068   4.212   8.238  0.1297 -0.0164  0.3080
18358SOL     OW59920   9.170   5.357   3.754  0.0395  0.1698 -0.1040
18358SOL    HW159921   9.161   5.383   3.845  0.0073 -1.9304  0.5572
18358SOL    HW259922   9.083   5.371   3.716 -0.8912 -1.8596  1.0886
18359SOL     OW59923   6.462   8.892   8.717 -0.2074 -0.0994  0.3421
18359SOL    HW159924   6.392   8.828   8.704 -1.3464  1.1652 -0.0021
18359SOL    HW259925   6.520   8.879   8.642 -0.8903 -0.1495 -0.1867
18360SOL     OW59926   4.112   3.601   7.432  0.7819 -0.2289  0.2506
18360SOL    HW159927   4.065   3.665   7.379 -0.5760  0.3631  2.0734
18360SOL    HW259928   4.157   3.653   7.498  3.1195 -0.8852 -0.7046
18361SOL     OW59929   8.158   4.003   0.859 -0.2983  0.0183 -0.1336
18361SOL    HW159930   8.245   4.043   0.862 -0.0917 -0.3872  3.2178
18361SOL    HW259931   8.113   4.047   0.787  1.7430  2.2595 -0.1470
18362SOL     OW59932   4.841   1.687   5.545  0.1313 -0.3025 -0.4003
18362SOL    HW159933   4.763   1.693   5.601  0.4047 -0.5140  0.0140
18362SOL    HW259934   4.893   1.763   5.568  0.4414 -0.6142 -0.0562
18363SOL     OW59935   1.163   2.427   3.155  0.1300  0.1562 -0.5064
18363SOL    HW159936   1.226   2.451   3.087  1.7728 -2.2043  0.0424
18363SOL    HW259937   1.121   2.347   3.121 -0.1319 -0.1841  0.5887
18364SOL     OW59938   2.790   6.936   7.396 -0.0512  0.0593  0.1843
18364SOL    HW159939   2.855   6.897   7.453  0.3941 -0.2046 -0.4924
18364SOL    HW259940   2.722   6.869   7.386 -0.6743  0.5060  1.2655
18365SOL     OW59941   9.305   9.750   8.544  0.3442  0.1382  0.3408
18365SOL    HW159942   9.344   9.713   8.624 -0.8695 -0.6837  0.5770
18365SOL    HW259943   9.376   9.802   8.505  1.1381  0.0752  1.6366
18366SOL     OW59944   8.098   6.654   6.876 -0.2017 -0.3599 -0.4005
18366SOL    HW159945   8.114   6.738   6.917 -1.1337  0.0683 -0.8773
18366SOL    HW259946   8.003   6.642   6.881 -0.0858 -1.3924 -0.3198
18367SOL     OW59947   7.048   7.590   5.151  0.1620  0.1488  0.8821
18367SOL    HW159948   7.139   7.561   5.154  0.2570  0.4416  0.7888
18367SOL    HW259949   7.010   7.541   5.078 -0.5395 -2.2431  2.6902
18368SOL     OW59950   8.600   4.722   4.135  0.2668 -0.5364  0.0742
18368SOL    HW159951   8.505   4.714   4.120  0.4501 -0.7569 -1.0467
18368SOL    HW259952   8.630   4.632   4.142  0.6892 -0.5698 -1.6667
18369SOL     OW59953   1.543   1.143   4.068 -0.1627 -0.0847 -0.1373
18369SOL    HW159954   1.540   1.049   4.049  1.2437 -0.1772 -0.0537
18369SOL    HW259955   1.525   1.149   4.161  0.1093 -0.3236 -0.0649
18370SOL     OW59956   1.173   6.737   0.442 -0.0187 -0.1135 -0.6216
18370SOL    HW159957   1.134   6.810   0.490 -0.5927 -1.1559  0.5415
18370SOL    HW259958   1.259   6.724   0.484  0.4891  0.4792 -1.4472
18371SOL     OW59959   4.613   0.049   6.859  0.6833  0.0006 -0.3243
18371SOL    HW159960   4.556  -0.018   6.822  1.1908  0.0084 -1.1394
18371SOL    HW259961   4.615   0.029   6.953  0.9868 -1.2537 -0.5768
18372SOL     OW59962   6.775   3.120   6.741 -0.1453 -0.1984  0.2033
18372SOL    HW159963   6.740   3.102   6.828  1.6923  0.5453  1.1483
18372SOL    HW259964   6.819   3.039   6.715 -0.7072 -0.4255 -0.0673
18373SOL     OW59965   0.325   2.819   1.203 -0.2769  0.8011  0.4111
18373SOL    HW159966   0.371   2.770   1.271  0.4063  0.3856 -0.3443
18373SOL    HW259967   0.339   2.911   1.226  2.0725  0.7244 -0.5291
18374SOL     OW59968   1.253   1.427   3.504 -0.0234 -0.5226 -0.3097
18374SOL    HW159969   1.182   1.467   3.455  0.0126  3.6866  2.5335
18374SOL    HW259970   1.332   1.453   3.456 -0.0911  2.0130  0.7787
18375SOL     OW59971   6.870   4.578   5.120 -0.0958  0.2588 -0.3725
18375SOL    HW159972   6.868   4.562   5.026  2.1111 -0.1161 -0.4093
18375SOL    HW259973   6.922   4.506   5.156  0.5940  1.3206  0.8892
18376SOL     OW59974   3.317   4.473   7.214  0.0748 -0.3391 -0.0853
18376SOL    HW159975   3.262   4.406   7.256  0.0821 -0.1558  0.2216
18376SOL    HW259976   3.386   4.424   7.170  0.2419 -0.5258  0.3727
18377SOL     OW59977   4.699   9.595   2.360  0.4461  0.4312 -0.6071
18377SOL    HW159978   4.774   9.641   2.396  0.3931  1.0502 -1.2556
18377SOL    HW259979   4.725   9.503   2.357  0.3725  0.3197  1.1812
18378SOL     OW59980   1.626   4.251   1.626 -0.2967 -0.1749  0.4238
18378SOL    HW159981   1.609   4.158   1.639 -0.8336  0.1313  2.0732
18378SOL    HW259982   1.679   4.277   1.702  1.1064  0.5680 -0.7555
18379SOL     OW59983   6.826   7.266   9.480  0.4471  0.5243 -0.1883
18379SOL    HW159984   6.757   7.324   9.512 -1.2980  0.4617 -3.3420
18379SOL    HW259985   6.841   7.295   9.390  3.7690 -0.2474  0.0161
18380SOL     OW59986   5.598   8.180   2.426  0.0702 -0.4912  0.8050
18380SOL    HW159987   5.616   8.146   2.339  1.3072  1.7081  0.1169
18380SOL    HW259988   5.621   8.109   2.486  1.5267 -1.2079 -0.5597
18381SOL     OW59989   6.391   4.076   3.923 -0.0230 -0.2616 -0.0884
18381SOL    HW159990   6.423   4.066   3.833  1.8149  1.2284  0.3266
18381SOL    HW259991   6.383   3.987   3.956 -1.3586 -0.8756 -1.9011
18382SOL     OW59992   6.324   8.016   4.993 -0.0395 -0.1462  0.3110
18382SOL    HW159993   6.410   8.039   4.958 -0.1604 -1.1599 -0.6934
18382SOL    HW259994   6.342   7.954   5.063  0.0502 -0.3870  0.0757
18383SOL     OW59995   6.604   3.622   9.103  0.7756 -0.0034  0.2570
18383SOL    HW159996   6.612   3.621   9.008  1.5918 -0.3598  0.3261
18383SOL    HW259997   6.572   3.710   9.123  0.1838 -0.0716 -0.3756
18384SOL     OW59998   4.933   4.195   8.972 -0.5484  0.5730 -0.6848
18384SOL    HW159999   4.936   4.275   8.920  3.3239  0.2340 -1.3122
18384SOL    HW260000   4.989   4.213   9.047 -0.7269 -1.0996 -0.1114
18385SOL     OW60001   6.069   0.808   0.134 -0.3044  0.2802 -0.4211
18385SOL    HW160002   6.103   0.735   0.186 -1.0741 -0.0267 -0.3374
18385SOL    HW260003   6.142   0.832   0.077  1.0149  1.4353  1.6220
18386SOL     OW60004   4.431   5.601   4.189 -0.2468 -0.4696  0.2310
18386SOL    HW160005   4.423   5.635   4.278 -2.5273 -1.8258  0.6320
18386SOL    HW260006   4.404   5.674   4.134 -4.0204 -1.0544  1.0274
18387SOL     OW60007   8.970   7.720   4.678  0.2404  0.5538  0.7825
18387SOL    HW160008   8.953   7.759   4.593  0.3403 -0.0827  0.4628
18387SOL    HW260009   9.003   7.632   4.658 -0.7343  0.0078  1.4846
18388SOL     OW60010   1.177   8.589   7.103 -0.3738  0.3836 -0.3607
18388SOL    HW160011   1.224   8.512   7.070 -1.1962  0.2322 -1.2267
18388SOL    HW260012   1.215   8.663   7.054 -0.3375  0.3871 -0.3270
18389SOL     OW60013   5.659   8.073   5.780 -0.1310 -0.7110 -0.2230
18389SOL    HW160014   5.612   8.006   5.829 -2.0408 -0.8295 -2.0442
18389SOL    HW260015   5.664   8.148   5.839 -1.5207 -1.1506  0.4898
18390SOL     OW60016   2.852   6.771   8.575 -0.4085  0.4417 -0.5320
18390SOL    HW160017   2.934   6.743   8.536  0.7368  2.4390  0.3257
18390SOL    HW260018   2.876   6.840   8.637 -2.3309 -1.3050  2.3992
18391SOL     OW60019   1.879   8.825   6.733 -0.0888  0.2498  0.0315
18391SOL    HW160020   1.927   8.804   6.813  0.1617  0.9930  0.0884
18391SOL    HW260021   1.829   8.903   6.756  1.3174  1.5361 -1.0162
18392SOL     OW60022   8.215   3.016   3.449 -0.4654 -0.1524  0.4811
18392SOL    HW160023   8.297   3.022   3.498 -0.3576 -1.8446  0.5907
18392SOL    HW260024   8.196   2.922   3.448 -2.5566  0.2351  0.7045
18393SOL     OW60025   1.334   5.920   4.545  0.3640  0.5040  0.3221
18393SOL    HW160026   1.380   5.977   4.605  1.2814 -0.4945  0.5875
18393SOL    HW260027   1.399   5.854   4.518 -0.1935  0.5318 -1.2429
18394SOL     OW60028   5.452   9.357   5.468 -0.0085 -0.9129  0.3378
18394SOL    HW160029   5.358   9.372   5.454  0.1849  0.3465  0.3429
18394SOL    HW260030   5.465   9.265   5.442 -1.2292 -1.1000  0.3211
18395SOL     OW60031   4.394   4.915   8.870 -0.1153  0.1372 -0.1667
18395SOL    HW160032   4.336   4.889   8.798 -0.8493 -0.0469  0.4813
18395SOL    HW260033   4.344   4.979   8.920 -0.2903 -0.9946  1.1548
18396SOL     OW60034   4.603   3.577   6.938  0.0719  0.6431 -0.1864
18396SOL    HW160035   4.582   3.647   7.000 -2.3362 -0.9656  0.9271
18396SOL    HW260036   4.622   3.501   6.993 -2.2325 -0.8650 -1.3183
18397SOL     OW60037   6.260   1.927   6.360 -0.3042  0.3246 -0.2788
18397SOL    HW160038   6.346   1.930   6.403 -0.4469 -1.4687  0.2207
18397SOL    HW260039   6.208   1.992   6.407 -0.4148 -1.4813  2.3151
18398SOL     OW60040   2.964   1.007   4.673  0.2874 -0.2777  0.2615
18398SOL    HW160041   2.999   0.935   4.726  0.6223  0.9022  1.6862
18398SOL    HW260042   2.884   0.970   4.634 -0.2326 -1.0532  1.9637
18399SOL     OW60043   7.115   4.279   8.712  0.2004 -0.4833  0.7038
18399SOL    HW160044   7.079   4.345   8.654  1.0640 -0.5297  0.1088
18399SOL    HW260045   7.038   4.233   8.746 -0.3151 -0.9050 -0.9322
18400SOL     OW60046   4.562   0.503   9.270 -0.3478  0.2582 -0.5332
18400SOL    HW160047   4.476   0.541   9.254 -1.0629 -1.0468  0.0159
18400SOL    HW260048   4.583   0.454   9.190 -0.2713  0.3057 -0.5426
18401SOL     OW60049   0.002   4.193   0.566 -0.9767  0.1716 -0.0192
18401SOL    HW160050  -0.010   4.171   0.659  0.3936 -2.6677 -0.4202
18401SOL    HW260051   0.094   4.172   0.548 -0.7290  2.3446 -1.6522
18402SOL     OW60052   1.310   5.987   5.601  0.0884  0.1646 -0.0642
18402SOL    HW160053   1.340   5.911   5.551  1.0025  0.8762 -0.6318
18402SOL    HW260054   1.381   6.005   5.662 -0.8801 -0.4884  1.2940
18403SOL     OW60055   8.871   0.249   2.820 -0.0498  0.4569  0.5652
18403SOL    HW160056   8.913   0.232   2.736 -0.5505 -1.2835  0.6387
18403SOL    HW260057   8.812   0.322   2.803  0.3509  0.5635 -0.4221
18404SOL     OW60058   3.729   7.446   5.334 -0.2628  0.0051  0.0020
18404SOL    HW160059   3.767   7.459   5.421  0.9595 -0.6616 -0.4040
18404SOL    HW260060   3.639   7.420   5.350 -0.0037 -0.2527  1.0732
18405SOL     OW60061   2.820   4.087   1.495  0.3387  0.1041  0.0375
18405SOL    HW160062   2.876   4.122   1.564  4.7244 -0.2430 -2.9684
18405SOL    HW260063   2.815   3.993   1.514  2.9877 -0.2997 -0.8296
18406SOL     OW60064   2.362   3.801   7.374  0.2982 -0.4097  0.6200
18406SOL    HW160065   2.429   3.785   7.307 -0.6309 -0.1842 -0.3799
18406SOL    HW260066   2.330   3.889   7.355 -1.3318 -1.0836  0.1426
18407SOL     OW60067   0.099   3.844   3.351 -0.3211 -0.4838 -0.1584
18407SOL    HW160068   0.184   3.884   3.368 -0.7357  0.7991 -0.9647
18407SOL    HW260069   0.064   3.825   3.438 -0.4952  1.8103  0.3320
18408SOL     OW60070   0.655   1.941   0.518  0.0999  0.2178  0.1752
18408SOL    HW160071   0.571   1.944   0.472 -0.9718 -1.0683  1.9343
18408SOL    HW260072   0.717   1.978   0.455 -1.3386 -0.9583 -2.0995
18409SOL     OW60073   5.222   5.317   9.195  0.4948  0.2568  0.4721
18409SOL    HW160074   5.312   5.309   9.162  0.2350 -0.5219 -0.0666
18409SOL    HW260075   5.174   5.359   9.124 -0.2859 -2.2980 -0.6233
18410SOL     OW60076   7.625   0.727   6.765  0.2157  0.2961  0.8018
18410SOL    HW160077   7.590   0.785   6.697  1.6746  0.2155 -0.0569
18410SOL    HW260078   7.563   0.734   6.837  0.4928  3.1773  0.8587
18411SOL     OW60079   1.993   4.670   5.453  0.3302  0.2462  0.0718
18411SOL    HW160080   2.016   4.714   5.372 -1.4599 -0.1418 -0.7025
18411SOL    HW260081   2.013   4.578   5.436 -0.6506  0.0700 -0.1987
18412SOL     OW60082   8.811   9.555   8.699 -0.0940 -0.1459 -0.5874
18412SOL    HW160083   8.814   9.529   8.607 -0.7212  0.4648 -0.7936
18412SOL    HW260084   8.858   9.639   8.702  0.6925 -0.5876 -0.1859
18413SOL     OW60085   8.537   4.529   0.835  0.8334 -0.6757  0.4054
18413SOL    HW160086   8.605   4.508   0.772 -0.0519 -2.4626 -0.0104
18413SOL    HW260087   8.457   4.491   0.798 -1.0751  3.6571 -0.5076
18414SOL     OW60088   3.745   6.627   5.669  0.4251 -0.6022  0.6524
18414SOL    HW160089   3.794   6.669   5.598  0.5142  0.1009  1.1244
18414SOL    HW260090   3.794   6.546   5.686 -0.3027 -1.4296 -0.9314
18415SOL     OW60091   2.588   6.477   1.844 -0.2894 -0.6365  0.5051
18415SOL    HW160092   2.526   6.468   1.916  2.0538 -2.0079  2.5147
18415SOL    HW260093   2.660   6.529   1.881  0.1799  0.1940 -1.4498
18416SOL     OW60094   6.025   9.170   4.823  0.1076  0.2631 -0.1485
18416SOL    HW160095   6.087   9.203   4.889  1.2178 -0.8023 -0.6316
18416SOL    HW260096   5.939   9.184   4.863  0.7819 -1.4849  2.1019
18417SOL     OW60097   2.313   4.685   7.144  0.7960 -0.2832 -0.7421
18417SOL    HW160098   2.351   4.766   7.177 -0.0254 -0.1697 -0.0313
18417SOL    HW260099   2.316   4.693   7.049 -1.8291  1.8624 -0.7715
18418SOL     OW60100   5.160   6.086   8.503  0.5341  0.0107 -0.3613
18418SOL    HW160101   5.248   6.080   8.465  0.2516 -0.7767 -0.9433
18418SOL    HW260102   5.174   6.106   8.595  1.2588  1.6593 -0.8006
18419SOL     OW60103   6.650   8.490   0.553  0.7193  0.1952  0.1676
18419SOL    HW160104   6.608   8.436   0.486 -1.2670  0.5347  1.0669
18419SOL    HW260105   6.683   8.426   0.617  0.8748 -0.0638 -0.1706
18420SOL     OW60106   5.750   0.467   3.379 -0.9081 -0.0419 -0.2006
18420SOL    HW160107   5.838   0.494   3.351 -0.8276 -0.1308 -0.0386
18420SOL    HW260108   5.696   0.476   3.301 -0.8042  0.2392 -0.2410
18421SOL     OW60109   1.187   6.017   6.476  0.1969 -0.6977  0.0991
18421SOL    HW160110   1.148   6.046   6.559  1.2853 -0.2056  0.4596
18421SOL    HW260111   1.178   5.922   6.478  0.9319 -0.7763  1.1960
18422SOL     OW60112   2.538   4.815   3.552 -0.1888 -0.3628 -0.1459
18422SOL    HW160113   2.445   4.834   3.537 -0.6449 -0.8504  1.7187
18422SOL    HW260114   2.562   4.871   3.626  0.9173 -0.4665 -0.4129
18423SOL     OW60115   4.777   5.846   5.453 -0.1363  0.5070  0.1306
18423SOL    HW160116   4.866   5.823   5.425 -0.8128 -1.2944 -0.7043
18423SOL    HW260117   4.732   5.870   5.372 -0.3839  1.5644  0.5702
18424SOL     OW60118   9.703   7.248   0.749 -0.4146  0.0178  0.0962
18424SOL    HW160119   9.654   7.329   0.736 -0.9291 -0.1449  1.0027
18424SOL    HW260120   9.793   7.277   0.762 -0.5490  0.4258  0.1369
18425SOL     OW60121   7.201   1.364   4.300  0.1222  0.4459  0.4912
18425SOL    HW160122   7.140   1.320   4.240 -0.4783  1.8499  0.0392
18425SOL    HW260123   7.280   1.310   4.296 -0.5055 -0.4765 -0.1985
18426SOL     OW60124   3.394   2.920   5.479  0.0753  0.4221  0.6908
18426SOL    HW160125   3.372   2.937   5.570  0.9463 -0.6843  1.1337
18426SOL    HW260126   3.486   2.892   5.481  0.5211  1.6577 -0.6856
18427SOL     OW60127   0.302   6.622   2.282 -0.0801 -0.5980 -0.0470
18427SOL    HW160128   0.382   6.575   2.307  0.6713  0.5422 -0.2132
18427SOL    HW260129   0.256   6.636   2.364  1.0197  0.6960  0.3930
18428SOL     OW60130   0.270   0.021   7.492  0.3396 -0.3030  0.6762
18428SOL    HW160131   0.325  -0.057   7.486  1.0375  0.2059  0.3256
18428SOL    HW260132   0.201   0.006   7.427  0.1652 -0.8543  0.9786
18429SOL     OW60133   1.618   5.617   6.883 -0.1922  0.9789  0.4894
18429SOL    HW160134   1.538   5.621   6.831 -0.2015  0.3829  0.4558
18429SOL    HW260135   1.623   5.527   6.914  2.3639 -0.1133 -2.5419
18430SOL     OW60136   6.277   4.268   3.368  0.7891  0.9328 -0.3608
18430SOL    HW160137   6.247   4.359   3.377  2.4112  1.3460  1.3902
18430SOL    HW260138   6.208   4.216   3.411 -0.4256  1.2278 -1.8620
18431SOL     OW60139   8.934   0.136   1.682 -0.2968 -0.4454 -0.6130
18431SOL    HW160140   8.864   0.104   1.625 -1.9672  1.1222  0.4450
18431SOL    HW260141   8.923   0.085   1.763  0.2413 -0.6749 -0.6814
18432SOL     OW60142   4.590   1.952   1.325  0.0147  0.2994 -0.1839
18432SOL    HW160143   4.520   1.940   1.261 -0.5639 -0.3051  0.5456
18432SOL    HW260144   4.600   1.867   1.366 -0.7509  1.0501  1.6720
18433SOL     OW60145   6.306   0.477   1.607 -0.3950 -0.0447  0.1709
18433SOL    HW160146   6.381   0.533   1.591  0.2304 -0.5703  1.1306
18433SOL    HW260147   6.315   0.406   1.544  0.0595 -0.2329  0.4426
18434SOL     OW60148   0.133   0.995   4.025 -0.2775 -0.3182  0.2515
18434SOL    HW160149   0.060   0.936   4.041 -2.4756  2.1637  0.0743
18434SOL    HW260150   0.168   1.014   4.112 -2.7041  1.7547  0.8912
18435SOL     OW60151   9.285   7.337   3.452 -0.2496 -0.1567  0.1284
18435SOL    HW160152   9.348   7.310   3.385 -1.0304 -0.9198 -0.3224
18435SOL    HW260153   9.265   7.428   3.431 -1.6332 -0.8203 -1.6301
18436SOL     OW60154   5.444   1.491   6.887 -0.6380  0.2283  0.3860
18436SOL    HW160155   5.415   1.469   6.799  2.5101 -1.3348 -0.4068
18436SOL    HW260156   5.408   1.423   6.944 -0.6041 -0.2287 -0.1397
18437SOL     OW60157   0.015   2.071   6.357  0.6591 -0.4700  0.5508
18437SOL    HW160158   0.030   2.067   6.263  1.1245 -0.3508  0.6181
18437SOL    HW260159  -0.050   2.002   6.374 -1.0638  0.8871 -0.1618
18438SOL     OW60160   1.630   8.238   2.299  0.2525  0.7373 -0.3299
18438SOL    HW160161   1.593   8.210   2.383 -0.0109  0.6857 -0.4606
18438SOL    HW260162   1.580   8.188   2.234  1.9118 -0.8992 -0.4450
18439SOL     OW60163   0.748   6.693   1.650 -0.0330 -0.0280 -0.3734
18439SOL    HW160164   0.762   6.600   1.630 -1.3223  0.1377 -2.2989
18439SOL    HW260165   0.654   6.699   1.670 -0.3166  1.0982 -1.9185
18440SOL     OW60166   9.174   9.264   7.869 -0.8072 -0.7766  0.0822
18440SOL    HW160167   9.082   9.241   7.863 -0.2785 -2.6780 -1.6454
18440SOL    HW260168   9.188   9.328   7.798 -1.0839  0.8102  1.3857
18441SOL     OW60169   3.607   8.219   6.361  0.3389 -0.0533  0.4843
18441SOL    HW160170   3.559   8.290   6.319  0.1707 -0.3224  0.2087
18441SOL    HW260171   3.543   8.177   6.418 -0.3360 -1.5632 -1.2546
18442SOL     OW60172   7.296   1.710   7.539  0.0775 -0.3503  0.5568
18442SOL    HW160173   7.261   1.770   7.473  0.7214  0.4654  0.9297
18442SOL    HW260174   7.321   1.632   7.491 -0.4640 -0.1905  0.0064
18443SOL     OW60175   2.758   7.308   0.927  0.4956 -0.9543  0.0059
18443SOL    HW160176   2.728   7.372   0.991  1.9178 -0.9977  0.7483
18443SOL    HW260177   2.717   7.336   0.845  1.3684  1.1592  0.2195
18444SOL     OW60178   7.203   5.419   0.385  0.6072 -0.2036 -0.3287
18444SOL    HW160179   7.199   5.355   0.313  1.3725 -0.3177 -0.2813
18444SOL    HW260180   7.239   5.370   0.458 -1.8425 -0.5920  0.7259
18445SOL     OW60181   2.742   9.663   8.932  0.4275 -0.1678  0.1082
18445SOL    HW160182   2.654   9.677   8.896  0.5752 -1.0479 -0.6298
18445SOL    HW260183   2.728   9.653   9.026 -0.5332 -2.2369 -0.1959
18446SOL     OW60184   0.420   6.088   2.424 -0.5085 -0.6667  0.8590
18446SOL    HW160185   0.363   6.137   2.365  1.1046  0.0322 -0.1953
18446SOL    HW260186   0.361   6.048   2.488 -1.8941  2.9316  2.0267
18447SOL     OW60187   0.336   3.868   7.750 -0.5537  0.3899 -0.5761
18447SOL    HW160188   0.265   3.831   7.803 -0.7808  0.9191 -0.5077
18447SOL    HW260189   0.389   3.918   7.812  0.4232 -0.7725 -0.4492
18448SOL     OW60190   4.163   6.652   0.328 -0.7708  0.2377  0.3623
18448SOL    HW160191   4.164   6.569   0.279  0.2858 -0.5254  1.5895
18448SOL    HW260192   4.083   6.647   0.380 -0.2676 -0.4689  1.1075
18449SOL     OW60193   5.307   3.428   7.180  0.0705 -0.4088  0.9417
18449SOL    HW160194   5.378   3.393   7.233 -0.2504 -3.1465 -0.2799
18449SOL    HW260195   5.350   3.478   7.110  0.7576 -1.2721  0.7433
18450SOL     OW60196   3.282   4.771   4.365 -0.0131 -0.7048  0.5934
18450SOL    HW160197   3.362   4.807   4.327 -0.2135 -1.2931 -0.4461
18450SOL    HW260198   3.309   4.735   4.449  1.1603 -2.2326 -0.3768
18451SOL     OW60199   2.415   3.517   9.159 -0.2472 -0.0258 -0.3503
18451SOL    HW160200   2.394   3.489   9.069  4.0819  0.8171 -1.8632
18451SOL    HW260201   2.475   3.451   9.191  0.3735  1.0921  0.8718
18452SOL     OW60202   8.706   2.297   9.195 -1.0122 -0.5150 -0.0801
18452SOL    HW160203   8.788   2.257   9.224 -1.6426 -0.8915  1.2214
18452SOL    HW260204   8.725   2.328   9.106  1.8135  2.9219  1.4595
18453SOL     OW60205   4.305   1.760   1.493 -0.6545  0.1537 -0.3128
18453SOL    HW160206   4.370   1.755   1.423 -0.7882  0.7159 -0.4818
18453SOL    HW260207   4.353   1.733   1.572 -0.2368  0.4906 -0.4483
18454SOL     OW60208   6.055   8.791   0.309  0.0014  0.2579 -0.1474
18454SOL    HW160209   6.049   8.815   0.401  0.7219 -0.6640  0.1672
18454SOL    HW260210   5.976   8.826   0.269 -0.6576  0.0784  0.9639
18455SOL     OW60211   4.999   6.011   6.255 -0.2702  0.5050  0.0368
18455SOL    HW160212   4.944   6.022   6.177 -1.6585  0.4750  0.9878
18455SOL    HW260213   5.078   5.967   6.222  1.1392  4.1705 -2.1468
18456SOL     OW60214   9.324   5.371   0.136 -0.2672 -0.5433 -0.0022
18456SOL    HW160215   9.335   5.466   0.126 -2.8704 -0.2438 -0.6777
18456SOL    HW260216   9.231   5.360   0.154  0.0539 -2.9739  0.4591
18457SOL     OW60217   4.025   5.255   1.256 -0.2959  0.0520 -0.3563
18457SOL    HW160218   4.102   5.197   1.260  1.4094  2.2122  2.2946
18457SOL    HW260219   4.059   5.338   1.225 -2.1613  0.4021 -1.6105
18458SOL     OW60220   6.100   6.266   7.779  0.1782  0.7531  0.7025
18458SOL    HW160221   6.175   6.304   7.825  0.2946  1.1206  0.2271
18458SOL    HW260222   6.036   6.249   7.847  1.3054 -1.1025  1.3542
18459SOL     OW60223   3.344   7.145   6.938  0.6925 -0.4609  0.3704
18459SOL    HW160224   3.276   7.202   6.975  1.6884 -0.5505  2.4797
18459SOL    HW260225   3.308   7.057   6.947 -0.0216 -0.3429 -1.0675
18460SOL     OW60226   3.791   6.105   2.629  0.4875 -0.4153  0.2689
18460SOL    HW160227   3.784   6.059   2.545 -0.8366  1.6687 -0.8362
18460SOL    HW260228   3.879   6.143   2.628  0.1419  0.3942 -0.6395
18461SOL     OW60229   3.457   2.587   3.881 -0.0494  0.3162  0.2147
18461SOL    HW160230   3.509   2.543   3.814  1.1582 -1.2847  2.0877
18461SOL    HW260231   3.501   2.671   3.894  0.8616 -0.1753  0.3518
18462SOL     OW60232   0.995   5.162   7.231  0.2357  0.0601  0.1037
18462SOL    HW160233   0.996   5.111   7.149 -2.1340 -0.9010  0.5883
18462SOL    HW260234   1.082   5.203   7.235  0.9386 -1.0456 -2.1379
18463SOL     OW60235   0.787   2.052   0.314 -0.2687  0.3141  0.5219
18463SOL    HW160236   0.796   2.137   0.270  0.9945 -0.2567 -0.3717
18463SOL    HW260237   0.856   1.998   0.276  2.2925  0.3384  4.5114
18464SOL     OW60238   3.285   0.108   0.024  0.3883  0.2797  0.1088
18464SOL    HW160239   3.356   0.072  -0.029  0.8663 -0.0771  0.9672
18464SOL    HW260240   3.214   0.044   0.015  0.8109 -0.2825  0.6622
18465SOL     OW60241   8.104   6.874   1.350  0.6448 -0.1558  0.3920
18465SOL    HW160242   8.145   6.834   1.273 -0.6514 -2.9467  1.0437
18465SOL    HW260243   8.044   6.939   1.313 -0.0788 -1.5508 -1.0355
18466SOL     OW60244   5.027   0.804   1.788  0.6592  0.0917  0.1387
18466SOL    HW160245   5.121   0.787   1.781  0.9405  0.9950  1.3446
18466SOL    HW260246   5.005   0.779   1.878 -0.0801  0.6969  0.1387
18467SOL     OW60247   2.842   5.375   5.188  0.2486 -0.3737  0.5993
18467SOL    HW160248   2.867   5.319   5.262  0.6857 -1.8957 -0.6517
18467SOL    HW260249   2.748   5.359   5.177  0.5710 -1.6783 -0.3925
18468SOL     OW60250   3.047   4.950   5.508  0.8830  0.1870 -0.0089
18468SOL    HW160251   2.992   4.895   5.452 -0.9655  0.4085  1.5066
18468SOL    HW260252   3.105   4.995   5.447  0.7787 -1.5629 -1.5086
18469SOL     OW60253   0.126   0.731   7.655  0.3629 -0.4242 -0.1775
18469SOL    HW160254   0.181   0.703   7.582  0.5645 -2.1551  0.5981
18469SOL    HW260255   0.057   0.664   7.660 -0.1223  0.1202  0.6943
18470SOL     OW60256   1.965   8.047   8.109 -0.8083  0.1394  0.1050
18470SOL    HW160257   1.870   8.055   8.118 -0.8404  0.6058 -0.5716
18470SOL    HW260258   1.997   8.137   8.108 -0.2338 -0.0214  1.4110
18471SOL     OW60259   3.467   0.278   0.762  0.2122  0.2241 -0.1263
18471SOL    HW160260   3.547   0.260   0.812 -0.2357 -0.7992  0.2459
18471SOL    HW260261   3.492   0.264   0.671  0.5031  0.0606 -0.0236
18472SOL     OW60262   4.781   5.629   0.880  0.3390  0.5244 -0.4529
18472SOL    HW160263   4.841   5.555   0.877 -0.0092  0.1676  0.7517
18472SOL    HW260264   4.696   5.591   0.902  0.4649  1.3969  1.8692
18473SOL     OW60265   3.532   6.684   4.591 -0.3452 -0.6736  0.1070
18473SOL    HW160266   3.574   6.751   4.536 -1.3152  1.0716  1.3867
18473SOL    HW260267   3.440   6.710   4.593 -0.4745 -1.1773  1.8537
18474SOL     OW60268   7.093   1.685   0.766 -0.0281  0.9071 -0.3867
18474SOL    HW160269   7.048   1.704   0.683  1.3688  1.5918 -1.0349
18474SOL    HW260270   7.169   1.743   0.765 -0.1331  1.1415  1.5360
18475SOL     OW60271   7.072   0.449   0.355  0.0276  0.0328  0.1853
18475SOL    HW160272   6.986   0.485   0.334  0.3122 -0.1301 -1.4267
18475SOL    HW260273   7.132   0.524   0.345  0.1164  0.0943  1.0866
18476SOL     OW60274   7.039   4.566   0.883  0.0662 -0.3370 -0.0541
18476SOL    HW160275   7.044   4.478   0.921  1.7130 -1.0910 -1.8475
18476SOL    HW260276   7.025   4.551   0.790  0.4518  1.2994 -0.3969
18477SOL     OW60277   7.241   8.436   6.968  0.3415 -0.2396 -0.1533
18477SOL    HW160278   7.309   8.485   7.013  0.2835  0.3111 -0.6488
18477SOL    HW260279   7.161   8.486   6.983  0.5920  0.8972 -2.2257
18478SOL     OW60280   5.465   9.569   1.162 -0.3413  0.0567  0.8175
18478SOL    HW160281   5.489   9.570   1.069  0.6881 -0.8577  1.0413
18478SOL    HW260282   5.426   9.655   1.178 -1.0816  0.0168 -0.5839
18479SOL     OW60283   0.822   4.666   7.380  0.1256 -0.2602  0.9434
18479SOL    HW160284   0.890   4.706   7.326  1.3190  0.3495  2.8019
18479SOL    HW260285   0.805   4.581   7.338  1.3723 -0.0325 -0.0799
18480SOL     OW60286   0.005   4.400   9.001  0.7538  0.4072  0.5011
18480SOL    HW160287  -0.007   4.365   8.913  0.3532 -0.5549  0.9164
18480SOL    HW260288  -0.060   4.469   9.008  1.1884  0.8875 -0.1569
18481SOL     OW60289   4.006   2.044   4.662  0.2852 -0.0671 -0.3506
18481SOL    HW160290   4.081   2.100   4.682  0.0130  0.5980 -1.1375
18481SOL    HW260291   3.947   2.054   4.737  2.0543 -2.5983  1.5532
18482SOL     OW60292   5.973   8.223   5.700 -0.5161  0.1395 -0.6221
18482SOL    HW160293   6.023   8.277   5.639 -1.0145  2.3042  0.7846
18482SOL    HW260294   6.036   8.158   5.731  1.4030  2.4618  0.7129
18483SOL     OW60295   9.650   6.141   7.613  0.1540  0.4114 -0.2088
18483SOL    HW160296   9.724   6.184   7.655  0.0385 -2.0032  2.7224
18483SOL    HW260297   9.574   6.170   7.663 -0.3046 -0.6909 -0.2442
18484SOL     OW60298   3.951   1.045   1.625  0.4674  0.5551 -0.2969
18484SOL    HW160299   3.890   1.019   1.695  0.0314 -0.9293 -1.1883
18484SOL    HW260300   3.983   0.963   1.589  1.2997  1.3027 -1.3286
18485SOL     OW60301   5.702   3.634   2.630  0.0597 -0.0096  0.4894
18485SOL    HW160302   5.704   3.587   2.547 -0.8741  0.5601  0.1245
18485SOL    HW260303   5.677   3.724   2.606 -0.6367  0.0624  1.4231
18486SOL     OW60304   5.108   8.493   8.012 -0.1331 -0.3258 -0.3909
18486SOL    HW160305   5.189   8.516   8.057  0.6989 -1.3589 -1.3345
18486SOL    HW260306   5.136   8.450   7.932 -1.6268 -1.1932 -0.4757
18487SOL     OW60307   3.571   0.823   7.842 -0.2151 -0.2852  0.5315
18487SOL    HW160308   3.488   0.862   7.816 -0.5255 -0.3129  1.4513
18487SOL    HW260309   3.637   0.876   7.798 -0.6822  0.4543  0.6996
18488SOL     OW60310   4.188   2.309   1.937 -0.1033 -0.3022  0.4853
18488SOL    HW160311   4.127   2.246   1.899  0.9759 -1.1315  0.0627
18488SOL    HW260312   4.255   2.255   1.979  1.2705  0.5077 -0.5671
18489SOL     OW60313   4.759   5.366   5.237 -0.2629 -0.0515  0.1368
18489SOL    HW160314   4.677   5.347   5.191  0.4146 -2.0818 -0.3467
18489SOL    HW260315   4.791   5.446   5.197 -0.7358 -0.6383 -1.4975
18490SOL     OW60316   4.572   8.725   7.314 -0.4583 -0.2401 -0.0956
18490SOL    HW160317   4.524   8.788   7.261 -0.8793 -0.3488  0.1525
18490SOL    HW260318   4.553   8.750   7.405 -1.8256 -1.5972  0.0344
18491SOL     OW60319   1.284   4.164   1.966  0.5176  0.1184 -0.0464
18491SOL    HW160320   1.279   4.095   2.033  1.7478 -0.6919 -0.7488
18491SOL    HW260321   1.378   4.175   1.950  0.2844  1.1405 -0.7947
18492SOL     OW60322   9.515   2.085   7.797 -0.5139 -0.2880 -0.2189
18492SOL    HW160323   9.549   2.131   7.721  0.7256 -0.2238  0.3552
18492SOL    HW260324   9.567   2.005   7.803  0.7672  0.6031  1.6533
18493SOL     OW60325   8.365   3.355   2.853  0.2883  0.0184  0.0628
18493SOL    HW160326   8.403   3.272   2.880  0.4480  0.0593 -0.0309
18493SOL    HW260327   8.439   3.404   2.817  0.2172  0.2449  0.2233
18494SOL     OW60328   0.069   1.576   8.422 -0.2597 -0.0777 -0.3077
18494SOL    HW160329   0.110   1.504   8.469  1.1688  0.5664 -0.5204
18494SOL    HW260330  -0.001   1.535   8.371  1.4217 -1.5647 -1.5553
18495SOL     OW60331   8.304   7.775   7.865 -0.0241  0.0156  0.3185
18495SOL    HW160332   8.377   7.721   7.832 -0.6921 -1.6462  1.4186
18495SOL    HW260333   8.312   7.858   7.817  1.3862 -0.8499 -1.0556
18496SOL     OW60334   8.414   4.219   6.659 -0.0934 -0.0793  0.1938
18496SOL    HW160335   8.474   4.146   6.643 -1.2542 -0.8367 -0.8824
18496SOL    HW260336   8.339   4.179   6.704 -0.9084  0.3611 -0.7328
18497SOL     OW60337   2.255   8.828   1.858 -0.6386 -0.2096  0.1343
18497SOL    HW160338   2.206   8.855   1.781 -0.6447 -0.7618 -0.0652
18497SOL    HW260339   2.280   8.909   1.901 -2.3529  0.0787  0.6490
18498SOL     OW60340   5.577   2.388   6.177  0.1427  0.0916  0.1240
18498SOL    HW160341   5.573   2.293   6.168 -0.1285 -0.0241  1.4147
18498SOL    HW260342   5.625   2.417   6.099  1.5659 -1.2368  0.4624
18499SOL     OW60343   1.943   2.272   4.976  0.4719 -0.1905  0.1913
18499SOL    HW160344   1.965   2.281   4.883  0.9697  1.7210  0.4564
18499SOL    HW260345   1.860   2.318   4.987  0.6671  0.0442  0.7670
18500SOL     OW60346   4.275   6.049   3.468 -0.0509  1.1466 -0.5271
18500SOL    HW160347   4.297   5.964   3.507  1.3065  0.6883 -2.1542
18500SOL    HW260348   4.268   6.109   3.542 -0.5121 -0.2689  0.6192
18501SOL     OW60349   6.561   5.742   7.179 -0.6749  0.0379 -0.1253
18501SOL    HW160350   6.490   5.792   7.140 -0.5855 -0.4769 -0.9750
18501SOL    HW260351   6.522   5.699   7.255 -1.3233 -0.3656 -0.6771
18502SOL     OW60352   9.658   4.686   0.465  0.1990 -0.5818  0.0267
18502SOL    HW160353   9.569   4.652   0.462 -0.1639  0.3015  0.3015
18502SOL    HW260354   9.712   4.615   0.433 -0.4976 -1.4874  0.7982
18503SOL     OW60355   8.243   5.532   8.749 -0.3648  0.6331  0.3158
18503SOL    HW160356   8.289   5.480   8.816 -0.9392 -0.2821  0.0280
18503SOL    HW260357   8.285   5.507   8.667  0.8385  2.3152  0.3826
18504SOL     OW60358   4.372   9.655   9.575  0.3444 -0.2335  0.1158
18504SOL    HW160359   4.351   9.563   9.590  0.7556 -0.3754 -0.1594
18504SOL    HW260360   4.445   9.673   9.633 -2.1345  0.9932  3.1187
18505SOL     OW60361   1.324   8.871   6.473 -0.5497  0.0650 -0.1241
18505SOL    HW160362   1.408   8.895   6.433 -0.7598 -0.1509 -0.7029
18505SOL    HW260363   1.339   8.784   6.509 -0.4354  0.1576  0.0588
18506SOL     OW60364   5.508   2.923   2.293  0.0776  0.4420 -0.1720
18506SOL    HW160365   5.493   3.018   2.294 -0.5335  0.3415  0.4832
18506SOL    HW260366   5.504   2.897   2.385 -1.0236 -0.4240 -0.4535
18507SOL     OW60367   6.167   3.123   7.011 -0.2259 -0.2182 -0.0710
18507SOL    HW160368   6.115   3.098   6.935 -2.1908  0.7231  0.8864
18507SOL    HW260369   6.231   3.184   6.976  1.4818 -2.6755 -1.5768
18508SOL     OW60370   1.446   6.920   7.996 -0.1314 -0.6200  0.5460
18508SOL    HW160371   1.465   6.986   8.063  1.0069  0.7734 -1.0470
18508SOL    HW260372   1.506   6.848   8.014 -0.8003 -0.8935  1.8061
18509SOL     OW60373   1.628   6.461   5.338  0.2695 -0.0296 -0.5316
18509SOL    HW160374   1.612   6.518   5.413  0.9228 -1.8563  1.0895
18509SOL    HW260375   1.583   6.379   5.360 -1.9000  0.2311 -3.4339
18510SOL     OW60376   2.972   2.246   4.910 -1.0682  0.3526 -0.0292
18510SOL    HW160377   2.946   2.265   5.000 -0.0198  0.6329  0.2212
18510SOL    HW260378   2.912   2.176   4.883 -0.3353 -0.9247  1.4611
18511SOL     OW60379   9.687   6.494   0.267  0.2997  0.3693 -0.2771
18511SOL    HW160380   9.715   6.576   0.308  0.2430  1.0425 -1.5274
18511SOL    HW260381   9.750   6.480   0.196 -0.2237 -0.1736 -0.6450
18512SOL     OW60382   7.651   2.200   4.544  0.5716  0.1622  0.1003
18512SOL    HW160383   7.576   2.141   4.538  1.5880 -1.2562  0.5731
18512SOL    HW260384   7.613   2.285   4.565 -1.0038 -0.1538 -1.2315
18513SOL     OW60385   1.159   8.305   9.726 -0.0647  0.3310 -0.2028
18513SOL    HW160386   1.126   8.282   9.639  1.1926 -1.2995 -0.3082
18513SOL    HW260387   1.225   8.372   9.710 -2.1863  2.5801 -0.1172
18514SOL     OW60388   0.023   4.794   6.652 -0.1698  0.3217  0.2621
18514SOL    HW160389  -0.003   4.759   6.738 -0.8473 -0.8914 -0.4082
18514SOL    HW260390   0.104   4.747   6.632  0.6903  1.5220  0.7645
18515SOL     OW60391   3.720   5.671   8.527  0.2277  0.0581  0.0824
18515SOL    HW160392   3.728   5.612   8.453  0.0055 -1.7616  1.4501
18515SOL    HW260393   3.806   5.669   8.569  0.5019  1.4480 -0.3645
18516SOL     OW60394   8.712   8.698   5.440 -0.0113 -0.6741 -0.3486
18516SOL    HW160395   8.776   8.769   5.431  0.1220 -0.6307  0.8406
18516SOL    HW260396   8.764   8.622   5.467 -0.7372  0.1900  4.3255
18517SOL     OW60397   8.276   8.182   7.004 -0.1102  0.2433 -0.1225
18517SOL    HW160398   8.322   8.260   6.973 -0.1929 -0.0220 -0.9312
18517SOL    HW260399   8.298   8.114   6.940 -0.3192 -0.3069  0.3811
18518SOL     OW60400   9.610   3.695   4.390  0.1516  0.0643  0.2216
18518SOL    HW160401   9.617   3.674   4.483  0.0306 -0.4117  0.1245
18518SOL    HW260402   9.601   3.610   4.347  1.3694  0.1895 -0.3330
18519SOL     OW60403   1.139   8.123   5.856  0.8508 -0.0459  0.1960
18519SOL    HW160404   1.071   8.063   5.827  0.4832 -0.5646  1.9948
18519SOL    HW260405   1.092   8.191   5.904  1.4478  0.5976 -0.1086
18520SOL     OW60406   4.016   7.521   4.321  0.4027  0.2863 -0.1549
18520SOL    HW160407   4.105   7.541   4.290  0.2742 -0.5211 -1.1163
18520SOL    HW260408   4.022   7.431   4.352 -0.1904  0.0350 -0.7424
18521SOL     OW60409   9.534   2.326   1.045 -0.5827  0.2673 -0.8556
18521SOL    HW160410   9.550   2.403   0.990  1.5345  0.4105 -0.1271
18521SOL    HW260411   9.560   2.252   0.990  1.3959  0.4013 -0.1864
18522SOL     OW60412   0.538   0.947   8.071 -0.5280  0.2673 -0.2261
18522SOL    HW160413   0.617   0.894   8.084 -1.5500 -1.1198  0.6840
18522SOL    HW260414   0.569   1.027   8.030  1.4535  0.0572  0.7325
18523SOL     OW60415   5.987   1.556   7.254  0.4983 -0.4871 -0.3808
18523SOL    HW160416   6.012   1.628   7.196  0.3342 -0.2155 -0.1195
18523SOL    HW260417   6.043   1.483   7.228  1.2054 -0.0363 -0.1425
18524SOL     OW60418   7.686   3.183   6.948 -0.3891 -0.0228 -0.2019
18524SOL    HW160419   7.731   3.263   6.924 -0.1090  0.0138  0.4288
18524SOL    HW260420   7.732   3.151   7.026 -0.9912 -0.3705  0.0240
18525SOL     OW60421   5.531   5.420   5.457  0.1378  0.6585  0.4255
18525SOL    HW160422   5.494   5.481   5.393  0.1332  1.2291  0.9601
18525SOL    HW260423   5.613   5.460   5.484  1.4614 -0.8541 -1.1408
18526SOL     OW60424   9.469   3.081   0.669 -0.3056  0.0407  0.3061
18526SOL    HW160425   9.393   3.052   0.719 -2.2302  2.3874 -1.0342
18526SOL    HW260426   9.440   3.079   0.578  1.7832 -0.3899 -0.4191
18527SOL     OW60427   7.641   9.366   3.839  0.1130  0.1728 -0.0461
18527SOL    HW160428   7.691   9.286   3.823  0.1534  0.3916 -1.0740
18527SOL    HW260429   7.681   9.404   3.917  0.8069 -0.2397 -0.1968
18528SOL     OW60430   2.373   2.185   6.009  0.0405 -0.6138 -0.2369
18528SOL    HW160431   2.278   2.176   6.005 -0.4346 -1.3077  4.9502
18528SOL    HW260432   2.389   2.279   6.019 -0.0041 -0.4377 -1.7243
18529SOL     OW60433   0.364   1.954   6.055  0.1726 -0.1219 -0.3693
18529SOL    HW160434   0.305   1.892   6.098  0.1559 -0.8542 -1.3819
18529SOL    HW260435   0.323   2.039   6.066  0.0635 -0.3193  0.8358
18530SOL     OW60436   5.004   7.015   3.897 -0.3844  0.0088  0.4428
18530SOL    HW160437   5.064   7.083   3.867 -0.7269 -0.6234 -1.8022
18530SOL    HW260438   4.946   7.000   3.823 -1.0996 -1.8592  1.3357
18531SOL     OW60439   1.274   7.249   0.799  0.3460  1.1273  0.2228
18531SOL    HW160440   1.235   7.179   0.852  1.6701  0.7448  0.7400
18531SOL    HW260441   1.236   7.237   0.712 -1.1798  1.2075  0.8525
18532SOL     OW60442   8.162   4.321   0.140 -0.1655  0.6611 -0.0001
18532SOL    HW160443   8.076   4.286   0.162  0.4500 -2.3832 -1.9101
18532SOL    HW260444   8.211   4.246   0.107  1.9906  3.0092 -2.6151
18533SOL     OW60445   3.304   4.127   9.318 -0.4938 -0.1626 -0.4312
18533SOL    HW160446   3.259   4.176   9.249 -0.0310  0.0936 -0.5557
18533SOL    HW260447   3.330   4.194   9.382 -1.1243 -0.4242  0.1170
18534SOL     OW60448   3.449   7.965   8.549  0.6797 -0.3313  0.1923
18534SOL    HW160449   3.452   8.027   8.623  1.1109 -0.2477  0.1076
18534SOL    HW260450   3.379   7.904   8.572 -1.7215  1.7776 -0.9795
18535SOL     OW60451   7.302   3.794   1.554 -0.3289 -0.5645 -0.1217
18535SOL    HW160452   7.282   3.886   1.541 -0.9548 -0.7665 -0.6251
18535SOL    HW260453   7.389   3.782   1.515  0.9880  0.3724  2.3033
18536SOL     OW60454   1.234   3.492   8.578 -0.4424  0.4417 -0.5008
18536SOL    HW160455   1.214   3.508   8.670  3.4258  1.2199  0.3928
18536SOL    HW260456   1.244   3.397   8.572  0.7187  0.4889  0.3101
18537SOL     OW60457   8.115   0.801   7.994  0.0381 -0.4555 -0.1051
18537SOL    HW160458   8.208   0.826   7.997 -0.2581  0.6242  1.5673
18537SOL    HW260459   8.080   0.850   7.920  0.7661 -0.8039 -0.6980
18538SOL     OW60460   6.216   0.704   0.427  0.6860  0.2681 -0.0368
18538SOL    HW160461   6.124   0.678   0.431  0.8140 -0.5541 -1.6979
18538SOL    HW260462   6.265   0.622   0.437  1.2155  0.5494 -0.2852
18539SOL     OW60463   3.623   7.048   5.810  0.2887 -0.7578 -0.4925
18539SOL    HW160464   3.568   7.003   5.875  0.3478 -1.8765 -1.1845
18539SOL    HW260465   3.611   7.141   5.829  1.3823 -1.0503  2.0023
18540SOL     OW60466   6.238   2.267   7.052 -0.3553  0.2561  0.0165
18540SOL    HW160467   6.316   2.213   7.063 -1.4796 -0.9737  3.0966
18540SOL    HW260468   6.181   2.217   6.994 -0.4053 -0.7485  0.9162
18541SOL     OW60469   1.228   3.051   1.723 -0.2037  0.0268 -0.3052
18541SOL    HW160470   1.151   3.068   1.669 -0.3842 -1.0589 -0.4191
18541SOL    HW260471   1.302   3.077   1.668 -0.5005  3.4272  0.6994
18542SOL     OW60472   7.095   7.013   3.582 -0.4364  0.0836  0.2639
18542SOL    HW160473   7.162   6.998   3.515  0.1514  0.1842  0.8211
18542SOL    HW260474   7.027   6.948   3.564  0.6072 -1.1634  0.7337
18543SOL     OW60475   1.106   4.954   2.749  0.6001  0.3446  0.7065
18543SOL    HW160476   1.101   5.039   2.792  1.1853  1.0670 -0.5953
18543SOL    HW260477   1.177   4.963   2.686 -0.1771 -0.6877 -0.3642
18544SOL     OW60478   6.053   6.980   0.554  0.0774 -0.3021  0.5420
18544SOL    HW160479   6.034   7.017   0.468  0.0440 -2.9171 -0.6838
18544SOL    HW260480   5.969   6.982   0.600  0.3711  2.3095  1.0830
18545SOL     OW60481   0.712   2.004   4.210  0.1458  0.7820  0.2591
18545SOL    HW160482   0.644   1.940   4.189  0.1125  1.0090 -0.3457
18545SOL    HW260483   0.773   1.956   4.266  0.9637 -0.2769 -1.4525
18546SOL     OW60484   5.931   4.351   5.269  0.0821 -0.0907  0.3000
18546SOL    HW160485   5.885   4.267   5.278  0.0585 -0.1507 -0.3251
18546SOL    HW260486   5.981   4.360   5.350 -0.2413 -0.5110  0.5493
18547SOL     OW60487   4.252   7.235   8.914 -0.0638 -0.1763  0.1571
18547SOL    HW160488   4.323   7.176   8.940 -0.6921 -1.4984 -0.9631
18547SOL    HW260489   4.172   7.190   8.944 -0.5232  0.3440 -0.2717
18548SOL     OW60490   9.247   6.399   9.282  0.1184  0.0457  1.0036
18548SOL    HW160491   9.176   6.406   9.345  0.0617 -0.7818  1.0464
18548SOL    HW260492   9.305   6.473   9.303  0.6340 -0.7709  2.7160
18549SOL     OW60493   7.085   1.247   1.395  0.1294  0.3117  0.3641
18549SOL    HW160494   7.014   1.281   1.451 -0.1736 -2.0302  1.5126
18549SOL    HW260495   7.159   1.234   1.455 -0.1234 -2.0297  0.2595
18550SOL     OW60496   2.018   1.805   8.527  0.2520  0.3400  0.5473
18550SOL    HW160497   2.003   1.711   8.513  1.4215  0.3485 -0.9545
18550SOL    HW260498   2.094   1.808   8.584  0.6369  0.3703  0.0381
18551SOL     OW60499   0.446   1.072   6.243 -0.3027  0.6575 -0.1495
18551SOL    HW160500   0.354   1.094   6.254 -0.8569  0.4847 -3.3376
18551SOL    HW260501   0.490   1.156   6.236 -0.6072  0.7694 -0.8396
18552SOL     OW60502   8.069   6.369   1.000  0.2549 -0.0969 -0.7944
18552SOL    HW160503   8.090   6.457   0.969  2.2261 -0.1512  0.2425
18552SOL    HW260504   7.987   6.348   0.956 -0.2137  2.1986 -1.1650
18553SOL     OW60505   7.187   9.677   8.211  0.3870 -0.1040 -0.6079
18553SOL    HW160506   7.108   9.700   8.260  2.0154  1.2369  1.5760
18553SOL    HW260507   7.176   9.584   8.190 -1.2358 -0.2506  0.6922
18554SOL     OW60508   6.530   5.669   3.027  0.1100  0.1887  0.0162
18554SOL    HW160509   6.586   5.680   2.950 -0.5147  1.7902 -0.2462
18554SOL    HW260510   6.509   5.575   3.028  0.6228  0.0268 -1.4055
18555SOL     OW60511   2.623   2.635   0.939 -0.0656  0.7659 -0.1394
18555SOL    HW160512   2.550   2.693   0.960 -2.6316 -1.7202 -1.5145
18555SOL    HW260513   2.600   2.551   0.978  0.4767 -0.9206 -3.0876
18556SOL     OW60514   0.485   3.335   9.000  0.1774  0.8356 -0.2726
18556SOL    HW160515   0.526   3.370   9.079 -0.5190  1.4520 -0.1724
18556SOL    HW260516   0.508   3.399   8.931  1.7970 -0.3134 -0.8550
18557SOL     OW60517   0.217   7.843   0.807 -0.1422  0.0892  0.0387
18557SOL    HW160518   0.250   7.911   0.749  0.5163  0.1689  0.4997
18557SOL    HW260519   0.158   7.890   0.867  0.0388  0.1890  0.1367
18558SOL     OW60520   4.120   5.104   0.139 -0.5263  0.2532  0.1509
18558SOL    HW160521   4.207   5.144   0.139 -0.5241  0.3085 -1.1088
18558SOL    HW260522   4.073   5.150   0.069 -1.2659 -0.3972  0.2055
18559SOL     OW60523   5.295   1.557   4.844  0.2260 -0.4245 -0.2555
18559SOL    HW160524   5.224   1.618   4.822  1.5313  1.6120  0.8610
18559SOL    HW260525   5.254   1.491   4.900 -0.5550  1.6043  1.7225
18560SOL     OW60526   5.416   8.825   9.003 -0.9844 -0.5802 -0.6791
18560SOL    HW160527   5.490   8.812   8.944 -1.2813 -0.3343 -1.1149
18560SOL    HW260528   5.448   8.886   9.069 -1.3571  1.1332 -1.9780
18561SOL     OW60529   6.856   6.442   1.236 -0.2743  0.2462  0.0367
18561SOL    HW160530   6.817   6.504   1.298  0.4144  2.1720 -1.3312
18561SOL    HW260531   6.783   6.386   1.208 -1.4186  1.7739 -0.1835
18562SOL     OW60532   7.783   7.723   2.050  0.4202  0.0836 -0.0226
18562SOL    HW160533   7.719   7.663   2.091  0.7007  0.6400  1.2867
18562SOL    HW260534   7.818   7.673   1.976  0.5895 -1.3653  0.9819
18563SOL     OW60535   4.596   3.558   7.618 -0.5360  0.5286 -0.4758
18563SOL    HW160536   4.663   3.527   7.679 -1.2597  0.4655  0.3054
18563SOL    HW260537   4.605   3.653   7.620 -0.4738  0.5209 -0.3634
18564SOL     OW60538   3.625   7.969   2.630  0.2622  0.2539 -0.3079
18564SOL    HW160539   3.576   8.004   2.705  1.0534  1.6700 -0.4128
18564SOL    HW260540   3.717   7.978   2.656  0.5432  0.7007 -1.4066
18565SOL     OW60541   6.736   7.973   2.661 -0.0882  0.0578 -0.0927
18565SOL    HW160542   6.781   7.889   2.660  0.6074  0.4013  0.7952
18565SOL    HW260543   6.676   7.968   2.736 -1.3397 -0.2819 -1.0825
18566SOL     OW60544   1.643   0.145   5.990 -0.2257 -0.1405  0.0445
18566SOL    HW160545   1.599   0.147   6.074  1.2996  0.0064  0.8804
18566SOL    HW260546   1.609   0.067   5.946 -1.8981  0.4203  0.2774
18567SOL     OW60547   6.037   9.429   5.238 -0.2406 -0.3804 -0.3180
18567SOL    HW160548   6.003   9.428   5.327  0.2372 -0.4019 -0.1312
18567SOL    HW260549   6.074   9.342   5.225  1.8908  0.3434  0.3530
18568SOL     OW60550   2.388   6.814   2.718 -0.4806  0.3235  0.4308
18568SOL    HW160551   2.321   6.745   2.722 -2.4051  2.1181  1.9509
18568SOL    HW260552   2.353   6.883   2.774  2.1436  1.8723  0.2997
18569SOL     OW60553   9.028   6.036   5.705 -0.2425  0.5269 -0.4738
18569SOL    HW160554   9.067   6.046   5.618 -1.0218  0.0246 -0.8943
18569SOL    HW260555   9.078   5.965   5.745  1.4258  2.0491  0.2755
18570SOL     OW60556   3.240   4.236   0.936  0.3530  0.0660  0.1666
18570SOL    HW160557   3.257   4.304   1.001 -0.4977  0.7986 -0.3606
18570SOL    HW260558   3.269   4.155   0.978 -0.7275  0.4385  1.6952
18571SOL     OW60559   6.826   7.197   3.287  0.9257 -0.7821  0.0841
18571SOL    HW160560   6.917   7.170   3.273  1.3618  0.7753 -0.3856
18571SOL    HW260561   6.833   7.277   3.338 -0.1487 -0.3778 -0.3734
18572SOL     OW60562   7.938   2.134   0.013 -0.2725 -0.5613 -0.2789
18572SOL    HW160563   7.964   2.199  -0.052  0.4497 -1.0031 -0.4441
18572SOL    HW260564   7.866   2.087  -0.028  0.0430 -0.7002 -0.6813
18573SOL     OW60565   0.742   9.531   8.322  0.6539 -0.6177  0.2745
18573SOL    HW160566   0.828   9.565   8.297  1.1670 -1.2183  1.1681
18573SOL    HW260567   0.759   9.477   8.399 -0.7026  0.2234  1.2045
18574SOL     OW60568   5.708   2.572   8.886 -0.4269 -0.1532  0.0846
18574SOL    HW160569   5.685   2.599   8.975 -1.9810  0.9505 -0.6150
18574SOL    HW260570   5.800   2.598   8.876 -0.2491 -0.2315  1.3192
18575SOL     OW60571   3.705   6.824   3.232 -0.4803 -0.5030 -0.1495
18575SOL    HW160572   3.712   6.891   3.300 -3.0970  0.4158 -0.6765
18575SOL    HW260573   3.791   6.823   3.190 -0.5150  3.0766 -0.5834
18576SOL     OW60574   6.706   2.907   6.197  0.1191 -0.8342  0.4786
18576SOL    HW160575   6.719   2.883   6.289  0.4395 -1.4664  0.2727
18576SOL    HW260576   6.773   2.857   6.150  1.5695  1.2823  0.1290
18577SOL     OW60577   5.362   2.154   3.318  0.3332  0.4577 -0.0322
18577SOL    HW160578   5.377   2.133   3.226  0.1883  0.3826 -0.0390
18577SOL    HW260579   5.335   2.246   3.318 -0.9646  0.0920 -0.1990
18578SOL     OW60580   5.034   9.374   1.002 -0.1609  0.7794 -0.0240
18578SOL    HW160581   5.071   9.424   1.074  1.5421  0.2136 -0.4537
18578SOL    HW260582   4.957   9.331   1.039 -1.5172  3.3678  0.4445
18579SOL     OW60583   2.109   1.128   8.411 -0.2074 -0.6448 -0.8621
18579SOL    HW160584   2.178   1.067   8.386  0.5954  0.3077 -1.0787
18579SOL    HW260585   2.050   1.130   8.335 -1.1001 -2.2858 -0.2443
18580SOL     OW60586   2.969   2.507   3.398 -0.0075  0.0167  0.2272
18580SOL    HW160587   2.911   2.432   3.390  0.9481 -0.8122  0.7846
18580SOL    HW260588   2.942   2.550   3.479 -0.3477  0.0832  0.0775
18581SOL     OW60589   5.392   9.686   6.915  0.2914  0.3795  0.3458
18581SOL    HW160590   5.487   9.690   6.911  0.2703  2.6399  0.3304
18581SOL    HW260591   5.364   9.776   6.897 -1.9239 -0.5361 -1.2844
18582SOL     OW60592   6.099   2.991   0.546  0.4458  0.2266  0.0150
18582SOL    HW160593   6.150   2.968   0.624  0.2314  0.5750  0.2584
18582SOL    HW260594   6.026   3.043   0.579  1.3626  1.9908 -0.5910
18583SOL     OW60595   3.726   3.247   1.111 -0.1456  0.4100  0.0013
18583SOL    HW160596   3.714   3.198   1.030  1.5792 -1.2339  0.6554
18583SOL    HW260597   3.795   3.311   1.090 -1.7093  1.9808 -0.5754
18584SOL     OW60598   0.466   3.286   2.881  0.4319  0.7013  0.1256
18584SOL    HW160599   0.521   3.220   2.838 -1.4645 -0.9306  0.0756
18584SOL    HW260600   0.491   3.281   2.974  0.7709  0.3738  0.0194
18585SOL     OW60601   2.774   3.539   9.367 -0.1399  0.2771  0.1669
18585SOL    HW160602   2.824   3.524   9.448  1.4880 -0.7149 -0.9609
18585SOL    HW260603   2.721   3.460   9.357 -1.9885  1.2844  1.3071
18586SOL     OW60604   7.831   6.913   3.201 -0.3370  0.0940 -0.0138
18586SOL    HW160605   7.919   6.881   3.184 -0.5773 -2.3769  2.5942
18586SOL    HW260606   7.841   6.975   3.273 -0.5652  1.1664 -0.8903
18587SOL     OW60607   3.655   1.238   0.989  0.0470 -0.1928  0.1565
18587SOL    HW160608   3.748   1.259   0.986  0.6233 -2.2376  1.8127
18587SOL    HW260609   3.630   1.254   1.080 -1.4038  0.8680 -0.3855
18588SOL     OW60610   0.074   3.133   9.612  0.0072  0.8349 -0.4477
18588SOL    HW160611   0.074   3.050   9.659 -0.0258  0.2610 -1.4323
18588SOL    HW260612   0.128   3.191   9.666 -1.1341  0.6204  0.9812
18589SOL     OW60613   9.723   9.201   6.874  0.4388  0.5286  0.1125
18589SOL    HW160614   9.753   9.110   6.885  1.1257  0.7626  0.2221
18589SOL    HW260615   9.801   9.254   6.893 -0.3356  1.1942  1.6135
18590SOL     OW60616   4.975   0.835   6.775 -0.3761 -0.5781 -0.2852
18590SOL    HW160617   4.894   0.886   6.776 -0.7941 -1.2235  1.5071
18590SOL    HW260618   4.999   0.826   6.867  2.7426  1.1111 -0.8014
18591SOL     OW60619   2.423   1.663   5.426 -0.5767  0.6921 -0.2411
18591SOL    HW160620   2.423   1.726   5.499  0.2147  0.6830 -0.2238
18591SOL    HW260621   2.376   1.708   5.356 -1.8861  0.4726  0.4582
18592SOL     OW60622   6.294   2.925   3.956 -0.3223 -0.7231  0.8162
18592SOL    HW160623   6.231   2.852   3.963  0.6665 -1.8192 -0.8731
18592SOL    HW260624   6.379   2.885   3.976  0.1019  0.2533  0.9906
18593SOL     OW60625   0.280   9.514   1.356 -0.1668 -0.1732 -0.1678
18593SOL    HW160626   0.319   9.460   1.424 -0.6865  0.0520  0.3160
18593SOL    HW260627   0.273   9.601   1.396  1.9142  0.6317 -1.3839
18594SOL     OW60628   6.335   0.197   6.480 -0.2555 -0.0091 -0.0784
18594SOL    HW160629   6.391   0.193   6.558  1.2486  1.0169 -1.0514
18594SOL    HW260630   6.290   0.112   6.479  1.3368 -0.9172  0.7274
18595SOL     OW60631   6.113   4.199   1.323  0.2707 -0.1987  0.2773
18595SOL    HW160632   6.030   4.220   1.280  0.3982 -2.3179 -1.1443
18595SOL    HW260633   6.169   4.274   1.306 -0.7977  0.4964 -0.2694
18596SOL     OW60634   4.841   0.195   2.755  0.1280 -0.0120 -0.2632
18596SOL    HW160635   4.927   0.156   2.741 -0.8608 -1.5161 -3.1781
18596SOL    HW260636   4.791   0.127   2.800 -0.2039 -0.1316 -0.8043
18597SOL     OW60637   3.249   3.471   5.717  0.6864  0.5395  0.6855
18597SOL    HW160638   3.287   3.537   5.659 -0.8805  1.2746  0.4655
18597SOL    HW260639   3.308   3.470   5.793  1.6905  0.9315 -0.0631
18598SOL     OW60640   9.566   0.575   9.168 -0.2907 -0.3694  0.1842
18598SOL    HW160641   9.478   0.542   9.188  0.0967 -1.3353  0.3809
18598SOL    HW260642   9.557   0.619   9.084 -0.6944 -1.6432 -0.4692
18599SOL     OW60643   1.602   2.410   3.380  0.5000  0.0556  0.5760
18599SOL    HW160644   1.561   2.390   3.295 -1.7439  0.1390  1.5684
18599SOL    HW260645   1.625   2.503   3.374  0.6154 -0.0045 -0.0298
18600SOL     OW60646   4.054   9.244   6.281 -0.3240 -0.8310  0.3454
18600SOL    HW160647   4.028   9.182   6.214 -0.0442 -0.6223  0.0401
18600SOL    HW260648   4.022   9.329   6.250  0.4882 -0.6129  0.0911
18601SOL     OW60649   6.846   0.518   3.022 -0.8341 -0.0658  0.1059
18601SOL    HW160650   6.905   0.591   3.002 -0.5770 -0.5833 -1.1474
18601SOL    HW260651   6.788   0.513   2.946 -0.3556 -1.6284 -0.1848
18602SOL     OW60652   2.299   0.431   6.261  0.4431  0.1494  0.7725
18602SOL    HW160653   2.380   0.482   6.253  1.2752 -0.7217  2.8751
18602SOL    HW260654   2.325   0.353   6.310 -1.3116 -1.0974 -0.1794
18603SOL     OW60655   8.982   8.843   3.579 -0.2343 -0.0034 -0.0382
18603SOL    HW160656   8.915   8.858   3.512  2.7091 -1.5199 -3.6695
18603SOL    HW260657   9.027   8.926   3.587 -0.6319  0.1974  0.1763
18604SOL     OW60658   6.225   3.636   2.670  0.1879  0.6540 -0.2130
18604SOL    HW160659   6.287   3.618   2.600  1.2870 -1.7102  1.2631
18604SOL    HW260660   6.165   3.561   2.670 -1.3455  1.8151 -0.1541
18605SOL     OW60661   1.171   8.044   0.369 -0.3061 -0.3574  0.6337
18605SOL    HW160662   1.128   8.098   0.303  1.8654 -0.0966 -0.6897
18605SOL    HW260663   1.234   8.103   0.411 -1.1960 -0.6842  2.5741
18606SOL     OW60664   0.541   2.495   6.885  0.2028  0.5983  0.0632
18606SOL    HW160665   0.451   2.467   6.905  0.0497  1.0720  0.0543
18606SOL    HW260666   0.581   2.419   6.844 -0.8630  1.0610 -1.9404
18607SOL     OW60667   7.272   0.671   6.326  0.1785 -0.5372 -0.3365
18607SOL    HW160668   7.266   0.767   6.325 -0.3268 -0.5677 -1.1207
18607SOL    HW260669   7.182   0.641   6.342  0.4684 -0.8830  0.7502
18608SOL     OW60670   8.428   4.581   9.456  0.7701  0.1726 -0.0926
18608SOL    HW160671   8.454   4.666   9.491  1.3970 -0.1575  0.2531
18608SOL    HW260672   8.433   4.591   9.361  3.3460 -0.2142 -0.0648
18609SOL     OW60673   8.375   9.725   4.910  0.4035 -0.1322  0.2300
18609SOL    HW160674   8.393   9.816   4.887  0.8800 -0.7397 -2.0366
18609SOL    HW260675   8.450   9.699   4.964  0.7219  0.5401  0.1190
18610SOL     OW60676   2.466   4.905   7.089 -0.4510  0.1367 -0.1723
18610SOL    HW160677   2.544   4.958   7.105 -0.0373 -0.4234 -0.3452
18610SOL    HW260678   2.488   4.851   7.013 -0.1210 -1.7621  1.2132
18611SOL     OW60679   4.793   1.428   0.025 -0.2676 -0.8677  0.4450
18611SOL    HW160680   4.852   1.473  -0.036 -0.0857 -1.6752  0.0108
18611SOL    HW260681   4.717   1.486   0.031  0.3347 -0.0727  0.5963
18612SOL     OW60682   7.857   0.653   7.547  0.4444 -0.6930 -0.7195
18612SOL    HW160683   7.792   0.584   7.531 -0.9134 -0.0046  1.4943
18612SOL    HW260684   7.830   0.725   7.491  0.9577 -1.3424 -1.8581
18613SOL     OW60685   8.268   8.930   5.978  0.2184 -0.1932 -0.4400
18613SOL    HW160686   8.282   8.842   5.943  0.8118 -0.4021  0.2837
18613SOL    HW260687   8.277   8.919   6.073  1.6646  0.8791 -0.4258
18614SOL     OW60688   7.994   3.784   7.277  0.4758  0.4006  0.4534
18614SOL    HW160689   7.984   3.879   7.282  3.4920  0.8296 -0.0697
18614SOL    HW260690   7.914   3.754   7.233  1.2059  3.1892 -3.2976
18615SOL     OW60691   9.347   0.815   6.726 -0.2078  0.1899 -0.1762
18615SOL    HW160692   9.309   0.891   6.770 -0.5292 -0.3473  0.4965
18615SOL    HW260693   9.306   0.740   6.768  0.8441 -0.3871 -0.1338
18616SOL     OW60694   0.677   0.141   2.960 -0.0207  0.0860  0.2613
18616SOL    HW160695   0.720   0.160   2.877 -1.0171 -0.9153 -0.5097
18616SOL    HW260696   0.677   0.045   2.966 -2.1627  0.0380  0.1962
18617SOL     OW60697   7.057   5.549   1.085 -0.0477  0.3427  0.1501
18617SOL    HW160698   6.966   5.521   1.095  0.4023 -2.1313 -1.8612
18617SOL    HW260699   7.108   5.474   1.114  1.3442  1.0670 -0.3637
18618SOL     OW60700   5.818   1.201   0.555  0.0664  0.4292  0.5417
18618SOL    HW160701   5.810   1.121   0.606  2.5017 -0.9474 -1.0233
18618SOL    HW260702   5.767   1.185   0.476  0.4065  0.4667  0.3100
18619SOL     OW60703   2.970   9.057   2.089 -0.7501 -0.2462 -0.4900
18619SOL    HW160704   3.021   9.014   2.021 -0.2720 -0.5558  0.0539
18619SOL    HW260705   3.030   9.117   2.132 -1.3670  0.8453 -1.1114
18620SOL     OW60706   1.085   4.916   0.679 -0.1944 -0.1845 -0.4326
18620SOL    HW160707   1.171   4.952   0.657 -1.2603  1.6671 -1.8626
18620SOL    HW260708   1.053   4.973   0.749 -1.1733  0.6334 -1.5077
18621SOL     OW60709   8.456   2.557   1.012  0.4857 -0.2664  0.6618
18621SOL    HW160710   8.483   2.604   0.933  0.3610  1.2866  1.5036
18621SOL    HW260711   8.389   2.613   1.052 -1.4573 -2.3190  0.4874
18622SOL     OW60712   9.271   6.787   9.517  0.1018  0.4444 -0.1711
18622SOL    HW160713   9.298   6.818   9.604 -0.0109  0.3825 -0.1131
18622SOL    HW260714   9.342   6.731   9.488 -0.7006 -1.0951  0.7093
18623SOL     OW60715   1.393   7.007   7.754 -0.2188 -0.4125 -0.2848
18623SOL    HW160716   1.385   6.965   7.839 -0.7492  0.7760  0.2829
18623SOL    HW260717   1.311   7.056   7.743  0.6832  1.1231 -0.5173
18624SOL     OW60718   2.047   1.622   4.801 -0.0896 -0.7216 -0.0842
18624SOL    HW160719   1.973   1.678   4.775  2.0197  0.9357 -3.1570
18624SOL    HW260720   2.114   1.683   4.831  1.6502 -1.6564 -1.8425
18625SOL     OW60721   3.517   9.195   6.181  0.3538  0.1023  0.4650
18625SOL    HW160722   3.581   9.151   6.237 -0.7567 -4.0167 -1.0947
18625SOL    HW260723   3.432   9.160   6.209 -0.4962  0.1489 -1.7785
18626SOL     OW60724   1.902   6.040   5.240 -0.2684 -0.0934  0.1488
18626SOL    HW160725   1.943   6.006   5.320  2.2611 -1.6655 -1.6896
18626SOL    HW260726   1.929   6.132   5.237  0.6107 -0.3330  0.4859
18627SOL     OW60727   2.185   3.630   2.435 -0.2719 -0.2403 -0.8425
18627SOL    HW160728   2.141   3.618   2.351  0.7365 -0.5776 -1.3373
18627SOL    HW260729   2.179   3.545   2.478 -0.1630 -0.2648 -0.8767
18628SOL     OW60730   3.204   6.872   4.333 -0.4698 -0.0038 -0.8622
18628SOL    HW160731   3.158   6.843   4.255 -1.3907 -0.1272 -0.2869
18628SOL    HW260732   3.236   6.792   4.374 -0.4209  0.0246 -0.8437
18629SOL     OW60733   4.144   3.604   8.170 -0.2482 -0.2060 -0.8632
18629SOL    HW160734   4.057   3.574   8.143 -0.6494 -0.8707  1.0379
18629SOL    HW260735   4.132   3.696   8.194 -0.6242 -0.5009  0.1305
18630SOL     OW60736   1.603   5.623   3.279 -0.3074 -0.7234 -0.3811
18630SOL    HW160737   1.617   5.586   3.192  2.3339  1.5763 -1.0807
18630SOL    HW260738   1.514   5.659   3.275 -0.8767 -2.1346 -1.4992
18631SOL     OW60739   1.966   7.577   0.893 -0.4190 -0.1937 -0.0527
18631SOL    HW160740   2.032   7.547   0.956 -2.3493 -1.0356  1.6920
18631SOL    HW260741   2.017   7.610   0.819  1.9513 -0.1275  1.4942
18632SOL     OW60742   8.064   2.656   4.997  0.0893 -0.1916  0.0622
18632SOL    HW160743   8.056   2.709   4.918  2.6872  2.7924  1.5850
18632SOL    HW260744   8.153   2.623   4.996 -0.4612 -1.8102  0.8207
18633SOL     OW60745   8.840   3.866   6.029  0.0351  0.2388 -0.2788
18633SOL    HW160746   8.767   3.858   6.090  0.6982 -1.4449  0.3613
18633SOL    HW260747   8.899   3.930   6.070  1.5055 -2.3722  2.0949
18634SOL     OW60748   4.715   1.652   8.841 -0.5411 -0.0386 -0.6223
18634SOL    HW160749   4.716   1.622   8.750 -2.4066 -0.1951 -0.6390
18634SOL    HW260750   4.794   1.613   8.880 -1.1051 -2.2300 -1.5032
18635SOL     OW60751   1.157   6.012   5.862 -0.1278 -0.1174 -0.3882
18635SOL    HW160752   1.138   6.105   5.851 -0.7138 -0.3693 -1.6686
18635SOL    HW260753   1.221   5.992   5.793 -0.3225 -0.7451 -0.3965
18636SOL     OW60754   6.535   2.032   3.111 -0.3498  0.3034  0.0341
18636SOL    HW160755   6.483   2.078   3.046 -2.5178 -1.2795  0.5350
18636SOL    HW260756   6.614   2.085   3.121 -1.5838  2.4977 -1.2034
18637SOL     OW60757   8.987   4.805   7.192  0.0617  0.0586  0.0896
18637SOL    HW160758   9.037   4.723   7.184  0.1854  0.0852  0.5612
18637SOL    HW260759   8.921   4.799   7.123  0.6076 -0.0547 -0.4410
18638SOL     OW60760   9.388   8.169   6.704 -0.7091  0.6359 -0.4229
18638SOL    HW160761   9.316   8.120   6.664 -0.8955  1.1034 -0.6705
18638SOL    HW260762   9.467   8.132   6.664 -0.7856 -0.1209  0.1125
18639SOL     OW60763   4.008   4.170   2.848  0.2745  0.0825  0.7947
18639SOL    HW160764   4.009   4.117   2.768  0.2025  0.1923  0.7195
18639SOL    HW260765   3.948   4.242   2.827  2.8188  2.0316 -0.2822
18640SOL     OW60766   1.068   8.704   0.214 -0.2073  0.0454 -0.1876
18640SOL    HW160767   1.149   8.695   0.164  0.0772  2.1852 -0.1792
18640SOL    HW260768   1.000   8.671   0.155  0.3761  0.5934 -1.1918
18641SOL     OW60769   6.458   1.770   4.725 -0.2887 -0.3075 -0.0159
18641SOL    HW160770   6.483   1.756   4.634 -0.3586 -1.8600  0.1917
18641SOL    HW260771   6.385   1.832   4.720 -0.3770 -0.4800 -1.0089
18642SOL     OW60772   9.430   5.852   5.122 -0.1399  0.2371 -0.2062
18642SOL    HW160773   9.485   5.900   5.185 -0.7108  0.5405  0.0761
18642SOL    HW260774   9.420   5.766   5.161 -0.8210  0.5497  0.3285
18643SOL     OW60775   4.802   9.598   1.894 -0.0528 -0.2349 -0.8366
18643SOL    HW160776   4.803   9.513   1.850 -0.0495  0.0759 -1.4359
18643SOL    HW260777   4.714   9.605   1.931  0.2583 -0.9319  0.0630
18644SOL     OW60778   8.036   8.619   9.266  0.0700  0.0771  0.2139
18644SOL    HW160779   8.050   8.711   9.243  0.8387  0.0256  0.4319
18644SOL    HW260780   8.122   8.579   9.256 -0.2796 -0.6382  0.0502
18645SOL     OW60781   5.393   4.824   6.790 -0.3853  0.5633  0.5491
18645SOL    HW160782   5.464   4.870   6.835 -1.7876  2.4819  0.9200
18645SOL    HW260783   5.344   4.893   6.745 -0.7162 -0.9739 -1.5794
18646SOL     OW60784   4.469   7.765   3.008  0.2449 -0.3056  0.0374
18646SOL    HW160785   4.497   7.821   3.080  0.6490  0.7777 -0.9317
18646SOL    HW260786   4.395   7.811   2.968  0.7229 -0.3381 -0.9142
18647SOL     OW60787   5.676   2.264   4.592  0.2000  0.4591  0.2108
18647SOL    HW160788   5.695   2.211   4.669 -0.4231  1.8447  1.3524
18647SOL    HW260789   5.710   2.351   4.614  0.0897  0.8619 -1.1246
18648SOL     OW60790   5.323   3.294   5.287 -0.6698  0.3358 -0.1585
18648SOL    HW160791   5.291   3.240   5.215  0.2320 -1.4779  0.7288
18648SOL    HW260792   5.295   3.249   5.366  1.4238  0.2779  0.6337
18649SOL     OW60793   4.849   0.212   3.351 -0.0325 -0.2897 -0.2511
18649SOL    HW160794   4.766   0.256   3.369 -0.6185 -0.7699 -1.6108
18649SOL    HW260795   4.846   0.193   3.257  1.6719 -0.2260 -0.3491
18650SOL     OW60796   2.706   0.869   4.548  0.1624 -0.3639  0.0357
18650SOL    HW160797   2.763   0.838   4.478  0.3273 -0.2297  0.1091
18650SOL    HW260798   2.650   0.934   4.506 -0.5296 -1.1147 -0.2355
18651SOL     OW60799   9.344   2.470   1.507 -0.1748  0.1708 -0.2577
18651SOL    HW160800   9.394   2.424   1.574  0.6228  0.6868 -0.4828
18651SOL    HW260801   9.262   2.493   1.549  0.0137 -0.1738  0.3045
18652SOL     OW60802   3.729   2.031   6.754 -1.2816  0.6308 -0.7548
18652SOL    HW160803   3.767   2.077   6.679 -1.2932  1.9443  0.0202
18652SOL    HW260804   3.695   2.100   6.810 -0.1560 -0.2485  1.0869
18653SOL     OW60805   3.347   0.549   3.243  0.2054  0.1091 -0.2648
18653SOL    HW160806   3.437   0.554   3.275  1.3176 -2.3100 -2.6573
18653SOL    HW260807   3.355   0.538   3.148 -2.3280 -3.8278 -0.2721
18654SOL     OW60808   3.099   7.376   6.187 -0.1133 -0.6198 -0.0312
18654SOL    HW160809   3.103   7.312   6.258  2.6411  0.3861  0.8513
18654SOL    HW260810   3.174   7.354   6.131 -1.1256 -0.2198 -1.5933
18655SOL     OW60811   6.508   4.627   3.199 -0.3020 -0.1916  0.3260
18655SOL    HW160812   6.491   4.619   3.292  0.2302 -1.0534  0.3605
18655SOL    HW260813   6.422   4.623   3.158 -0.4050 -1.9639  0.6529
18656SOL     OW60814   8.423   8.065   0.858 -0.3882 -0.2588  0.3916
18656SOL    HW160815   8.332   8.059   0.888 -0.5456 -0.2942 -0.0824
18656SOL    HW260816   8.468   8.114   0.927 -1.0725  1.0269 -0.0504
18657SOL     OW60817   2.470   9.699   7.587 -0.6724 -0.7048  0.2142
18657SOL    HW160818   2.400   9.740   7.537 -1.9207 -0.6900  1.8849
18657SOL    HW260819   2.429   9.674   7.670  1.5362  0.2412  1.6733
18658SOL     OW60820   0.858   6.480   6.395  0.8274 -0.6344  0.2391
18658SOL    HW160821   0.906   6.414   6.344 -0.4667 -0.9391 -0.6263
18658SOL    HW260822   0.766   6.461   6.378  0.3887  2.5763 -1.6306
18659SOL     OW60823   3.299   0.102   1.309  0.2348 -0.1675 -0.3161
18659SOL    HW160824   3.281   0.011   1.287  0.8415 -0.3618 -0.0164
18659SOL    HW260825   3.257   0.115   1.394 -1.1538  0.2709 -1.0381
18660SOL     OW60826   4.091   2.649   2.117  0.4170 -1.0387  0.2087
18660SOL    HW160827   4.151   2.578   2.138 -0.4177 -1.6245  0.6709
18660SOL    HW260828   4.139   2.704   2.056  0.3163 -3.1771 -1.9557
18661SOL     OW60829   0.002   5.535   0.216 -0.8990  0.2848 -0.0196
18661SOL    HW160830   0.072   5.498   0.268  0.5813  1.7546 -0.8501
18661SOL    HW260831  -0.079   5.510   0.261  0.2415  0.2100  2.0684
18662SOL     OW60832   5.550   2.539   9.146 -0.0519  0.1220  0.6480
18662SOL    HW160833   5.562   2.474   9.215 -1.1505 -0.2474  0.5097
18662SOL    HW260834   5.511   2.490   9.074  0.8811  0.5521 -0.1661
18663SOL     OW60835   6.782   7.755   5.999 -0.5133  0.4085 -0.0578
18663SOL    HW160836   6.819   7.679   6.044 -0.3722 -0.0702 -0.9682
18663SOL    HW260837   6.700   7.723   5.961 -1.2960  1.1523  0.9385
18664SOL     OW60838   5.327   0.696   4.836 -0.3893 -0.2329  0.3088
18664SOL    HW160839   5.263   0.765   4.821  1.3277  1.1439 -1.1543
18664SOL    HW260840   5.324   0.642   4.757  0.0224 -0.3702  0.3820
18665SOL     OW60841   6.788   2.295   1.798 -0.4169  0.8897 -0.1570
18665SOL    HW160842   6.880   2.305   1.822 -0.3851  4.1094 -1.1723
18665SOL    HW260843   6.748   2.251   1.872  2.1508 -2.0065 -0.3051
18666SOL     OW60844   3.649   3.268   5.240  0.0468 -0.1077  0.1578
18666SOL    HW160845   3.639   3.223   5.324 -0.9446 -0.6575 -0.2313
18666SOL    HW260846   3.581   3.229   5.184 -1.2967  2.2989 -0.0261
18667SOL     OW60847   4.190   1.621   5.013 -1.1848 -0.2402  0.7430
18667SOL    HW160848   4.281   1.649   5.022 -0.9329 -0.7937  0.0611
18667SOL    HW260849   4.193   1.526   5.023 -1.6062 -0.3162  0.2110
18668SOL     OW60850   8.557   8.916   3.245 -0.8649 -0.0748 -0.0622
18668SOL    HW160851   8.597   8.921   3.332 -2.7390 -2.3125  1.0444
18668SOL    HW260852   8.563   9.005   3.211  1.4107  0.5255  1.6190
18669SOL     OW60853   8.408   7.005   1.041 -0.3740 -0.4653 -0.3990
18669SOL    HW160854   8.330   7.057   1.058  1.0544  1.3289  1.2125
18669SOL    HW260855   8.425   7.016   0.948 -0.8123  0.9381 -0.3278
18670SOL     OW60856   3.555   3.669   6.956  0.3255  0.5874 -0.1593
18670SOL    HW160857   3.591   3.756   6.939  2.5733 -0.0476  0.9928
18670SOL    HW260858   3.559   3.626   6.871  2.3844  0.5681 -0.1113
18671SOL     OW60859   8.341   2.872   2.901  0.0002 -0.1493 -0.5676
18671SOL    HW160860   8.387   2.924   2.835  1.6853 -0.3525  0.4050
18671SOL    HW260861   8.253   2.910   2.904  0.5851  1.3375 -1.3058
18672SOL     OW60862   6.672   8.769   2.967 -0.4340  0.2129  0.5554
18672SOL    HW160863   6.618   8.764   3.046  0.4231  1.7062  1.2976
18672SOL    HW260864   6.624   8.828   2.909  0.6803  2.2194  1.5470
18673SOL     OW60865   2.480   5.618   1.930 -0.0381 -0.2356  0.1522
18673SOL    HW160866   2.444   5.657   2.010 -0.0153 -0.4143  0.2506
18673SOL    HW260867   2.524   5.690   1.885 -0.2389 -0.0872  0.1940
18674SOL     OW60868   3.905   9.330   8.567 -0.4222  0.1985 -0.5578
18674SOL    HW160869   3.910   9.418   8.604 -0.2698  0.2511 -0.6974
18674SOL    HW260870   3.943   9.340   8.479 -0.3568 -0.0166 -0.5526
18675SOL     OW60871   6.981   7.320   5.861  0.3519  1.0227  0.4357
18675SOL    HW160872   6.902   7.274   5.887 -0.2086  0.7973 -1.4621
18675SOL    HW260873   6.969   7.409   5.893 -0.7376  1.0138  0.0848
18676SOL     OW60874   9.629   3.565   7.223  0.2141  0.1607  0.0823
18676SOL    HW160875   9.590   3.523   7.147  0.3866  0.9029 -0.4298
18676SOL    HW260876   9.591   3.520   7.299 -0.8691  0.2204 -0.4191
18677SOL     OW60877   0.805   6.662   3.966  0.2760 -0.5696 -0.1826
18677SOL    HW160878   0.873   6.695   4.025  1.4809 -0.6336 -1.5000
18677SOL    HW260879   0.723   6.693   4.004  1.0105 -0.6359  1.5404
18678SOL     OW60880   7.992   0.859   1.855 -0.0597  0.1026 -0.5175
18678SOL    HW160881   7.987   0.772   1.815 -0.1914 -0.9420  1.6387
18678SOL    HW260882   8.074   0.858   1.904 -0.2671  1.0625 -0.1419
18679SOL     OW60883   1.201   8.739   4.162  0.3896  0.6321  0.3061
18679SOL    HW160884   1.240   8.805   4.219  0.8521  0.4353  0.2180
18679SOL    HW260885   1.270   8.717   4.100  0.7105 -0.9265  1.1704
18680SOL     OW60886   1.032   6.690   7.286  0.6596  0.1224 -0.3318
18680SOL    HW160887   1.043   6.610   7.235 -0.2605 -0.1500 -0.1033
18680SOL    HW260888   1.022   6.661   7.376 -0.8544  0.4022 -0.3842
18681SOL     OW60889   1.213   1.662   7.424 -0.1851 -0.3794  0.5213
18681SOL    HW160890   1.290   1.692   7.376 -0.7717  1.0955  0.4356
18681SOL    HW260891   1.224   1.567   7.431  1.9723 -0.1271  1.1508
18682SOL     OW60892   0.024   0.416   1.206 -0.4471 -0.1451  0.6934
18682SOL    HW160893   0.039   0.466   1.126  0.0490 -0.3317  0.6669
18682SOL    HW260894  -0.021   0.477   1.265 -2.3586 -0.5140 -0.3168
18683SOL     OW60895   0.159   7.344   6.912 -0.0206  0.3553 -0.1228
18683SOL    HW160896   0.115   7.429   6.923 -1.7420 -0.3961 -0.8850
18683SOL    HW260897   0.088   7.283   6.895  1.4490 -0.6219 -3.3665
18684SOL     OW60898   0.467   6.489   2.628  0.3514  0.5061  0.0653
18684SOL    HW160899   0.494   6.517   2.716 -0.3298  1.6060 -0.0584
18684SOL    HW260900   0.378   6.523   2.619 -0.7031 -2.0286  0.0219
18685SOL     OW60901   9.468   6.483   0.429 -0.1227 -0.0128  0.4790
18685SOL    HW160902   9.534   6.479   0.360 -0.5079  0.2445  0.0865
18685SOL    HW260903   9.432   6.572   0.422  0.4638  0.3220  1.6097
18686SOL     OW60904   2.223   9.382   6.665  0.4314 -0.3977 -0.6812
18686SOL    HW160905   2.248   9.424   6.747  0.2830 -1.0109 -0.3208
18686SOL    HW260906   2.274   9.428   6.598  0.1188  0.4898 -0.3193
18687SOL     OW60907   3.149   3.514   3.470  0.4402  0.1707  0.1717
18687SOL    HW160908   3.087   3.552   3.408  0.0516 -0.1938  0.3298
18687SOL    HW260909   3.208   3.586   3.493 -0.1548  0.6206  0.3114
18688SOL     OW60910   6.045   0.509   8.586  0.2539  0.0460  0.4070
18688SOL    HW160911   6.083   0.446   8.647 -0.1013 -0.2407  0.3380
18688SOL    HW260912   6.075   0.480   8.500  0.3011  0.1210  0.3979
18689SOL     OW60913   2.827   1.010   3.937  0.5951 -0.0054 -0.1399
18689SOL    HW160914   2.858   0.920   3.948 -2.0562 -1.0365 -0.2447
18689SOL    HW260915   2.752   1.002   3.878  0.5148  2.3475 -0.4353
18690SOL     OW60916   0.701   6.315   7.264 -0.2553  0.1303 -0.2383
18690SOL    HW160917   0.715   6.301   7.170  0.6711 -1.2465  0.0843
18690SOL    HW260918   0.660   6.401   7.268  1.1748  0.9735 -1.8110
18691SOL     OW60919   8.896   2.795   9.501  0.4682 -0.0049  0.9978
18691SOL    HW160920   8.897   2.880   9.545  0.1144  1.6571 -1.9389
18691SOL    HW260921   8.810   2.792   9.459  0.9443 -1.2774  0.0699
18692SOL     OW60922   3.051   8.624   1.417 -0.5482  0.4732  0.0260
18692SOL    HW160923   3.083   8.714   1.420  0.4984  0.1181 -0.1563
18692SOL    HW260924   2.975   8.623   1.475  0.6772  0.9931  1.7126
18693SOL     OW60925   9.720   8.119   6.603  0.1473  0.0175  0.2655
18693SOL    HW160926   9.769   8.045   6.639  0.9149 -0.4663 -1.6671
18693SOL    HW260927   9.646   8.079   6.557  0.1937  0.4852 -0.2273
18694SOL     OW60928   1.827   0.876   1.404  0.1557 -0.5518  0.1642
18694SOL    HW160929   1.873   0.891   1.486  1.5689 -0.1228 -0.6727
18694SOL    HW260930   1.877   0.926   1.339  0.4372 -2.6761 -1.3534
18695SOL     OW60931   4.910   8.763   2.246  0.1870 -0.0829 -0.3011
18695SOL    HW160932   4.998   8.764   2.209  0.2928 -0.8278 -0.0832
18695SOL    HW260933   4.923   8.780   2.340 -0.0433  1.3788 -0.5243
18696SOL     OW60934   9.125   8.333   8.160 -0.4206  0.3465  0.0970
18696SOL    HW160935   9.196   8.299   8.215 -0.4952  0.5916  0.3440
18696SOL    HW260936   9.158   8.325   8.071 -0.3876 -0.2675  0.1568
18697SOL     OW60937   9.730   6.007   3.223 -0.4429  0.1614  0.6142
18697SOL    HW160938   9.640   5.987   3.248 -0.1129 -1.3680  0.7014
18697SOL    HW260939   9.760   5.928   3.177  0.4161  1.1629 -0.6384
18698SOL     OW60940   3.057   1.692   1.499  0.6244 -0.1997 -0.0758
18698SOL    HW160941   2.990   1.633   1.464 -1.1763  0.5793  1.8731
18698SOL    HW260942   3.032   1.778   1.465 -0.7529  0.4564  2.3317
18699SOL     OW60943   9.057   8.453   3.148 -0.2040  0.4423 -0.1793
18699SOL    HW160944   9.041   8.466   3.242 -1.5438  0.6869 -0.4124
18699SOL    HW260945   8.999   8.381   3.124  0.7960 -0.2169 -0.6562
18700SOL     OW60946   9.135   2.607   4.531 -0.2715  0.6301 -0.1005
18700SOL    HW160947   9.041   2.626   4.533 -0.1888  1.0597 -0.1194
18700SOL    HW260948   9.154   2.589   4.439 -0.3724  0.3410 -0.0655
18701SOL     OW60949   4.688   3.856   8.283 -0.3611  0.4225 -0.3935
18701SOL    HW160950   4.752   3.917   8.319 -1.7615  2.0100 -0.4936
18701SOL    HW260951   4.604   3.900   8.293 -1.1985 -0.5890 -2.3810
18702SOL     OW60952   3.639   8.830   5.896  0.1274 -0.0889 -0.5464
18702SOL    HW160953   3.614   8.801   5.984 -0.7247  1.3881 -0.2679
18702SOL    HW260954   3.731   8.805   5.887  0.8457  1.5220  1.5773
18703SOL     OW60955   5.577   2.979   9.419 -0.2601  0.0621  0.2159
18703SOL    HW160956   5.523   3.052   9.448 -0.9461 -0.8408  1.2726
18703SOL    HW260957   5.514   2.908   9.401  0.3461 -0.1353 -1.2494
18704SOL     OW60958   9.387   4.528   0.825  0.2169 -0.0647  0.3702
18704SOL    HW160959   9.362   4.454   0.880  0.7465 -0.3643  0.2211
18704SOL    HW260960   9.442   4.489   0.757 -0.5228  0.2800 -0.4404
18705SOL     OW60961   8.621   8.740   0.133 -0.0664 -0.1353 -0.0740
18705SOL    HW160962   8.711   8.709   0.124  0.0568  0.5929 -1.8840
18705SOL    HW260963   8.621   8.825   0.088 -1.2608  0.7308  1.4605
18706SOL     OW60964   8.905   0.217   2.404  0.0363  1.0856 -0.5019
18706SOL    HW160965   8.940   0.151   2.465  1.4390  1.1781 -1.1536
18706SOL    HW260966   8.971   0.286   2.404 -0.5626  1.6662 -1.1795
18707SOL     OW60967   7.572   9.437   0.067 -0.2109  0.4174  0.0474
18707SOL    HW160968   7.657   9.434   0.111  0.9534 -1.6114 -2.1115
18707SOL    HW260969   7.556   9.530   0.053  1.3195  0.8856  1.1034
18708SOL     OW60970   6.869   1.756   9.218  0.0738 -0.3771  0.4536
18708SOL    HW160971   6.920   1.814   9.162  0.6528  0.1854  1.5128
18708SOL    HW260972   6.807   1.814   9.262 -0.5042 -0.8361  0.2572
18709SOL     OW60973   6.885   2.054   3.999 -0.6146 -0.1861  0.5524
18709SOL    HW160974   6.919   1.976   3.954 -1.7870 -0.0656 -0.5761
18709SOL    HW260975   6.817   2.088   3.941  0.2942  2.0704  0.7172
18710SOL     OW60976   3.092   8.418   4.283  0.1558 -0.0528 -0.7706
18710SOL    HW160977   3.002   8.410   4.314  0.6254  1.7113  1.2799
18710SOL    HW260978   3.102   8.347   4.219 -1.6629 -2.3461  1.3133
18711SOL     OW60979   4.970   9.647   2.671 -0.2219  0.0114 -0.0816
18711SOL    HW160980   4.940   9.694   2.748 -0.4410  0.5780 -0.5046
18711SOL    HW260981   4.960   9.710   2.599 -0.4540 -0.6543 -0.6459
18712SOL     OW60982   0.971   3.210   2.091 -0.0142  0.2297 -0.2241
18712SOL    HW160983   0.939   3.265   2.019  2.7292  1.3685 -0.7027
18712SOL    HW260984   1.042   3.261   2.131  1.2145 -2.0549  0.7319
18713SOL     OW60985   5.526   7.928   5.943 -0.0699 -0.1555  0.5047
18713SOL    HW160986   5.510   8.006   5.996 -0.4023  0.6747 -0.7557
18713SOL    HW260987   5.485   7.856   5.992 -0.3956  0.5858  1.3356
18714SOL     OW60988   0.097   5.488   4.759  0.6624 -0.4668  0.2324
18714SOL    HW160989   0.083   5.439   4.678  0.5461 -0.0745  0.0129
18714SOL    HW260990   0.032   5.454   4.820 -1.1468  1.1618 -0.6973
18715SOL     OW60991   9.184   1.609   7.572  0.2505 -0.2432  0.6453
18715SOL    HW160992   9.171   1.589   7.664 -1.6669 -1.2019  0.2263
18715SOL    HW260993   9.155   1.531   7.526  0.0120  0.6569 -0.8061
18716SOL     OW60994   2.539   9.716   1.023  0.6361  0.4523  0.0053
18716SOL    HW160995   2.539   9.807   1.052  0.3519 -0.0634  1.6972
18716SOL    HW260996   2.498   9.718   0.937 -2.2367  1.5709  1.2937
18717SOL     OW60997   9.717   7.534   1.216  0.5023 -0.2101  0.2885
18717SOL    HW160998   9.808   7.515   1.195  0.9013  0.2062  1.5580
18717SOL    HW260999   9.680   7.450   1.241  0.8030 -0.2165  0.7095
18718SOL     OW61000   4.917   7.042   2.247 -0.4037  0.4927 -0.2190
18718SOL    HW161001   4.935   7.002   2.162  0.8690  0.1453  0.1865
18718SOL    HW261002   4.970   6.992   2.309 -2.0403  0.1239  0.9424
18719SOL     OW61003   7.103   6.611   1.816 -0.1886 -0.4428  0.1673
18719SOL    HW161004   7.072   6.643   1.902 -0.1422 -1.0331  0.4045
18719SOL    HW261005   7.189   6.573   1.834 -0.3963 -1.0167 -0.0535
18720SOL     OW61006   3.785   5.826   2.044  0.7867  0.0946 -0.0042
18720SOL    HW161007   3.744   5.910   2.067  2.8220  1.1408  0.0552
18720SOL    HW261008   3.716   5.777   2.000 -1.1197  0.9188  1.8448
18721SOL     OW61009   0.063   8.591   1.988 -0.3993  0.4980  0.4487
18721SOL    HW161010   0.111   8.670   1.967 -0.5072  0.5193  0.2767
18721SOL    HW261011  -0.026   8.621   2.006 -0.0690  0.6093  2.0217
18722SOL     OW61012   2.127   4.722   2.039 -0.0441 -0.2612  0.0805
18722SOL    HW161013   2.152   4.814   2.047 -1.0231  0.1019 -0.7156
18722SOL    HW261014   2.042   4.716   2.082  0.0704 -0.8311  0.2397
18723SOL     OW61015   6.863   8.391   1.344  0.4640  0.0309  0.5263
18723SOL    HW161016   6.800   8.406   1.415  0.3365  0.3665  0.3418
18723SOL    HW261017   6.945   8.430   1.376  0.6730 -0.6873  0.9024
18724SOL     OW61018   4.168   2.596   7.170  0.3840 -0.7445  0.0557
18724SOL    HW161019   4.082   2.634   7.152  0.7008  0.8446  1.6403
18724SOL    HW261020   4.168   2.579   7.264  1.7601 -0.8263  0.0596
18725SOL     OW61021   6.387   3.140   8.545 -0.0753  0.1409  0.1494
18725SOL    HW161022   6.311   3.151   8.488  0.4254  0.9853 -0.3942
18725SOL    HW261023   6.407   3.047   8.541 -1.9303 -0.3679  1.4581
18726SOL     OW61024   9.566   3.040   1.117 -0.1799 -0.3981  0.2459
18726SOL    HW161025   9.526   2.976   1.059 -1.7782  1.9627 -1.4778
18726SOL    HW261026   9.624   3.091   1.060  0.9277 -0.1883  1.5134
18727SOL     OW61027   5.569   3.873   9.503  0.5257  0.5011 -0.0229
18727SOL    HW161028   5.549   3.958   9.462 -0.1812  0.7046  0.7139
18727SOL    HW261029   5.551   3.887   9.596 -1.4464 -0.9921 -0.1268
18728SOL     OW61030   3.687   7.473   0.914  0.0121  0.1108 -0.2637
18728SOL    HW161031   3.659   7.563   0.930  0.2482 -0.1248  1.8643
18728SOL    HW261032   3.782   7.477   0.915  0.0229 -0.1773 -0.0281
18729SOL     OW61033   9.755   2.102   8.219 -0.5067 -0.2449 -0.0589
18729SOL    HW161034   9.731   2.042   8.289 -0.8316  0.9015  0.8481
18729SOL    HW261035   9.851   2.100   8.216 -0.4574  0.2953  0.9680
18730SOL     OW61036   7.220   1.567   5.493  0.2920 -0.3991  0.1436
18730SOL    HW161037   7.282   1.594   5.561  1.2542  1.0247 -1.2374
18730SOL    HW261038   7.180   1.649   5.464 -0.1578 -0.9895 -0.9523
18731SOL     OW61039   3.973   4.500   0.347 -0.3958  0.4603  0.4534
18731SOL    HW161040   3.885   4.531   0.324  0.1773  0.6179 -1.7277
18731SOL    HW261041   4.032   4.564   0.309  0.6956 -0.3964  0.6452
18732SOL     OW61042   7.699   8.474   0.718  0.5873 -0.1720  0.1275
18732SOL    HW161043   7.660   8.426   0.644  2.2381 -0.1108 -0.8189
18732SOL    HW261044   7.674   8.422   0.795  1.1491 -1.8095 -0.7397
18733SOL     OW61045   7.608   6.654   4.271  0.8959 -0.6313 -0.4797
18733SOL    HW161046   7.541   6.721   4.264  1.3855 -0.1263 -0.3892
18733SOL    HW261047   7.677   6.682   4.210  1.0687 -1.0843 -0.4971
18734SOL     OW61048   7.352   2.097   5.421  0.6279 -0.3786 -0.0962
18734SOL    HW161049   7.354   2.062   5.510  0.2489 -1.6398 -0.5643
18734SOL    HW261050   7.270   2.147   5.416  0.9053  0.1345  0.4142
18735SOL     OW61051   8.586   3.847   0.816 -0.5914  0.0035 -0.2710
18735SOL    HW161052   8.660   3.790   0.835 -1.0127 -0.4875 -0.0556
18735SOL    HW261053   8.589   3.860   0.722 -0.2876 -0.0946 -0.2765
18736SOL     OW61054   3.459   6.775   3.078 -0.0702 -0.4461 -0.4024
18736SOL    HW161055   3.440   6.798   2.987  0.7624 -0.6614 -0.6410
18736SOL    HW261056   3.553   6.789   3.087 -0.3829  1.1867  0.9059
18737SOL     OW61057   4.628   6.870   4.012  0.4936  0.3735  0.6464
18737SOL    HW161058   4.650   6.777   4.004 -1.5428 -0.0778 -0.4138
18737SOL    HW261059   4.665   6.911   3.934 -1.2052 -0.1547 -0.4916
18738SOL     OW61060   6.764   2.101   0.435 -0.0201  0.4777  0.1693
18738SOL    HW161061   6.820   2.169   0.397  1.1689 -0.4464  0.2069
18738SOL    HW261062   6.767   2.030   0.371 -1.2748  0.4625  0.1184
18739SOL     OW61063   4.824   8.376   4.844 -0.6252  0.2932  0.1339
18739SOL    HW161064   4.781   8.450   4.885 -1.5986  0.6702 -1.4570
18739SOL    HW261065   4.826   8.398   4.751  1.3264 -0.5844 -0.0959
18740SOL     OW61066   8.118   9.246   0.425 -0.7891  0.1271 -0.2021
18740SOL    HW161067   8.114   9.198   0.507 -0.9824  0.4607 -0.0146
18740SOL    HW261068   8.038   9.221   0.379 -1.1665  0.7044  0.1392
18741SOL     OW61069   8.328   4.724   3.785  0.2762  0.0675  0.1498
18741SOL    HW161070   8.329   4.793   3.852 -0.8477  0.5761 -0.3288
18741SOL    HW261071   8.288   4.766   3.708 -0.1509 -1.0354 -0.2467
18742SOL     OW61072   4.552   0.406   0.207 -0.2279 -0.7618  0.6541
18742SOL    HW161073   4.613   0.478   0.190 -2.5693  1.7584  2.1365
18742SOL    HW261074   4.562   0.387   0.300 -1.4071 -0.5665  0.8332
18743SOL     OW61075   8.651   3.622   8.228  0.2640  0.6636 -0.3662
18743SOL    HW161076   8.733   3.668   8.248  1.1632 -0.7845 -0.5356
18743SOL    HW261077   8.628   3.653   8.141  1.9487 -0.6190 -1.3390
18744SOL     OW61078   7.945   2.489   2.791 -0.0894 -0.0344  0.3453
18744SOL    HW161079   7.852   2.508   2.798  0.0062  0.9700 -0.7741
18744SOL    HW261080   7.961   2.476   2.697  1.1119  1.1172  0.3552
18745SOL     OW61081   6.911   4.898   1.878 -0.6883 -0.1815 -0.1259
18745SOL    HW161082   6.916   4.986   1.914 -0.7396  0.0406 -0.6530
18745SOL    HW261083   6.867   4.909   1.793 -0.7126 -0.7120 -0.1858
18746SOL     OW61084   9.279   2.914   1.769  0.0150  0.1184  0.3340
18746SOL    HW161085   9.281   2.925   1.674  0.8901  2.6448  0.5702
18746SOL    HW261086   9.368   2.938   1.797 -0.8395  1.6129  1.9283
18747SOL     OW61087   7.958   8.278   7.269 -0.4771  0.3999 -0.1041
18747SOL    HW161088   7.912   8.303   7.189 -0.9069  0.3390  0.1197
18747SOL    HW261089   8.050   8.274   7.243 -0.8226 -2.4275 -1.3550
18748SOL     OW61090   7.176   4.741   3.437 -0.0496 -0.4737  0.0255
18748SOL    HW161091   7.172   4.806   3.367 -0.0713 -1.4512 -0.8890
18748SOL    HW261092   7.086   4.714   3.450 -0.2321  0.6647  1.3775
18749SOL     OW61093   8.890   4.599   9.514 -0.1227 -0.0922  0.6082
18749SOL    HW161094   8.839   4.558   9.445  0.9891  1.0806 -0.9778
18749SOL    HW261095   8.829   4.659   9.557 -1.1555 -1.7322  1.5098
18750SOL     OW61096   0.927   2.702   1.467 -0.1788 -0.7809 -0.1651
18750SOL    HW161097   0.946   2.714   1.560 -0.3079 -0.7959 -0.1367
18750SOL    HW261098   1.007   2.663   1.431 -0.0058 -0.4725 -0.1245
18751SOL     OW61099   2.041   9.547   7.281 -0.0536 -0.2551  0.3436
18751SOL    HW161100   1.992   9.465   7.270 -0.7896  0.3248 -0.9477
18751SOL    HW261101   1.979   9.605   7.326 -0.0018 -0.0080  0.0970
18752SOL     OW61102   8.041   2.994   7.791  0.1443 -0.9338 -0.6447
18752SOL    HW161103   8.116   2.997   7.850  1.3417 -0.7191 -2.1256
18752SOL    HW261104   8.048   3.073   7.739 -1.8557 -0.2651  0.0109
18753SOL     OW61105   0.939   8.118   1.583  0.3642  0.4224  0.0596
18753SOL    HW161106   1.028   8.102   1.553  0.9508  0.7284  1.5023
18753SOL    HW261107   0.940   8.210   1.610  0.6057 -0.3496  3.0556
18754SOL     OW61108   9.086   1.269   8.111  0.2729  0.2726  0.1538
18754SOL    HW161109   9.122   1.181   8.110 -1.8645 -0.7306  1.8449
18754SOL    HW261110   9.023   1.269   8.184 -1.4236  2.5173 -1.1421
18755SOL     OW61111   9.553   9.309   7.359  0.0018  0.3631 -0.0096
18755SOL    HW161112   9.630   9.315   7.417 -0.6134 -2.1414  1.2044
18755SOL    HW261113   9.586   9.336   7.274  1.7255  1.2702  0.8765
18756SOL     OW61114   3.291   3.280   3.394  0.5055  0.0549 -0.3383
18756SOL    HW161115   3.232   3.234   3.334 -0.3630 -1.5873  1.6477
18756SOL    HW261116   3.236   3.344   3.438 -0.0573 -1.7727  1.8370
18757SOL     OW61117   1.897   8.259   7.901  0.5164 -0.0793 -0.3130
18757SOL    HW161118   1.815   8.256   7.951 -1.1564 -1.5619 -2.8554
18757SOL    HW261119   1.911   8.352   7.884  0.5820  0.3674  1.9364
18758SOL     OW61120   5.580   9.394   1.328 -0.2897  0.1542 -0.2745
18758SOL    HW161121   5.545   9.473   1.287 -0.0552  0.3712 -0.0662
18758SOL    HW261122   5.622   9.425   1.408 -1.3277 -0.3509  0.4876
18759SOL     OW61123   3.502   0.786   0.856  0.5297  0.2075  0.3683
18759SOL    HW161124   3.487   0.880   0.852  0.7958  0.2621  0.5935
18759SOL    HW261125   3.558   0.774   0.933 -0.6415 -0.2778  1.1772
18760SOL     OW61126   4.525   7.437   7.682  0.2882 -0.0474 -0.0850
18760SOL    HW161127   4.479   7.361   7.647 -1.6940  0.5090  1.1035
18760SOL    HW261128   4.472   7.512   7.655  1.4955  0.8048 -0.1599
18761SOL     OW61129   9.151   2.739   3.043 -0.1195 -0.1788 -0.0806
18761SOL    HW161130   9.234   2.741   2.995 -0.0658 -1.0406 -0.0412
18761SOL    HW261131   9.116   2.652   3.027 -0.4856 -0.2009  0.7991
18762SOL     OW61132   7.708   6.655   2.238  0.2585 -0.2091 -0.2917
18762SOL    HW161133   7.632   6.706   2.268  1.6452  0.4109  2.5836
18762SOL    HW261134   7.760   6.718   2.189 -0.0238 -0.0127 -0.3444
18763SOL     OW61135   8.357   6.729   9.734 -0.1497 -0.3499  0.2747
18763SOL    HW161136   8.265   6.757   9.736  0.4162  1.6274  0.8270
18763SOL    HW261137   8.353   6.633   9.729 -2.2281 -0.2676 -0.7131
18764SOL     OW61138   2.170   2.867   2.870  0.4623 -0.0716 -0.6806
18764SOL    HW161139   2.257   2.829   2.851  0.4291 -0.5094  0.0070
18764SOL    HW261140   2.180   2.908   2.956  0.2523  0.7428 -1.0382
18765SOL     OW61141   5.549   4.131   8.821 -0.2056 -0.2689 -0.1724
18765SOL    HW161142   5.598   4.111   8.741  1.0955  0.9048  0.3039
18765SOL    HW261143   5.615   4.149   8.887 -1.2624  0.6820  0.6726
18766SOL     OW61144   7.922   5.904   9.190 -0.0300 -0.8477  0.3477
18766SOL    HW161145   7.896   5.870   9.276 -1.0385 -0.7656  0.0916
18766SOL    HW261146   7.869   5.983   9.179  1.1976  0.0029  0.2980
18767SOL     OW61147   7.105   2.627   6.403  0.2242  0.2975 -0.2525
18767SOL    HW161148   7.025   2.582   6.373 -0.4716  1.6660 -0.5063
18767SOL    HW261149   7.157   2.638   6.324 -0.0208  0.7414 -0.3564
18768SOL     OW61150   7.708   9.495   9.418 -0.5137  1.3969 -0.3589
18768SOL    HW161151   7.694   9.564   9.353  1.3731  2.3329  0.1695
18768SOL    HW261152   7.759   9.537   9.487 -0.8735 -0.0739  0.8433
18769SOL     OW61153   2.267   8.338   0.157 -0.0708  0.2703  0.1202
18769SOL    HW161154   2.290   8.401   0.088 -2.5578  2.1817  0.8851
18769SOL    HW261155   2.286   8.385   0.238 -0.1499 -0.7418  0.7419
18770SOL     OW61156   1.384   8.777   3.124  0.5568 -0.3393  0.6693
18770SOL    HW161157   1.365   8.871   3.126  0.5026 -0.3480  0.6008
18770SOL    HW261158   1.466   8.771   3.075  0.9006 -0.2781  1.2327
18771SOL     OW61159   3.872   7.930   0.388  0.3748  0.0363 -0.0515
18771SOL    HW161160   3.881   7.971   0.302  0.6469 -2.7356 -1.4694
18771SOL    HW261161   3.782   7.951   0.415 -0.8023 -1.4579 -2.4650
18772SOL     OW61162   5.556   0.185   9.066 -0.9718  0.9801 -0.1651
18772SOL    HW161163   5.648   0.210   9.070 -1.0258  1.1818 -0.1538
18772SOL    HW261164   5.556   0.090   9.073 -0.7165  0.9210 -0.8380
18773SOL     OW61165   6.974   8.820   5.585  0.2688 -0.2017  0.2063
18773SOL    HW161166   7.065   8.800   5.565  0.1979  1.4280 -2.2881
18773SOL    HW261167   6.971   8.916   5.589 -1.1184 -0.2585  1.6661
18774SOL     OW61168   1.412   9.707   7.493  0.1186  0.6757 -0.7384
18774SOL    HW161169   1.508   9.710   7.494  0.1873  0.8476  2.7264
18774SOL    HW261170   1.385   9.795   7.519 -1.0282  0.5410 -1.4071
18775SOL     OW61171   4.885   3.474   6.053 -0.0439  0.2888 -0.0250
18775SOL    HW161172   4.813   3.468   5.990 -0.2697 -0.7865  0.3114
18775SOL    HW261173   4.918   3.384   6.060  0.5105  0.5426  0.7758
18776SOL     OW61174   6.825   3.399   6.777  0.2681  1.1709 -0.6348
18776SOL    HW161175   6.814   3.309   6.748  1.0910 -0.0663  2.4620
18776SOL    HW261176   6.822   3.451   6.697 -1.4326 -1.4554 -2.4259
18777SOL     OW61177   2.553   2.223   6.459 -0.4511 -0.5943  1.0701
18777SOL    HW161178   2.644   2.223   6.429 -0.3119 -0.1213  1.4738
18777SOL    HW261179   2.507   2.167   6.396  0.2667 -1.4999  1.3331
18778SOL     OW61180   0.837   9.689   5.223 -0.1130  0.1660 -0.1080
18778SOL    HW161181   0.818   9.774   5.183 -0.3116 -0.5580 -1.6227
18778SOL    HW261182   0.905   9.651   5.167 -1.7432 -1.6987 -0.9578
18779SOL     OW61183   2.881   8.172   4.602 -0.3968  0.5641  0.1825
18779SOL    HW161184   2.897   8.153   4.509  1.7489  1.6610  0.2612
18779SOL    HW261185   2.968   8.187   4.638 -1.3101  1.8345  2.0060
18780SOL     OW61186   7.609   1.638   2.235 -0.2818  0.0918  0.6609
18780SOL    HW161187   7.628   1.654   2.143  1.8380  0.2461  1.0617
18780SOL    HW261188   7.583   1.547   2.240 -0.9661  0.2389 -0.1586
18781SOL     OW61189   3.482   2.676   5.773  0.1596 -0.2180  0.4846
18781SOL    HW161190   3.429   2.617   5.719  1.0546 -0.4768 -0.1333
18781SOL    HW261191   3.419   2.740   5.808 -0.4189  0.1356 -1.1014
18782SOL     OW61192   6.375   2.353   0.118  0.7267 -0.3167  0.0337
18782SOL    HW161193   6.439   2.423   0.129  0.1848  0.0433  1.0251
18782SOL    HW261194   6.296   2.397   0.088  0.5092 -0.5547  0.2513
18783SOL     OW61195   4.319   5.727   0.286 -0.1391  0.2102  0.2803
18783SOL    HW161196   4.329   5.780   0.207 -0.2453  0.8012  0.6630
18783SOL    HW261197   4.295   5.640   0.253  0.7006  0.2082 -0.3834
18784SOL     OW61198   8.908   6.960   1.838 -0.3435  0.3402  0.2703
18784SOL    HW161199   9.001   6.972   1.856 -0.2195 -0.3800  0.1647
18784SOL    HW261200   8.886   7.031   1.778 -0.3247  1.6400  1.7367
18785SOL     OW61201   0.894   6.227   2.048  0.5597 -0.3462 -0.3841
18785SOL    HW161202   0.823   6.260   1.993  0.1808 -0.7346 -0.1308
18785SOL    HW261203   0.893   6.285   2.124  0.7240 -0.1540 -0.5268
18786SOL     OW61204   9.732   9.149   5.256 -0.4493 -0.0426  0.8647
18786SOL    HW161205   9.714   9.198   5.176 -0.9222 -0.4196  0.7358
18786SOL    HW261206   9.725   9.057   5.230 -0.2853 -0.1702  1.2665
18787SOL     OW61207   4.264   8.975   2.306 -0.3346  0.1856  0.0653
18787SOL    HW161208   4.246   8.977   2.400 -1.9490 -1.5185 -0.1369
18787SOL    HW261209   4.265   8.882   2.284  0.7028  0.5239 -1.5058
18788SOL     OW61210   7.430   3.134   9.309 -0.7240 -0.1843 -0.0054
18788SOL    HW161211   7.444   3.144   9.403 -1.0544  0.8062 -0.0518
18788SOL    HW261212   7.498   3.188   9.268 -0.1784 -1.1102 -0.3603
18789SOL     OW61213   9.619   1.858   0.936 -0.1574  0.4210 -0.4589
18789SOL    HW161214   9.529   1.889   0.928 -0.6102 -0.8069 -0.3349
18789SOL    HW261215   9.652   1.899   1.016 -1.5892 -1.3649  1.1290
18790SOL     OW61216   1.931   6.607   2.928  0.5441 -0.1142 -0.3608
18790SOL    HW161217   1.843   6.591   2.894  1.3270 -0.6226 -2.2917
18790SOL    HW261218   1.974   6.660   2.860  2.0320 -0.7130  0.0683
18791SOL     OW61219   3.134   5.338   6.275 -0.2453  0.5335  0.0099
18791SOL    HW161220   3.150   5.346   6.369 -0.1929  1.1385 -0.0475
18791SOL    HW261221   3.040   5.322   6.268 -0.1962  0.1481  0.1785
18792SOL     OW61222   0.601   4.577   6.051 -0.0033 -0.2803 -0.1542
18792SOL    HW161223   0.594   4.642   5.981  0.7033 -1.4393 -1.3297
18792SOL    HW261224   0.556   4.500   6.018 -2.3309  0.0631  1.9040
18793SOL     OW61225   8.773   1.678   0.718  0.6119 -0.1830 -0.0716
18793SOL    HW161226   8.758   1.704   0.809  3.0501 -1.4066  0.7432
18793SOL    HW261227   8.780   1.583   0.721  2.3680 -0.1178 -1.2591
18794SOL     OW61228   4.611   6.532   8.327 -0.2219  0.2869  0.1988
18794SOL    HW161229   4.616   6.502   8.236 -0.1859  0.3450  0.1811
18794SOL    HW261230   4.580   6.623   8.320 -0.4201  0.2245  0.2561
18795SOL     OW61231   7.793   2.533   1.789  0.2819 -0.0020 -0.1130
18795SOL    HW161232   7.720   2.479   1.757 -0.7478  1.7833 -0.9196
18795SOL    HW261233   7.833   2.568   1.710  1.5643 -0.3428  0.3677
18796SOL     OW61234   3.198   7.261   4.607  0.5424  0.2388 -0.2292
18796SOL    HW161235   3.130   7.269   4.674  0.8036  0.1507  0.0481
18796SOL    HW261236   3.161   7.200   4.542 -0.4585  1.7188 -1.1091
18797SOL     OW61237   7.641   3.349   5.761 -0.1079 -0.1746  0.0186
18797SOL    HW161238   7.705   3.306   5.705  1.3189  0.1131  1.3448
18797SOL    HW261239   7.626   3.435   5.721  1.2610  0.2151  0.2989
18798SOL     OW61240   6.888   4.684   9.106 -0.9483  0.1570  0.2157
18798SOL    HW161241   6.921   4.753   9.048  0.3106 -1.7982 -1.5504
18798SOL    HW261242   6.854   4.617   9.047  1.3770 -2.4381  1.5953
18799SOL     OW61243   4.025   4.044   8.559  0.1970 -0.1489  0.7929
18799SOL    HW161244   3.968   3.992   8.503  0.3587 -1.7422  2.0407
18799SOL    HW261245   3.974   4.122   8.580 -0.4625 -0.2785 -0.2669
18800SOL     OW61246   2.066   3.569   9.021  0.3126 -0.0760  0.0730
18800SOL    HW161247   2.089   3.497   9.080  0.5602  0.0366  0.1128
18800SOL    HW261248   1.979   3.546   8.988  0.9942 -1.1612 -1.0909
18801SOL     OW61249   1.042   0.108   6.787  0.9593  0.0192 -0.1888
18801SOL    HW161250   0.958   0.061   6.789  1.4779 -0.9392  2.1698
18801SOL    HW261251   1.100   0.052   6.735  0.3112  0.4742 -1.4588
18802SOL     OW61252   6.138   0.951   2.802 -0.3316 -0.7311  0.4337
18802SOL    HW161253   6.195   0.933   2.728  0.5290 -1.0822  1.1620
18802SOL    HW261254   6.110   0.864   2.832 -0.7264 -0.5885  0.4771
18803SOL     OW61255   8.768   3.862   1.077 -0.2671  0.3133  0.5372
18803SOL    HW161256   8.729   3.904   1.001 -1.0215  1.2416  1.4006
18803SOL    HW261257   8.813   3.933   1.123  1.0351 -0.4204  0.4567
18804SOL     OW61258   9.309   4.722   1.702 -0.0869 -0.4218  0.2603
18804SOL    HW161259   9.236   4.714   1.764 -0.2435  0.3040  0.1766
18804SOL    HW261260   9.286   4.664   1.629 -0.0397 -1.0584  0.7408
18805SOL     OW61261   2.056   6.571   7.006 -0.2073  0.4025  0.1317
18805SOL    HW161262   2.150   6.592   6.997 -0.3887  2.3564  1.9045
18805SOL    HW261263   2.043   6.562   7.100 -2.3816  3.6562  0.3019
18806SOL     OW61264   8.704   4.416   9.375  0.7183 -0.6053  0.0825
18806SOL    HW161265   8.613   4.437   9.356  0.9555  1.6996  1.1967
18806SOL    HW261266   8.738   4.381   9.292 -1.1587 -1.5806 -0.3235
18807SOL     OW61267   1.765   0.090   8.719 -0.2829  0.0790  0.0862
18807SOL    HW161268   1.735   0.114   8.807 -1.0319 -0.4032 -0.0341
18807SOL    HW261269   1.859   0.073   8.730 -0.5986 -1.1826  1.0474
18808SOL     OW61270   8.995   3.752   2.729  0.0625  0.0099  0.7691
18808SOL    HW161271   9.017   3.842   2.706 -1.0210  0.5846  1.8537
18808SOL    HW261272   9.008   3.702   2.648  1.9152  0.8824  0.4823
18809SOL     OW61273   0.604   8.312   4.977 -0.2736  0.7810  0.0074
18809SOL    HW161274   0.580   8.223   4.950 -0.7835  0.7508  0.5599
18809SOL    HW261275   0.695   8.303   5.006  0.2232  0.7743 -1.4795
18810SOL     OW61276   7.160   3.596   2.387 -0.6358 -0.1541  0.3165
18810SOL    HW161277   7.158   3.576   2.481 -0.5510 -2.5532 -0.1250
18810SOL    HW261278   7.072   3.576   2.356 -0.0521 -1.6553 -0.4801
18811SOL     OW61279   0.108   6.072   3.475  0.1373 -0.2137  0.0819
18811SOL    HW161280   0.075   6.126   3.404  0.2073 -0.6176 -0.2668
18811SOL    HW261281   0.036   6.011   3.495  0.1561 -0.1718  0.2832
18812SOL     OW61282   2.840   2.968   0.204 -0.0825  0.1714 -0.6511
18812SOL    HW161283   2.861   3.016   0.124  0.6401 -0.0164 -0.5813
18812SOL    HW261284   2.925   2.956   0.248 -0.4693  0.2921  0.1515
18813SOL     OW61285   7.355   3.529   9.598 -0.5650  0.1903 -0.1717
18813SOL    HW161286   7.315   3.484   9.523  1.1271 -2.9954  0.6867
18813SOL    HW261287   7.281   3.549   9.655 -1.7213  1.3570 -1.9430
18814SOL     OW61288   1.188   3.818   4.315 -0.0176  0.5129  0.3263
18814SOL    HW161289   1.166   3.909   4.336 -1.1242  0.4407 -0.4285
18814SOL    HW261290   1.265   3.799   4.369 -1.6895  0.8651  3.0279
18815SOL     OW61291   2.293   8.426   5.726  0.0089 -0.1398 -0.2469
18815SOL    HW161292   2.298   8.487   5.652  1.0211  0.9134  0.6349
18815SOL    HW261293   2.306   8.340   5.687 -1.2072  0.2099 -1.5023
18816SOL     OW61294   0.160   9.364   2.039  0.0968  0.3336  0.2547
18816SOL    HW161295   0.107   9.291   2.071  1.9161 -1.4894 -0.6208
18816SOL    HW261296   0.119   9.389   1.956  0.6887 -1.2079 -0.5335
18817SOL     OW61297   7.874   3.996   1.602 -0.4271 -0.2529 -0.3528
18817SOL    HW161298   7.835   4.043   1.676 -0.5829  0.9687 -1.1624
18817SOL    HW261299   7.966   3.985   1.626 -0.8852 -1.7495  0.8974
18818SOL     OW61300   1.406   7.718   7.359  0.1877  0.1705 -0.3559
18818SOL    HW161301   1.354   7.708   7.439 -0.0005 -3.0505 -0.7546
18818SOL    HW261302   1.363   7.787   7.310 -0.9015  0.8003  1.4116
18819SOL     OW61303   1.681   9.418   2.813  0.0850 -0.2990  0.2098
18819SOL    HW161304   1.704   9.506   2.783  3.5582 -0.5011  1.7156
18819SOL    HW261305   1.623   9.383   2.745  1.2435  1.9767 -2.1125
18820SOL     OW61306   3.012   4.111   3.215 -0.3330 -0.2293 -0.5171
18820SOL    HW161307   2.980   4.178   3.275 -0.4211 -0.4073 -0.3625
18820SOL    HW261308   3.073   4.157   3.157 -1.4206  0.2673 -1.2877
18821SOL     OW61309   8.269   2.683   6.438 -0.1635  0.8236 -0.8766
18821SOL    HW161310   8.336   2.644   6.494  0.2641  0.4497 -1.6332
18821SOL    HW261311   8.212   2.730   6.499 -0.1779 -0.2283 -0.0382
18822SOL     OW61312   7.025   7.297   3.499  0.0887  0.9575 -0.2523
18822SOL    HW161313   7.108   7.334   3.529  0.8497 -0.7846 -0.0470
18822SOL    HW261314   7.035   7.203   3.515 -1.3321  0.5412 -1.6442
18823SOL     OW61315   0.751   6.637   4.653 -0.0433 -0.2987  0.1849
18823SOL    HW161316   0.826   6.579   4.659 -0.0549 -0.1854  2.2081
18823SOL    HW261317   0.678   6.580   4.626  0.4006 -0.7566 -0.0550
18824SOL     OW61318   0.639   5.447   0.454 -0.0265 -0.2950  0.1759
18824SOL    HW161319   0.729   5.477   0.463 -0.5301  1.1017  0.6997
18824SOL    HW261320   0.629   5.430   0.360  0.2925  1.1678 -0.1500
18825SOL     OW61321   1.972   2.897   1.481 -0.7789 -0.4474  0.1798
18825SOL    HW161322   1.933   2.858   1.402  0.0974 -0.4583 -0.2586
18825SOL    HW261323   1.965   2.828   1.547  0.8061 -1.4301 -0.6020
18826SOL     OW61324   6.118   3.018   9.546  0.0067  0.1193 -0.1329
18826SOL    HW161325   6.107   2.995   9.639  2.6777 -1.1462 -0.0329
18826SOL    HW261326   6.186   3.085   9.546  1.2521 -1.0897 -1.2395
18827SOL     OW61327   8.085   6.786   6.621  0.1353 -1.1819  0.0185
18827SOL    HW161328   8.096   6.692   6.635  0.6172 -1.4341 -1.7952
18827SOL    HW261329   8.149   6.826   6.680  1.5856 -2.1149 -0.8387
18828SOL     OW61330   9.724   7.092   8.524  0.1042 -0.1299 -0.3968
18828SOL    HW161331   9.781   7.084   8.447 -0.5664 -0.7052 -0.8454
18828SOL    HW261332   9.754   7.171   8.568 -0.5025  1.1109 -2.0931
18829SOL     OW61333   3.638   8.168   9.075  0.3096  0.0556 -0.2215
18829SOL    HW161334   3.544   8.186   9.072 -0.1371 -2.0641 -0.6524
18829SOL    HW261335   3.644   8.081   9.114  2.2519  0.9432  1.6306
18830SOL     OW61336   2.865   1.412   6.243 -0.3514 -0.4919 -0.3053
18830SOL    HW161337   2.831   1.355   6.174  0.7944 -0.6227 -0.7782
18830SOL    HW261338   2.790   1.468   6.267 -1.2121 -1.5122 -0.5242
18831SOL     OW61339   5.824   5.666   5.867 -0.0466  0.5756 -0.1020
18831SOL    HW161340   5.881   5.592   5.890 -1.1685  0.3281  2.2766
18831SOL    HW261341   5.753   5.626   5.817 -0.6137 -0.0204  1.1147
18832SOL     OW61342   4.964   1.428   3.285 -0.7386 -0.4629 -0.9843
18832SOL    HW161343   4.900   1.385   3.228 -1.2409  0.9303 -1.5244
18832SOL    HW261344   4.915   1.497   3.329  0.0309 -0.4484 -0.1147
18833SOL     OW61345   1.694   1.167   6.399 -0.3227  0.2429  0.4649
18833SOL    HW161346   1.756   1.113   6.449  1.7140  1.1984 -0.8665
18833SOL    HW261347   1.691   1.250   6.445 -2.8807 -0.6227  2.0872
18834SOL     OW61348   9.276   7.672   9.732 -0.3762  0.1263  0.3652
18834SOL    HW161349   9.340   7.619   9.685 -1.1700  0.0205 -0.6282
18834SOL    HW261350   9.314   7.685   9.818  0.2520 -1.2838  0.3228
18835SOL     OW61351   7.362   6.848   7.089 -0.2137 -0.6668 -0.0006
18835SOL    HW161352   7.368   6.912   7.018  3.3564 -1.4661 -0.6263
18835SOL    HW261353   7.378   6.898   7.169 -1.5177 -0.1992 -0.0088
18836SOL     OW61354   3.129   0.684   2.354 -0.5962  0.2703  0.4977
18836SOL    HW161355   3.059   0.681   2.288 -2.0748  1.4438  1.9390
18836SOL    HW261356   3.163   0.773   2.349  2.2655 -0.7675 -1.5189
18837SOL     OW61357   7.548   0.087   2.150 -0.0504  0.1707  0.4724
18837SOL    HW161358   7.519   0.023   2.215  0.2679 -0.6344 -0.1518
18837SOL    HW261359   7.494   0.069   2.073 -1.7132  2.3202  1.0457
18838SOL     OW61360   3.533   7.507   8.386 -0.1124 -0.2339 -0.5187
18838SOL    HW161361   3.594   7.568   8.343  0.2599 -0.3797 -0.2071
18838SOL    HW261362   3.581   7.424   8.388 -0.2958 -0.3331 -0.2075
18839SOL     OW61363   3.717   0.512   0.769  0.3025 -0.3752 -0.3502
18839SOL    HW161364   3.637   0.504   0.716  0.6257 -0.4353 -0.8266
18839SOL    HW261365   3.714   0.437   0.827 -0.7820  0.4431  0.7158
18840SOL     OW61366   4.340   2.773   5.436 -0.0059  0.0634 -0.2696
18840SOL    HW161367   4.266   2.777   5.496 -0.3611 -2.0962 -0.4816
18840SOL    HW261368   4.412   2.739   5.488 -0.7098 -3.2995 -1.2882
18841SOL     OW61369   6.828   6.360   3.021  0.1020 -0.6769 -0.8793
18841SOL    HW161370   6.811   6.266   3.022 -0.6710 -0.5492  1.0485
18841SOL    HW261371   6.746   6.400   3.050  0.4821  0.5989 -1.4799
18842SOL     OW61372   1.224   2.205   2.372  0.3022 -0.1395 -0.3697
18842SOL    HW161373   1.306   2.162   2.351  1.0801  0.7050  0.8332
18842SOL    HW261374   1.204   2.259   2.296  0.3070 -1.1238 -1.0868
18843SOL     OW61375   1.428   8.999   3.772  0.3638 -0.0875  0.4037
18843SOL    HW161376   1.352   9.049   3.803  0.5866 -0.3329  1.3834
18843SOL    HW261377   1.472   8.970   3.852  1.7752  0.4704 -0.1370
18844SOL     OW61378   9.228   4.879   4.011 -0.3017 -0.0003  0.0463
18844SOL    HW161379   9.261   4.936   3.942 -0.0839 -0.4063 -0.1878
18844SOL    HW261380   9.234   4.791   3.974  1.0027 -0.3566  1.0476
18845SOL     OW61381   1.307   8.747   0.093  0.3937  0.2912  0.0511
18845SOL    HW161382   1.396   8.746   0.127  1.6774 -1.0508 -3.0243
18845SOL    HW261383   1.292   8.839   0.069  1.5035  0.2764 -0.7313
18846SOL     OW61384   9.565   8.987   4.792  0.1048 -0.9715 -0.2698
18846SOL    HW161385   9.609   8.921   4.845 -2.4285 -2.6937 -0.1493
18846SOL    HW261386   9.483   9.005   4.838  1.0405  3.0294  0.1849
18847SOL     OW61387   3.932   2.163   7.925  0.2586  0.1883  0.3153
18847SOL    HW161388   3.958   2.073   7.910 -0.8145 -0.4814  2.0716
18847SOL    HW261389   3.872   2.184   7.854  0.7771 -0.3543 -0.2874
18848SOL     OW61390   0.374   6.277   1.296 -0.2364  0.7199  0.4837
18848SOL    HW161391   0.314   6.345   1.328  0.2113  1.4479 -0.1766
18848SOL    HW261392   0.412   6.315   1.216 -0.4467 -0.5565 -0.2536
18849SOL     OW61393   4.497   7.778   2.709 -0.4565 -0.5366  0.7405
18849SOL    HW161394   4.513   7.683   2.705 -2.7380 -1.0240  1.6357
18849SOL    HW261395   4.406   7.785   2.736  0.0987  1.9563  2.2286
18850SOL     OW61396   5.941   7.541   4.215 -0.1044  0.3165  0.6121
18850SOL    HW161397   5.907   7.631   4.212  0.3666  0.4897 -2.4064
18850SOL    HW261398   5.862   7.487   4.223 -0.7462  0.9197 -1.0798
18851SOL     OW61399   6.172   5.928   1.494  0.0207  0.3651  0.4594
18851SOL    HW161400   6.158   5.906   1.586  1.2434  0.8472  0.7777
18851SOL    HW261401   6.267   5.926   1.483 -0.1192  0.0480 -0.8671
18852SOL     OW61402   7.388   3.517   4.301 -0.4563 -0.0292 -0.2417
18852SOL    HW161403   7.407   3.423   4.294 -1.8885 -0.2253 -2.5012
18852SOL    HW261404   7.329   3.535   4.228 -0.8752  2.4939  0.6222
18853SOL     OW61405   4.408   8.542   8.362  0.8168  0.8745 -0.1828
18853SOL    HW161406   4.430   8.453   8.334 -2.5345 -0.1110 -0.1194
18853SOL    HW261407   4.381   8.532   8.453 -0.0240  1.8868 -0.3145
18854SOL     OW61408   5.944   4.385   8.202 -0.0631  0.3461  0.2981
18854SOL    HW161409   6.025   4.379   8.151  0.6380  0.0178  1.4123
18854SOL    HW261410   5.954   4.465   8.254  0.2283 -0.4644  1.5356
18855SOL     OW61411   2.630   5.663   2.746 -0.2671 -0.0997  0.0092
18855SOL    HW161412   2.703   5.631   2.800 -0.0934  0.9717  0.4162
18855SOL    HW261413   2.633   5.758   2.754 -1.1514  0.0057 -0.7176
18856SOL     OW61414   1.967   6.151   9.230 -0.2151 -0.6292 -0.3274
18856SOL    HW161415   1.885   6.106   9.253  0.0208 -0.3928  1.1260
18856SOL    HW261416   1.959   6.170   9.137 -0.9991 -2.2578 -0.6285
18857SOL     OW61417   8.364   3.118   0.971  0.2950 -0.1317  0.0389
18857SOL    HW161418   8.334   3.029   0.952  2.0652 -0.6323 -0.6939
18857SOL    HW261419   8.399   3.149   0.888  1.0886  0.6567  0.6526
18858SOL     OW61420   3.983   0.450   9.420  0.2720 -0.5760 -0.0699
18858SOL    HW161421   4.056   0.511   9.434 -0.1693 -0.4839  2.1899
18858SOL    HW261422   3.905   0.505   9.422 -0.0418 -1.0184  0.7359
18859SOL     OW61423   8.165   2.649   8.590  0.1422 -0.2093 -0.1796
18859SOL    HW161424   8.245   2.612   8.626 -0.1222 -2.8130 -1.9609
18859SOL    HW261425   8.101   2.642   8.660  0.7080 -1.0318  0.2642
18860SOL     OW61426   7.165   3.046   8.261 -0.5410 -0.2347 -0.0382
18860SOL    HW161427   7.200   3.020   8.176  0.0235 -0.4411  0.2445
18860SOL    HW261428   7.113   2.971   8.290 -2.2976  0.5707 -1.0242
18861SOL     OW61429   6.332   8.945   3.588 -0.3512  0.2417  0.1334
18861SOL    HW161430   6.365   9.030   3.560  0.8114 -0.0492  0.5673
18861SOL    HW261431   6.408   8.901   3.626 -1.0320 -0.8260  0.3030
18862SOL     OW61432   7.339   7.241   5.585 -0.1068 -0.3699 -0.2006
18862SOL    HW161433   7.262   7.184   5.591 -0.0552 -0.3879  0.3629
18862SOL    HW261434   7.397   7.197   5.523  0.0563 -1.0954  0.4438
18863SOL     OW61435   4.808   1.372   3.915 -0.2029 -0.0338 -0.0944
18863SOL    HW161436   4.762   1.455   3.927 -1.5357 -0.3779 -2.1506
18863SOL    HW261437   4.884   1.395   3.861  0.0483 -0.0012  0.2690
18864SOL     OW61438   6.975   2.774   0.407 -0.3686  0.1964  0.5618
18864SOL    HW161439   6.937   2.854   0.445  0.9737  0.5898  1.1460
18864SOL    HW261440   7.018   2.731   0.481  2.4142  1.0260 -0.4297
18865SOL     OW61441   1.157   6.371   8.611  0.1074 -0.0769  0.1589
18865SOL    HW161442   1.204   6.328   8.539  0.5140 -0.6718  0.7747
18865SOL    HW261443   1.087   6.420   8.567 -1.2967 -2.5152 -0.4929
18866SOL     OW61444   1.952   4.249   3.973  0.0153 -0.2519 -0.4531
18866SOL    HW161445   1.960   4.220   4.063 -0.5477 -0.4587 -0.4669
18866SOL    HW261446   1.930   4.342   3.980 -1.3903 -0.5813 -0.3456
18867SOL     OW61447   8.260   8.682   2.120 -0.0245  0.1376 -0.3516
18867SOL    HW161448   8.275   8.590   2.140 -0.1042  0.1810 -0.0900
18867SOL    HW261449   8.269   8.727   2.204 -1.5874  0.1611 -0.1587
18868SOL     OW61450   0.708   9.143   5.999 -0.0915 -0.0250  0.2106
18868SOL    HW161451   0.791   9.126   6.044  0.5357  1.0442 -0.5085
18868SOL    HW261452   0.670   9.217   6.045 -0.3949 -0.1848  0.2171
18869SOL     OW61453   1.301   4.940   5.962 -0.1339 -0.4033  0.1059
18869SOL    HW161454   1.302   4.905   5.873  0.6556 -1.7953  0.6340
18869SOL    HW261455   1.223   4.904   6.002 -0.3786  0.0566  0.0488
18870SOL     OW61456   2.680   8.419   1.177 -0.1525 -0.0882 -0.4559
18870SOL    HW161457   2.724   8.504   1.179 -1.5204  0.6822 -1.3916
18870SOL    HW261458   2.717   8.371   1.251 -1.1854  2.2885  1.7678
18871SOL     OW61459   7.261   6.526   7.521 -0.1713 -0.3210 -0.1547
18871SOL    HW161460   7.236   6.478   7.443  0.2633 -1.0607  0.1543
18871SOL    HW261461   7.344   6.567   7.498  0.5255 -1.4527  0.2781
18872SOL     OW61462   1.866   7.446   1.962 -0.2846 -0.9771  0.3847
18872SOL    HW161463   1.836   7.519   2.016 -0.3387 -0.5559 -0.2117
18872SOL    HW261464   1.921   7.394   2.021 -1.4190 -1.2697  1.2398
18873SOL     OW61465   9.595   9.023   5.969 -1.1668 -0.0108 -0.2943
18873SOL    HW161466   9.615   8.958   5.902  4.3557 -0.9566  1.7450
18873SOL    HW261467   9.516   8.990   6.012 -0.1802 -3.9362 -1.1364
18874SOL     OW61468   1.759   2.943   9.718 -0.0093 -0.7400  0.4444
18874SOL    HW161469   1.668   2.960   9.745  0.3285  0.5532  0.8144
18874SOL    HW261470   1.765   2.982   9.631  0.8023  1.2777  1.3428
18875SOL     OW61471   5.767   8.860   3.581  0.0037  1.0011 -0.4325
18875SOL    HW161472   5.724   8.945   3.594  1.2177  1.2303  3.1206
18875SOL    HW261473   5.860   8.879   3.587  0.2851 -0.5947  1.1105
18876SOL     OW61474   0.498   4.513   3.362 -0.7188  0.2054  0.4958
18876SOL    HW161475   0.592   4.515   3.343 -0.8731 -0.1100 -0.3576
18876SOL    HW261476   0.486   4.579   3.430 -0.0027  0.8541  0.0123
18877SOL     OW61477   1.841   0.058   7.339  0.1734  0.7933 -0.3658
18877SOL    HW161478   1.760   0.100   7.365  0.2274  0.1617  0.8687
18877SOL    HW261479   1.884   0.122   7.281 -0.4802  1.7595  0.2001
18878SOL     OW61480   9.331   0.547   0.702 -0.2031 -0.7795  0.2061
18878SOL    HW161481   9.327   0.573   0.794  0.4985 -0.1711  0.0684
18878SOL    HW261482   9.242   0.517   0.683 -1.0936  1.5025  0.3775
18879SOL     OW61483   7.475   2.123   2.748  0.3812 -0.5627 -0.0851
18879SOL    HW161484   7.531   2.169   2.686  0.1428  1.8160  1.2897
18879SOL    HW261485   7.437   2.194   2.802 -4.5397 -1.8273 -1.3508
18880SOL     OW61486   2.088   1.853   3.551 -0.0941 -0.0713 -0.4936
18880SOL    HW161487   2.172   1.859   3.597 -0.1287  0.7784 -0.5367
18880SOL    HW261488   2.067   1.759   3.554 -1.9348  0.1824  4.5538
18881SOL     OW61489   5.010   9.446   6.795  0.6822  0.2255  0.3945
18881SOL    HW161490   5.087   9.459   6.851  1.2336  2.8346 -0.8129
18881SOL    HW261491   4.935   9.456   6.854  1.2576  0.1276  1.1582
18882SOL     OW61492   4.219   0.057   5.998 -0.5270  0.3551 -0.2113
18882SOL    HW161493   4.167   0.135   5.977  0.5848  1.7587  1.8835
18882SOL    HW261494   4.255   0.075   6.085  0.9512 -1.9043 -0.2767
18883SOL     OW61495   8.187   5.830   8.610  0.4186  0.4398 -0.4630
18883SOL    HW161496   8.105   5.780   8.604 -0.3764  1.7059 -0.5242
18883SOL    HW261497   8.171   5.893   8.680  0.8101  1.6557 -1.4349
18884SOL     OW61498   7.410   5.365   9.397  0.2593  0.0947 -0.3050
18884SOL    HW161499   7.467   5.413   9.457 -0.0695 -1.4854  1.3639
18884SOL    HW261500   7.444   5.275   9.399 -0.5809 -0.2718 -1.4913
18885SOL     OW61501   8.938   4.492   2.744 -0.1298 -0.2175 -0.4931
18885SOL    HW161502   8.946   4.434   2.819  1.0625  0.1558 -0.3126
18885SOL    HW261503   8.856   4.539   2.759 -1.1191 -1.8085 -0.6408
18886SOL     OW61504   5.813   5.390   5.910 -0.5170 -0.1520  0.5829
18886SOL    HW161505   5.764   5.323   5.957 -0.3111  0.1217  1.1961
18886SOL    HW261506   5.905   5.375   5.935 -0.4448  0.2102  0.5519
18887SOL     OW61507   4.746   4.329   5.513  0.0614 -0.0813 -0.1373
18887SOL    HW161508   4.733   4.278   5.593  0.2119 -3.0491 -1.8664
18887SOL    HW261509   4.707   4.276   5.444  2.3134  1.0452 -2.4387
18888SOL     OW61510   0.164   2.255   9.488  0.2487  0.2880 -0.3654
18888SOL    HW161511   0.162   2.170   9.445  0.7779 -0.3536  0.8283
18888SOL    HW261512   0.097   2.249   9.557 -1.3453  1.6670 -1.7039
18889SOL     OW61513   5.170   8.332   0.981  0.2305  0.1256 -0.5615
18889SOL    HW161514   5.155   8.315   1.074  1.3446  0.3913 -0.3171
18889SOL    HW261515   5.264   8.352   0.975 -0.0181  1.0748 -1.5957
18890SOL     OW61516   8.042   7.633   4.206 -0.1006  0.5478 -0.8271
18890SOL    HW161517   7.978   7.630   4.135 -1.5156 -2.0739  0.3954
18890SOL    HW261518   7.994   7.669   4.280 -0.0799 -0.9541 -0.0354
18891SOL     OW61519   4.865   9.039   4.954 -0.8197  0.0968  0.2273
18891SOL    HW161520   4.776   9.047   4.989 -1.2505  0.2493 -0.8504
18891SOL    HW261521   4.860   8.965   4.892 -0.3160  0.4003 -0.1844
18892SOL     OW61522   8.803   6.687   9.676  0.3930  0.4249  0.1945
18892SOL    HW161523   8.764   6.672   9.762  2.5167  0.1721  1.1718
18892SOL    HW261524   8.894   6.658   9.686  0.6156  0.1146 -2.2283
18893SOL     OW61525   6.791   4.438   0.359  0.2038  0.5117 -0.4817
18893SOL    HW161526   6.792   4.528   0.392 -1.2023  0.3839 -0.0488
18893SOL    HW261527   6.793   4.449   0.263  1.4517  0.9456 -0.4302
18894SOL     OW61528   7.094   3.146   6.816 -0.8122 -0.2614 -0.3657
18894SOL    HW161529   7.088   3.190   6.731  0.6421 -1.2185 -1.0145
18894SOL    HW261530   7.058   3.209   6.879 -2.3547  0.2853 -1.7214
18895SOL     OW61531   8.291   2.992   7.924  0.2781  0.0278  0.0315
18895SOL    HW161532   8.333   2.906   7.921  0.2390  0.0164 -0.2236
18895SOL    HW261533   8.340   3.044   7.860 -0.2845 -0.0711 -0.4825
18896SOL     OW61534   5.061   1.232   1.419 -0.0255  0.0132  0.4244
18896SOL    HW161535   5.146   1.277   1.422  0.1695 -0.3968  1.6566
18896SOL    HW261536   5.006   1.289   1.365  1.0127  0.2998 -0.3749
18897SOL     OW61537   3.332   1.249   3.118 -0.1880  0.3765 -0.1208
18897SOL    HW161538   3.241   1.247   3.088  0.3901  1.1676 -2.0871
18897SOL    HW261539   3.376   1.307   3.056  1.3482  1.3001  1.7476
18898SOL     OW61540   5.655   6.686   2.130  0.4255 -0.4158  0.0693
18898SOL    HW161541   5.573   6.736   2.130  1.0517  0.6223 -0.0612
18898SOL    HW261542   5.703   6.718   2.054  1.4265 -0.2144  0.7704
18899SOL     OW61543   4.298   8.450   4.842  0.1447 -0.4295  0.3211
18899SOL    HW161544   4.249   8.380   4.884 -2.1192  0.7800 -0.1258
18899SOL    HW261545   4.249   8.469   4.761  0.4438  1.8620  0.6010
18900SOL     OW61546   8.513   6.880   8.153 -0.1881  0.0828 -0.6840
18900SOL    HW161547   8.559   6.948   8.203 -0.4874  0.0358 -0.3411
18900SOL    HW261548   8.511   6.914   8.063  0.6936 -0.0134 -0.7474
18901SOL     OW61549   2.430   4.070   9.168 -0.0083 -0.0946 -0.0081
18901SOL    HW161550   2.468   4.041   9.085  0.2499 -0.6512  0.2945
18901SOL    HW261551   2.458   4.004   9.232 -0.8055 -0.0776  0.3826
18902SOL     OW61552   6.715   6.572   0.147 -0.3883  0.1688 -0.3256
18902SOL    HW161553   6.723   6.477   0.138 -0.4811  0.1977 -0.7018
18902SOL    HW261554   6.787   6.596   0.206 -1.4390 -0.3578  1.2357
18903SOL     OW61555   0.984   6.799   9.210 -0.0732  0.0847 -0.1136
18903SOL    HW161556   1.015   6.769   9.295 -0.4438 -0.7120 -0.2451
18903SOL    HW261557   0.945   6.885   9.227 -0.8291 -0.3976  0.6712
18904SOL     OW61558   4.832   2.761   1.316  0.5461 -0.2432 -0.4383
18904SOL    HW161559   4.742   2.746   1.344  0.1720  0.3014 -1.2941
18904SOL    HW261560   4.829   2.846   1.273  1.3321 -0.5303 -1.0722
18905SOL     OW61561   4.239   3.115   8.949  0.0929 -0.1453  0.6053
18905SOL    HW161562   4.149   3.088   8.968  0.1047 -0.2367  0.5354
18905SOL    HW261563   4.279   3.038   8.908 -0.0048  0.1266 -0.0119
18906SOL     OW61564   1.675   5.081   5.014 -0.3147 -0.2983 -0.4318
18906SOL    HW161565   1.643   5.091   4.924 -1.1203  0.1840 -0.0973
18906SOL    HW261566   1.688   5.170   5.045 -1.6333 -0.3939  0.4808
18907SOL     OW61567   3.897   0.416   7.128 -0.2494 -0.1480  0.1116
18907SOL    HW161568   3.836   0.455   7.065 -1.3921  0.0020  1.2524
18907SOL    HW261569   3.844   0.402   7.206  1.0933 -0.4457  1.0030
18908SOL     OW61570   8.409   4.731   1.321 -0.2734 -0.0105 -0.1786
18908SOL    HW161571   8.327   4.717   1.367  1.4241 -2.2417  2.5158
18908SOL    HW261572   8.462   4.784   1.381  1.4377 -1.5954 -0.1917
18909SOL     OW61573   9.230   0.838   3.983  0.2751  0.0352  0.1499
18909SOL    HW161574   9.274   0.858   4.065 -1.1001 -0.0191  0.9236
18909SOL    HW261575   9.301   0.816   3.922  1.4779  2.2469  0.6728
18910SOL     OW61576   3.044   3.271   3.245  0.2137 -0.3697  0.5424
18910SOL    HW161577   3.108   3.248   3.177  0.2370 -1.0264  0.7846
18910SOL    HW261578   3.006   3.188   3.272 -0.3862 -0.0317  0.7621
18911SOL     OW61579   7.676   7.429   4.059  0.1456  0.3127  0.3949
18911SOL    HW161580   7.716   7.347   4.031  0.3964  0.2435  0.9448
18911SOL    HW261581   7.749   7.492   4.057 -0.0026  0.4765  0.1613
18912SOL     OW61582   8.114   7.201   7.368  0.4012  0.0585  0.8148
18912SOL    HW161583   8.090   7.280   7.318  0.8323 -0.0844  0.3715
18912SOL    HW261584   8.031   7.155   7.382 -0.1645  1.5158  2.7214
18913SOL     OW61585   7.275   9.016   6.715 -0.1135 -0.0722 -0.2157
18913SOL    HW161586   7.233   8.930   6.708  0.3705 -0.4266  1.0194
18913SOL    HW261587   7.366   8.997   6.737  0.1463  0.7499 -0.5419
18914SOL     OW61588   0.429   6.375   6.845  0.3301 -0.2330 -0.5640
18914SOL    HW161589   0.441   6.365   6.751 -0.3766 -0.1211 -0.6698
18914SOL    HW261590   0.407   6.287   6.876 -2.4848  0.2492 -0.9803
18915SOL     OW61591   2.175   6.570   2.771  0.1807 -0.0013  0.2222
18915SOL    HW161592   2.197   6.532   2.686  0.3433  0.0039  0.2609
18915SOL    HW261593   2.142   6.497   2.822 -1.5369  0.3053 -0.3916
18916SOL     OW61594   4.688   9.403   3.093  0.1541  0.1388  0.6925
18916SOL    HW161595   4.689   9.318   3.135  1.2340 -0.1154  0.1845
18916SOL    HW261596   4.680   9.466   3.165 -0.4375 -0.3663  1.0789
18917SOL     OW61597   7.409   2.270   7.655  0.2898 -0.1390 -0.3193
18917SOL    HW161598   7.389   2.335   7.588  0.4357  0.5434  0.2844
18917SOL    HW261599   7.323   2.242   7.688  0.1681 -1.4031 -1.6347
18918SOL     OW61600   0.668   1.796   5.758  0.0685 -0.4592  0.1825
18918SOL    HW161601   0.717   1.804   5.676 -0.4003 -2.4013 -0.3343
18918SOL    HW261602   0.735   1.778   5.824  0.1936 -1.9171 -0.3174
18919SOL     OW61603   0.800   2.523   5.005  0.4455 -0.0393  0.1079
18919SOL    HW161604   0.893   2.549   5.006  0.5978 -0.5767  1.5575
18919SOL    HW261605   0.801   2.434   4.970  0.2927  0.5187 -1.3813
18920SOL     OW61606   7.225   1.244   8.169  0.1103 -0.0809 -0.2163
18920SOL    HW161607   7.214   1.324   8.117  0.3443 -0.0834 -0.2678
18920SOL    HW261608   7.164   1.181   8.128 -2.2261  0.8859  1.5415
18921SOL     OW61609   2.334   0.244   2.000  0.1118 -0.5804  0.5965
18921SOL    HW161610   2.415   0.293   2.016 -1.3071  1.6645  1.3518
18921SOL    HW261611   2.308   0.211   2.086 -0.0274 -0.9194  0.4281
18922SOL     OW61612   8.184   1.653   4.522 -0.1143  0.6423 -0.1143
18922SOL    HW161613   8.218   1.696   4.600 -0.4034  0.5962  0.0412
18922SOL    HW261614   8.258   1.648   4.462  0.1137  0.6551  0.1680
18923SOL     OW61615   2.690   2.766   1.697  0.2097 -0.1703  0.0610
18923SOL    HW161616   2.685   2.848   1.647 -0.6234 -0.1356  0.1803
18923SOL    HW261617   2.614   2.769   1.755  0.3517 -0.8871  0.2968
18924SOL     OW61618   8.537   1.789   1.004  0.2203  0.3662 -0.2176
18924SOL    HW161619   8.511   1.813   1.093 -0.3159 -1.7814  0.2618
18924SOL    HW261620   8.481   1.843   0.948  0.8758  2.0672  0.7108
18925SOL     OW61621   4.916   6.058   3.768  0.0788  0.0891  0.0254
18925SOL    HW161622   4.981   6.115   3.726  0.0575  0.4059  0.4256
18925SOL    HW261623   4.952   6.041   3.855  0.2549 -0.7866 -0.2006
18926SOL     OW61624   8.633   1.840   9.686 -0.4381  0.5395 -0.1456
18926SOL    HW161625   8.624   1.832   9.591  0.5145  1.3369 -0.3217
18926SOL    HW261626   8.544   1.856   9.717 -0.5217  2.1602 -1.1158
18927SOL     OW61627   9.624   1.290   4.719 -0.8704  0.1312  0.1571
18927SOL    HW161628   9.568   1.214   4.703  0.1990 -0.3547 -1.5075
18927SOL    HW261629   9.648   1.321   4.631  2.1493 -0.2259  0.7448
18928SOL     OW61630   7.654   5.016   7.216 -0.3116 -0.2786  0.4685
18928SOL    HW161631   7.715   4.983   7.282 -0.3888  1.0742  1.2542
18928SOL    HW261632   7.665   5.111   7.218 -1.7403 -0.0707 -0.0659
18929SOL     OW61633   2.811   6.691   5.178 -0.0672 -0.2258  0.4977
18929SOL    HW161634   2.823   6.714   5.270 -0.3693 -0.8888  0.7119
18929SOL    HW261635   2.783   6.599   5.180  0.5732 -0.4467 -0.2895
18930SOL     OW61636   0.408   3.364   3.213  0.1667 -0.2737 -0.1310
18930SOL    HW161637   0.379   3.310   3.286 -0.8129  0.8555  0.3388
18930SOL    HW261638   0.346   3.346   3.143 -0.4468  0.5812  0.1833
18931SOL     OW61639   2.510   6.734   7.165 -0.2425  0.1514 -0.0171
18931SOL    HW161640   2.556   6.805   7.120  0.5765  0.7841  1.7371
18931SOL    HW261641   2.575   6.664   7.172 -0.4640 -0.0617 -0.0811
18932SOL     OW61642   0.427   7.942   4.392 -0.3318  0.2200 -0.0416
18932SOL    HW161643   0.337   7.972   4.404  0.4066  1.7523  2.7240
18932SOL    HW261644   0.438   7.872   4.456  0.0690 -0.9330 -1.3407
18933SOL     OW61645   2.921   7.222   9.087  0.0999 -0.6188 -0.2794
18933SOL    HW161646   2.900   7.161   9.016  2.0035 -1.2304 -0.3775
18933SOL    HW261647   3.001   7.187   9.126  0.5651  1.1650  0.4715
18934SOL     OW61648   2.569   4.858   7.387  0.1983  0.3323  0.3367
18934SOL    HW161649   2.540   4.819   7.469  0.5396 -2.6792 -0.8504
18934SOL    HW261650   2.495   4.911   7.357 -0.5782  0.0599  1.7283
18935SOL     OW61651   3.369   2.481   4.133 -0.1254 -0.0286  0.9301
18935SOL    HW161652   3.387   2.487   4.039 -0.2374 -0.4876  0.8755
18935SOL    HW261653   3.349   2.570   4.160 -2.4727 -0.2275  0.0526
18936SOL     OW61654   5.286   3.852   6.761  0.2123 -0.0588 -0.0701
18936SOL    HW161655   5.241   3.778   6.720 -1.3575  0.5029  0.5740
18936SOL    HW261656   5.221   3.922   6.763  0.8383  0.5384  1.6264
18937SOL     OW61657   6.720   3.071   7.928 -0.7892  0.4806  0.3596
18937SOL    HW161658   6.666   3.059   7.850 -1.0494 -1.0587  0.7429
18937SOL    HW261659   6.809   3.054   7.898 -0.7704  0.8793  0.1872
18938SOL     OW61660   2.236   6.217   5.749  0.1834  0.5467 -0.4399
18938SOL    HW161661   2.193   6.174   5.823  0.7034 -1.0066 -1.0036
18938SOL    HW261662   2.264   6.302   5.784 -2.7328  1.3907  0.1128
18939SOL     OW61663   6.773   3.475   4.388 -0.1766 -0.1533  0.0596
18939SOL    HW161664   6.682   3.477   4.356 -0.1656  0.2649  0.0492
18939SOL    HW261665   6.779   3.551   4.447 -0.9031 -2.2427  3.0531
18940SOL     OW61666   8.565   6.409   4.632 -0.1910  0.5474  0.3714
18940SOL    HW161667   8.542   6.376   4.545  1.6128  1.1539 -0.3936
18940SOL    HW261668   8.583   6.502   4.618  0.4895  0.5719  1.3095
18941SOL     OW61669   1.540   1.380   5.324  0.7946 -0.1794 -0.0286
18941SOL    HW161670   1.527   1.343   5.411 -2.2244  1.3398  0.3003
18941SOL    HW261671   1.575   1.468   5.341 -0.6133  0.4463 -0.2480
18942SOL     OW61672   2.025   3.744   5.709 -0.8041  0.3413  0.3282
18942SOL    HW161673   1.934   3.716   5.709 -1.1033  1.2707 -0.3531
18942SOL    HW261674   2.046   3.757   5.801 -1.0110 -0.9214  0.5761
18943SOL     OW61675   4.297   7.719   8.345  0.2425 -0.1980 -0.0512
18943SOL    HW161676   4.250   7.713   8.261 -2.0415  3.7062  0.6957
18943SOL    HW261677   4.238   7.679   8.408 -0.0359  0.7185  0.2746
18944SOL     OW61678   6.664   7.711   4.775 -0.1983  0.2320 -0.2380
18944SOL    HW161679   6.637   7.799   4.803 -1.9046  0.3446 -2.0219
18944SOL    HW261680   6.676   7.718   4.681  2.1187 -0.9084 -0.1026
18945SOL     OW61681   1.074   8.533   7.379 -0.0302  0.0194  0.3674
18945SOL    HW161682   1.083   8.562   7.288  1.0116  0.5503  0.6173
18945SOL    HW261683   0.983   8.505   7.387 -0.1558  0.0558 -0.8112
18946SOL     OW61684   1.253   0.320   3.862  0.1348  0.2433  0.0501
18946SOL    HW161685   1.340   0.303   3.825  0.4131 -0.0599  0.8423
18946SOL    HW261686   1.257   0.412   3.889  1.0019 -0.3803  2.1862
18947SOL     OW61687   6.857   2.715   0.745  0.3317  0.8659  0.3151
18947SOL    HW161688   6.853   2.743   0.836  0.8946 -0.9507  0.9502
18947SOL    HW261689   6.797   2.773   0.699 -0.3550  1.5008  1.9359
18948SOL     OW61690   9.427   9.650   2.235  0.4658 -0.1346  0.4077
18948SOL    HW161691   9.394   9.739   2.244  0.4955  0.1938 -2.0588
18948SOL    HW261692   9.512   9.659   2.191  1.0078 -1.3390  1.1193
18949SOL     OW61693   4.729   5.300   1.754  0.0288 -0.4342 -0.2981
18949SOL    HW161694   4.710   5.250   1.674  1.4709 -0.4478 -0.6679
18949SOL    HW261695   4.664   5.370   1.755  1.4112  1.0081 -2.7956
18950SOL     OW61696   8.970   6.068   7.668  0.0199 -0.2944  0.5077
18950SOL    HW161697   8.967   6.006   7.741  0.1885 -0.3523  0.4670
18950SOL    HW261698   8.924   6.024   7.597 -0.5897 -0.0283  0.7345
18951SOL     OW61699   1.193   0.428   0.574  0.3942  0.5974  0.2309
18951SOL    HW161700   1.213   0.504   0.630  1.5890  0.6076 -0.1794
18951SOL    HW261701   1.276   0.409   0.530 -0.0336 -0.6245 -0.0755
18952SOL     OW61702   7.565   1.697   9.193  0.4743  0.1475 -0.7097
18952SOL    HW161703   7.581   1.721   9.285  1.9382  1.1663 -1.1880
18952SOL    HW261704   7.525   1.776   9.155  1.9118  0.5699 -1.4323
18953SOL     OW61705   6.837   0.656   5.206  0.3802  0.3003  0.2451
18953SOL    HW161706   6.836   0.743   5.246 -0.9030  0.0470  0.8335
18953SOL    HW261707   6.922   0.620   5.230  0.0569  0.5552  1.9110
18954SOL     OW61708   3.181   6.538   6.058 -0.0933 -0.5568  0.3225
18954SOL    HW161709   3.242   6.472   6.090  0.6742  0.9977  2.2654
18954SOL    HW261710   3.095   6.509   6.090  0.2922 -0.4577  1.4829
18955SOL     OW61711   2.818   5.879   1.298  0.0152 -0.3388  0.4096
18955SOL    HW161712   2.767   5.930   1.236 -0.4161 -3.0050 -1.6028
18955SOL    HW261713   2.909   5.898   1.276 -0.1211  0.5196  0.5649
18956SOL     OW61714   6.849   9.046   4.269  0.0187 -0.4074 -0.2049
18956SOL    HW161715   6.889   9.086   4.347 -3.4520  0.6727  1.2144
18956SOL    HW261716   6.837   9.119   4.208 -0.4142 -0.5483 -0.2949
18957SOL     OW61717   2.527   3.136   2.796  0.1017 -0.1222  0.3643
18957SOL    HW161718   2.546   3.126   2.703 -0.7334 -1.0851  0.2704
18957SOL    HW261719   2.467   3.211   2.801 -1.6214 -1.3888 -0.1709
18958SOL     OW61720   3.556   8.605   1.602  0.2582 -0.1501  0.1283
18958SOL    HW161721   3.519   8.611   1.690  0.5873 -0.6427  0.3009
18958SOL    HW261722   3.634   8.551   1.612 -1.0262 -2.3333 -0.8880
18959SOL     OW61723   5.002   6.775   1.067 -0.2586  0.4531  0.2779
18959SOL    HW161724   5.001   6.822   1.151 -1.3500 -0.5835  0.8805
18959SOL    HW261725   5.094   6.752   1.053 -0.3684 -2.0900  2.8189
18960SOL     OW61726   1.344   1.097   0.629  0.7416 -0.1679  0.4571
18960SOL    HW161727   1.266   1.126   0.581 -0.1672 -1.5604  1.0431
18960SOL    HW261728   1.320   1.104   0.721  1.7806  0.5958  0.6893
18961SOL     OW61729   2.666   3.799   7.754  0.2820  0.5972 -0.3160
18961SOL    HW161730   2.721   3.797   7.675  1.8884 -1.2078  0.7569
18961SOL    HW261731   2.702   3.872   7.805  0.7652  0.3286 -0.2606
18962SOL     OW61732   8.730   6.478   8.265 -0.2543  0.3192  0.4461
18962SOL    HW161733   8.649   6.450   8.222  0.2517  1.1102 -1.0898
18962SOL    HW261734   8.715   6.569   8.289 -0.5180 -0.1016  1.9869
18963SOL     OW61735   6.515   8.686   6.298  0.2732  0.1068  0.1649
18963SOL    HW161736   6.533   8.623   6.368  0.1032 -1.9693 -1.5735
18963SOL    HW261737   6.432   8.657   6.260 -0.1867  1.8315 -0.2480
18964SOL     OW61738   4.785   1.996   6.553  0.5922 -0.4820  0.4984
18964SOL    HW161739   4.716   2.054   6.520 -0.6247 -1.7444  0.7162
18964SOL    HW261740   4.855   2.002   6.488 -0.7089 -0.9645 -1.0185
18965SOL     OW61741   8.584   6.114   9.626  0.3157  0.0530 -0.4532
18965SOL    HW161742   8.530   6.117   9.547  1.9909  0.3282 -1.6536
18965SOL    HW261743   8.522   6.108   9.698 -1.3197  0.8633 -1.7314
18966SOL     OW61744   1.722   6.809   7.900 -0.0257  0.2125 -0.4301
18966SOL    HW161745   1.686   6.874   7.839  0.4457  1.6787  0.7922
18966SOL    HW261746   1.803   6.779   7.858 -1.2662 -1.1864 -1.9727
18967SOL     OW61747   9.347   5.820   2.637  0.1930 -0.4916  0.2219
18967SOL    HW161748   9.332   5.914   2.628 -1.4541 -0.7839 -0.5200
18967SOL    HW261749   9.436   5.807   2.604  0.7935  0.9083  1.1795
18968SOL     OW61750   4.208   2.524   4.439 -0.1253 -0.1335 -0.0578
18968SOL    HW161751   4.280   2.491   4.385  0.5166  0.0252  0.6870
18968SOL    HW261752   4.131   2.478   4.406  0.0077  0.9277 -1.9933
18969SOL     OW61753   1.183   1.805   8.164  1.2345  0.1164  0.2380
18969SOL    HW161754   1.244   1.732   8.154  0.6013 -0.3096 -0.6434
18969SOL    HW261755   1.133   1.806   8.083  0.7437  1.0938  0.5304
18970SOL     OW61756   1.091   5.759   4.858  0.4235 -0.3312 -0.5107
18970SOL    HW161757   1.030   5.688   4.878 -1.0037  0.5489 -1.6084
18970SOL    HW261758   1.102   5.806   4.941  1.9106 -2.1547  0.4116
18971SOL     OW61759   4.763   0.590   0.238 -0.6719 -0.2765 -0.5611
18971SOL    HW161760   4.729   0.671   0.277 -1.3594 -0.4540 -0.7837
18971SOL    HW261761   4.838   0.619   0.186  1.0503 -0.1754  1.8069
18972SOL     OW61762   0.150   9.479   7.579  0.5453 -0.6876 -0.4882
18972SOL    HW161763   0.080   9.540   7.554 -1.3065 -2.9074 -1.0048
18972SOL    HW261764   0.212   9.483   7.507  0.1119  0.0735 -0.8310
18973SOL     OW61765   0.146   9.456   5.014  0.2552 -0.4663  0.2414
18973SOL    HW161766   0.238   9.467   5.041  0.8093 -0.9587 -1.3154
18973SOL    HW261767   0.148   9.380   4.956 -1.3184 -1.0411  0.9027
18974SOL     OW61768   8.208   1.942   4.480 -0.0809 -0.1303 -0.4843
18974SOL    HW161769   8.265   1.906   4.548  1.2974  0.4619 -1.2859
18974SOL    HW261770   8.243   1.906   4.399 -0.8300  0.2936 -1.0015
18975SOL     OW61771   3.134   5.825   7.020 -0.0714  0.3273 -0.3224
18975SOL    HW161772   3.160   5.753   6.963 -1.7664 -0.6491  0.0728
18975SOL    HW261773   3.200   5.824   7.090 -0.0783 -0.8783 -0.3039
18976SOL     OW61774   4.266   5.444   2.444 -0.1231  0.7749  0.5479
18976SOL    HW161775   4.356   5.456   2.477  0.4810 -1.5380 -0.0929
18976SOL    HW261776   4.276   5.383   2.371 -2.1122  1.4096 -0.3072
18977SOL     OW61777   1.633   1.180   2.021  0.2131 -0.1859 -0.6650
18977SOL    HW161778   1.608   1.114   1.956 -0.3740 -2.9219  2.0619
18977SOL    HW261779   1.555   1.234   2.032 -1.0011 -2.0138  0.2644
18978SOL     OW61780   5.349   3.172   3.357 -0.2763 -0.2443  0.0783
18978SOL    HW161781   5.273   3.134   3.312 -0.2926 -1.9259  1.4310
18978SOL    HW261782   5.353   3.127   3.441  1.6678  0.4856  0.4438
18979SOL     OW61783   9.619   8.368   6.743 -0.0679  0.0723  0.8763
18979SOL    HW161784   9.534   8.357   6.785  0.1786 -0.1291  1.3302
18979SOL    HW261785   9.634   8.284   6.698 -0.9616  0.7572 -0.8184
18980SOL     OW61786   8.553   4.841   3.191 -0.3562  0.2732 -0.2305
18980SOL    HW161787   8.579   4.920   3.144  1.8466 -0.8987 -1.1285
18980SOL    HW261788   8.475   4.810   3.145 -0.0518  0.8410 -1.1537
18981SOL     OW61789   8.520   9.617   1.140 -0.2424 -0.0322  0.6218
18981SOL    HW161790   8.583   9.578   1.201  2.0026 -0.0949 -1.5501
18981SOL    HW261791   8.483   9.542   1.094 -0.0039  0.1169  0.1821
18982SOL     OW61792   0.043   7.319   4.056 -0.0401 -0.1035 -0.3423
18982SOL    HW161793   0.134   7.297   4.077 -0.3138 -0.5043  0.4545
18982SOL    HW261794   0.001   7.235   4.040 -0.0367  0.1395 -1.7623
18983SOL     OW61795   7.402   6.743   6.780  0.5483 -0.6783 -0.0041
18983SOL    HW161796   7.372   6.756   6.690  0.4947  0.8794  0.2146
18983SOL    HW261797   7.378   6.824   6.826  0.1233 -1.6338  1.5450
18984SOL     OW61798   3.531   4.795   9.226 -0.6784  0.4698  0.5959
18984SOL    HW161799   3.463   4.843   9.179 -0.3687  0.6079  0.2809
18984SOL    HW261800   3.484   4.730   9.278 -0.9629 -0.7201 -1.0741
18985SOL     OW61801   6.876   1.681   9.543 -0.2841  0.4389 -0.4382
18985SOL    HW161802   6.966   1.659   9.521  0.0692  0.6661  0.7218
18985SOL    HW261803   6.870   1.667   9.637 -1.6161 -0.0823 -0.5822
18986SOL     OW61804   8.425   9.309   7.535  0.5237  0.4067  0.5451
18986SOL    HW161805   8.458   9.279   7.450  1.6798  1.7583  0.4698
18986SOL    HW261806   8.330   9.303   7.528  0.5627  1.2203 -1.1515
18987SOL     OW61807   7.810   7.927   4.570 -0.3911 -0.1550 -0.2872
18987SOL    HW161808   7.833   7.985   4.498 -0.9738 -1.0284 -1.1886
18987SOL    HW261809   7.890   7.878   4.589 -0.1398  0.3267 -0.0892
18988SOL     OW61810   7.377   1.366   8.729 -0.0300 -0.0141 -0.6719
18988SOL    HW161811   7.450   1.349   8.788  0.3752  2.9333 -0.1629
18988SOL    HW261812   7.410   1.342   8.643  1.6282  1.2344 -0.4467
18989SOL     OW61813   4.175   2.552   4.886  0.1182 -0.4277  0.0100
18989SOL    HW161814   4.198   2.618   4.952 -1.0438  0.0669 -0.0490
18989SOL    HW261815   4.201   2.592   4.803 -0.8187  0.0882 -0.0488
18990SOL     OW61816   6.850   5.311   2.505  0.2706  0.5921 -0.9310
18990SOL    HW161817   6.875   5.396   2.468 -0.3157  1.1028 -0.1759
18990SOL    HW261818   6.813   5.332   2.590  1.8433 -0.5837  0.0990
18991SOL     OW61819   6.600   9.401   1.045  0.3685 -0.0917 -0.0567
18991SOL    HW161820   6.572   9.366   0.961  0.3984 -1.4909  0.4994
18991SOL    HW261821   6.532   9.465   1.068 -0.1333 -0.3846 -0.6964
18992SOL     OW61822   0.964   3.200   5.916 -0.3921  1.1308 -0.5809
18992SOL    HW161823   0.965   3.260   5.991 -0.5377 -0.0549  0.4071
18992SOL    HW261824   0.874   3.166   5.915 -0.3374  1.0017 -1.1745
18993SOL     OW61825   5.143   3.488   4.302  0.3527 -0.0672  0.5294
18993SOL    HW161826   5.116   3.405   4.341 -2.4078  1.4839  2.2948
18993SOL    HW261827   5.092   3.494   4.221 -1.1547  0.8092  1.5083
18994SOL     OW61828   4.401   1.561   4.044 -0.3624  0.0916  0.2601
18994SOL    HW161829   4.347   1.552   4.122  0.0149  1.4310  0.6975
18994SOL    HW261830   4.395   1.476   4.001 -0.8138 -0.5684  1.5852
18995SOL     OW61831   6.965   8.931   4.021 -0.5249 -0.1503 -0.1634
18995SOL    HW161832   6.929   8.942   4.109  0.5357  0.4669  0.2055
18995SOL    HW261833   6.909   8.985   3.966 -1.2586 -0.6196  0.1074
18996SOL     OW61834   4.009   3.449   7.771 -0.2423  0.2141  0.0242
18996SOL    HW161835   4.014   3.426   7.679 -1.1270 -0.4293  0.1316
18996SOL    HW261836   4.101   3.455   7.799  0.0278 -1.0998 -0.5270
18997SOL     OW61837   4.084   3.123   4.333 -0.2591 -0.9858 -0.3178
18997SOL    HW161838   4.029   3.163   4.400 -1.1117 -1.1277 -0.9173
18997SOL    HW261839   4.147   3.191   4.309 -1.0950 -0.3047 -0.6501
18998SOL     OW61840   7.445   1.534   0.085 -0.3352  1.2208 -0.1306
18998SOL    HW161841   7.535   1.526   0.053 -0.4035 -0.5348 -0.0126
18998SOL    HW261842   7.401   1.456   0.052 -1.4549  1.3564  0.9406
18999SOL     OW61843   4.961   1.574   7.626 -0.5441  0.1203  0.3235
18999SOL    HW161844   5.012   1.598   7.703  0.8402 -2.0302  0.1678
18999SOL    HW261845   4.992   1.486   7.603 -0.1896  1.0189 -3.2494
19000SOL     OW61846   0.543   5.582   3.400 -0.1235 -0.5132 -0.1147
19000SOL    HW161847   0.595   5.547   3.328 -0.7064 -1.4237 -0.1057
19000SOL    HW261848   0.494   5.655   3.362  0.8176  0.0763 -0.2273
19001SOL     OW61849   3.441   3.708   6.373  0.3552  0.1079  0.1447
19001SOL    HW161850   3.472   3.721   6.284  1.2719  0.8181  0.5522
19001SOL    HW261851   3.481   3.625   6.401  0.7326  0.2965  0.1722
19002SOL     OW61852   4.874   9.215   1.149 -0.4052 -0.0499 -0.3053
19002SOL    HW161853   4.801   9.179   1.099  0.5700  0.2441 -1.9826
19002SOL    HW261854   4.936   9.142   1.158 -0.6459 -0.1532  0.6643
19003SOL     OW61855   6.282   5.878   0.940  0.3400 -0.1755  0.3191
19003SOL    HW161856   6.249   5.828   0.865 -1.5888 -0.5506  1.3367
19003SOL    HW261857   6.291   5.968   0.907  0.7835 -0.5838 -0.6979
19004SOL     OW61858   3.687   3.056   3.386 -0.2386 -0.7390 -0.7420
19004SOL    HW161859   3.711   3.089   3.472 -1.0581  0.1074 -0.8093
19004SOL    HW261860   3.670   2.963   3.399  1.0981 -0.9420 -0.3138
19005SOL     OW61861   8.006   7.374   6.877  0.0753 -0.2467  0.1562
19005SOL    HW161862   8.061   7.313   6.927 -2.5462 -2.9536  0.0728
19005SOL    HW261863   7.921   7.369   6.920 -0.5687  2.6830 -0.5481
19006SOL     OW61864   5.476   4.835   5.729 -0.6765  0.3658  0.0668
19006SOL    HW161865   5.500   4.927   5.744 -1.5689  0.6664 -0.2811
19006SOL    HW261866   5.381   4.835   5.728 -0.7875 -0.9740  2.5218
19007SOL     OW61867   5.659   1.550   2.631  0.6962 -0.0425 -0.2871
19007SOL    HW161868   5.632   1.612   2.699  0.4810 -0.2216 -0.2101
19007SOL    HW261869   5.684   1.606   2.557  1.6301  0.1889  0.1853
19008SOL     OW61870   8.202   4.024   6.413  0.0569  0.2492  0.2788
19008SOL    HW161871   8.240   4.109   6.390  2.2116 -1.2287 -2.3159
19008SOL    HW261872   8.273   3.976   6.455 -0.5124 -0.8699  0.0249
19009SOL     OW61873   2.692   4.153   8.119 -0.5664 -0.0746 -0.0650
19009SOL    HW161874   2.761   4.202   8.164 -0.4293  0.7961 -1.1706
19009SOL    HW261875   2.613   4.170   8.170 -0.0587 -0.7946  1.0130
19010SOL     OW61876   6.551   4.587   3.705 -0.4094  0.4144 -0.4809
19010SOL    HW161877   6.568   4.615   3.615 -2.2178  0.1709 -0.9428
19010SOL    HW261878   6.529   4.494   3.697 -0.1938  0.2958  0.2727
19011SOL     OW61879   8.431   7.260   2.449  0.1433 -0.0179 -0.7903
19011SOL    HW161880   8.455   7.278   2.540 -0.2487 -1.8303 -0.2914
19011SOL    HW261881   8.338   7.282   2.444 -0.2751 -1.5362 -0.2475
19012SOL     OW61882   0.404   8.768   9.114  0.5983  0.4142 -0.1503
19012SOL    HW161883   0.342   8.836   9.139 -0.4828  0.2947 -2.2909
19012SOL    HW261884   0.485   8.816   9.097  0.0320  1.1066 -0.9910
19013SOL     OW61885   1.949   7.438   7.073 -0.4665  0.4052  0.2428
19013SOL    HW161886   2.033   7.392   7.083  0.7996  2.6542  0.6611
19013SOL    HW261887   1.920   7.415   6.985  0.6560 -0.3404  0.0424
19014SOL     OW61888   8.651   3.583   7.111 -0.1209 -0.4467 -0.1958
19014SOL    HW161889   8.582   3.523   7.082 -1.7640  0.7004  1.1134
19014SOL    HW261890   8.674   3.633   7.032 -0.6692 -0.9564 -0.6888
19015SOL     OW61891   2.119   3.311   0.890  0.2014  0.1256  0.2491
19015SOL    HW161892   2.165   3.270   0.816 -0.7341 -0.0671 -0.2315
19015SOL    HW261893   2.153   3.401   0.892  1.7834 -0.4537  0.9090
19016SOL     OW61894   5.129   7.113   7.736 -0.3834 -0.4802 -0.5582
19016SOL    HW161895   5.132   7.017   7.735  0.3743 -0.4607 -0.3127
19016SOL    HW261896   5.035   7.133   7.738 -0.5965 -1.2713  3.0238
19017SOL     OW61897   8.141   7.714   6.611  0.2220 -0.1140 -0.1408
19017SOL    HW161898   8.110   7.789   6.561 -0.6858  0.2149  0.8829
19017SOL    HW261899   8.062   7.668   6.639  0.6628  0.0296  1.4488
19018SOL     OW61900   9.442   6.133   5.072  0.1392  0.2810  0.0637
19018SOL    HW161901   9.475   6.197   5.010  0.9249 -0.0273  0.1437
19018SOL    HW261902   9.412   6.060   5.018  1.4816 -0.2928  0.0387
19019SOL     OW61903   9.352   0.997   0.584 -0.1950 -0.1462  0.2402
19019SOL    HW161904   9.291   1.070   0.585  0.8396  0.8095  3.0668
19019SOL    HW261905   9.308   0.929   0.533 -1.1860  2.3573 -2.5013
19020SOL     OW61906   0.720   0.660   0.695  0.6587  0.3350 -0.2806
19020SOL    HW161907   0.777   0.711   0.639  1.5826  0.7087  0.9622
19020SOL    HW261908   0.641   0.714   0.705  0.8027  0.6045 -0.5846
19021SOL     OW61909   1.401   1.515   7.850  0.5879 -0.0967  0.2726
19021SOL    HW161910   1.356   1.584   7.801 -0.7331  0.0189  1.5789
19021SOL    HW261911   1.424   1.556   7.933  0.8046 -0.9164  0.6264
19022SOL     OW61912   4.100   7.881   7.367 -0.0372 -0.4513  0.2404
19022SOL    HW161913   4.051   7.819   7.421  1.4960 -1.5820  0.4289
19022SOL    HW261914   4.068   7.866   7.278 -0.4195 -0.7880  0.4288
19023SOL     OW61915   2.397   6.102   2.935 -0.4193 -1.0113 -0.2244
19023SOL    HW161916   2.327   6.095   3.001 -0.3193 -1.2049 -0.1387
19023SOL    HW261917   2.477   6.114   2.985 -0.2804 -1.6086 -0.2875
19024SOL     OW61918   4.392   5.822   6.131  0.1349  0.5496 -0.6502
19024SOL    HW161919   4.307   5.863   6.142  0.7880  1.3519  2.7878
19024SOL    HW261920   4.450   5.892   6.102 -0.2087  0.1346 -2.4317
19025SOL     OW61921   5.504   2.830   6.757  0.0939  0.6086 -0.2254
19025SOL    HW161922   5.503   2.860   6.848  0.3552 -1.2204  0.4231
19025SOL    HW261923   5.597   2.823   6.734  0.1096 -1.4665  0.3013
19026SOL     OW61924   3.728   0.875   4.424 -0.1041 -0.3671  0.3122
19026SOL    HW161925   3.675   0.797   4.440 -0.3729 -0.1976  0.2610
19026SOL    HW261926   3.796   0.873   4.492  1.1719 -1.7599 -0.9451
19027SOL     OW61927   7.309   7.596   2.319 -0.1145 -0.3134  0.1427
19027SOL    HW161928   7.390   7.645   2.305 -0.2166 -0.5526 -1.5412
19027SOL    HW261929   7.261   7.606   2.237 -2.2922  0.6959  1.4856
19028SOL     OW61930   0.019   7.162   3.743 -0.3296 -0.3418 -0.5443
19028SOL    HW161931   0.025   7.253   3.770 -1.1565 -0.7958  1.2926
19028SOL    HW261932   0.109   7.130   3.744  0.1938  0.8425 -2.8601
19029SOL     OW61933   8.691   2.769   2.676 -0.1405 -0.1355  0.6511
19029SOL    HW161934   8.770   2.718   2.688  1.2490  1.5957 -0.5642
19029SOL    HW261935   8.656   2.741   2.591  0.7031  0.9359 -0.0863
19030SOL     OW61936   5.203   3.118   1.748  0.0416 -0.2973 -0.1893
19030SOL    HW161937   5.142   3.048   1.723 -0.4677 -0.4843  1.4862
19030SOL    HW261938   5.195   3.182   1.677  0.7765 -2.0549 -1.9483
19031SOL     OW61939   0.519   6.130   8.780  0.6413 -0.0124  0.7529
19031SOL    HW161940   0.500   6.112   8.688  3.0711  0.6304  0.0413
19031SOL    HW261941   0.453   6.081   8.828 -0.5903 -0.5139 -1.3235
19032SOL     OW61942   5.607   4.158   1.023  0.0775  0.3515 -0.4829
19032SOL    HW161943   5.617   4.182   0.931 -2.7898  0.0747 -0.9661
19032SOL    HW261944   5.577   4.067   1.021 -2.9937  1.2230  0.4528
19033SOL     OW61945   3.804   0.965   6.333 -0.2848 -0.4958 -0.4456
19033SOL    HW161946   3.804   0.874   6.365  1.5133 -1.3287 -2.5472
19033SOL    HW261947   3.874   1.007   6.383 -0.1902 -0.6547 -0.4430
19034SOL     OW61948   0.415   4.922   2.329  0.4825 -0.3017  0.2026
19034SOL    HW161949   0.503   4.956   2.312  0.7458 -0.8142  0.5093
19034SOL    HW261950   0.403   4.933   2.423 -0.7041  1.8972 -0.1469
19035SOL     OW61951   3.583   5.091   0.918  0.0938 -0.7123 -0.5176
19035SOL    HW161952   3.532   5.059   0.992 -1.8526  2.6885 -0.2089
19035SOL    HW261953   3.659   5.133   0.957 -0.1605 -0.2270 -0.5409
19036SOL     OW61954   7.369   1.780   3.834  0.4768 -0.2886 -0.3953
19036SOL    HW161955   7.340   1.871   3.835 -1.4838 -0.8323  1.1101
19036SOL    HW261956   7.377   1.757   3.926  2.6756 -1.1839 -0.7573
19037SOL     OW61957   8.453   9.631   9.408 -0.2820 -0.1204 -0.0612
19037SOL    HW161958   8.377   9.574   9.418  0.6696 -1.7178 -1.4607
19037SOL    HW261959   8.482   9.618   9.318  0.2762  2.2642 -0.3017
19038SOL     OW61960   8.008   8.007   8.431  0.3063  0.3997 -0.8826
19038SOL    HW161961   7.988   7.914   8.434 -0.8570  0.6222  2.1158
19038SOL    HW261962   8.028   8.025   8.339 -1.4165 -2.3616 -1.9108
19039SOL     OW61963   2.985   3.322   4.974 -0.0157  0.0030 -0.3000
19039SOL    HW161964   2.998   3.325   5.068  0.2373  0.4794 -0.3437
19039SOL    HW261965   2.933   3.243   4.959 -0.5013  0.2015  0.2893
19040SOL     OW61966   8.039   6.142   9.086 -0.0583  0.1319 -0.1242
19040SOL    HW161967   8.044   6.048   9.099  0.5135  0.0939 -0.5810
19040SOL    HW261968   8.031   6.178   9.175  3.3198 -0.1393  0.4236
19041SOL     OW61969   8.226   3.617   1.023  0.0689 -0.0935 -0.3355
19041SOL    HW161970   8.178   3.611   1.105  0.9427 -1.6085  0.0960
19041SOL    HW261971   8.305   3.666   1.045  1.3166 -2.2399  0.2910
19042SOL     OW61972   1.487   9.343   3.323 -0.0689 -0.0666 -0.0758
19042SOL    HW161973   1.498   9.431   3.360 -0.3968 -0.6840  1.5978
19042SOL    HW261974   1.554   9.336   3.255  0.9256  0.9633  0.7666
19043SOL     OW61975   5.030   9.373   3.100 -0.1169 -0.7307 -0.4435
19043SOL    HW161976   5.103   9.432   3.116  0.2968 -1.3948  0.1836
19043SOL    HW261977   4.958   9.430   3.072 -0.2067  0.2632  1.6376
19044SOL     OW61978   7.830   0.935   0.593  0.1385  0.0945 -0.3970
19044SOL    HW161979   7.809   1.012   0.539  0.7225  0.8977  0.4959
19044SOL    HW261980   7.870   0.874   0.532  0.4049  0.8163 -0.9669
19045SOL     OW61981   1.679   7.642   2.975  0.3231  0.1032 -0.1161
19045SOL    HW161982   1.602   7.698   2.964  1.5736  2.5377  2.2259
19045SOL    HW261983   1.667   7.573   2.910 -3.1362  1.0742 -0.7758
19046SOL     OW61984   3.203   9.440   7.652  0.3402 -0.4270 -0.1487
19046SOL    HW161985   3.288   9.484   7.651 -0.5183  1.3486  0.8699
19046SOL    HW261986   3.156   9.479   7.726 -1.3513 -1.4208 -0.6371
19047SOL     OW61987   6.729   0.193   6.432 -0.4029  0.2940 -1.1424
19047SOL    HW161988   6.655   0.215   6.489  1.0165  2.2072  0.0708
19047SOL    HW261989   6.804   0.237   6.472  1.4616 -1.7339 -2.2199
19048SOL     OW61990   6.570   0.822   5.922  0.3421 -0.2421  0.0077
19048SOL    HW161991   6.570   0.747   5.982 -0.0731 -0.4067 -0.1887
19048SOL    HW261992   6.483   0.820   5.882  0.8997 -0.6205 -1.2113
19049SOL     OW61993   8.324   3.234   6.581  0.0336  0.2464 -0.5831
19049SOL    HW161994   8.403   3.205   6.626 -0.1318  1.4265  0.5694
19049SOL    HW261995   8.349   3.317   6.540 -0.7365  1.0021  0.3883
19050SOL     OW61996   3.269   9.050   5.867  1.0905  0.1992 -0.1568
19050SOL    HW161997   3.248   9.012   5.953  1.4401 -0.3674 -0.3185
19050SOL    HW261998   3.334   9.117   5.885  0.6494  0.5685  0.1018
19051SOL     OW61999   6.450   8.259   0.145  0.4961 -0.9750 -0.1855
19051SOL    HW162000   6.485   8.251   0.057  0.6166 -1.3396 -0.1062
19051SOL    HW262001   6.392   8.183   0.155 -0.6067 -0.1838 -0.4461
19052SOL     OW62002   5.782   5.483   3.844 -0.0975 -0.3009 -0.6407
19052SOL    HW162003   5.724   5.407   3.835  1.5373 -1.7964  0.6288
19052SOL    HW262004   5.736   5.542   3.904 -0.4089 -1.3939  0.2387
19053SOL     OW62005   3.476   3.137   4.787 -0.2645  0.3226 -0.0308
19053SOL    HW162006   3.483   3.195   4.863 -0.5514 -0.1611  0.3766
19053SOL    HW262007   3.499   3.192   4.712 -0.6500  0.9925  0.3286
19054SOL     OW62008   0.759   0.587   1.100  0.4269 -0.3924  0.8924
19054SOL    HW162009   0.753   0.537   1.020 -2.6892 -0.3811  0.9819
19054SOL    HW262010   0.837   0.642   1.089 -1.1226  1.3817 -3.2330
19055SOL     OW62011   9.559   5.881   8.680 -0.6074 -0.0651 -0.7490
19055SOL    HW162012   9.578   5.913   8.592  1.4526  0.3696 -0.2035
19055SOL    HW262013   9.520   5.956   8.725 -0.8189 -0.0084 -1.0269
19056SOL     OW62014   7.818   8.988   8.958 -0.3762  0.4299  0.4392
19056SOL    HW162015   7.787   9.009   9.046 -1.8577  0.3399 -0.0454
19056SOL    HW262016   7.840   9.073   8.920  0.3238  0.4645  0.9004
19057SOL     OW62017   6.558   7.846   7.499  0.5224 -0.2680 -0.7688
19057SOL    HW162018   6.469   7.816   7.517 -0.5122  1.9811 -1.7438
19057SOL    HW262019   6.581   7.897   7.576 -0.2978  1.7062 -1.7688
19058SOL     OW62020   3.113   1.233   7.926  0.2589 -0.1617 -0.4616
19058SOL    HW162021   3.051   1.268   7.863  1.6541  1.2768 -1.0979
19058SOL    HW262022   3.064   1.230   8.009 -1.6205 -2.1520 -1.5236
19059SOL     OW62023   8.634   6.264   9.090  0.4199  0.0664  0.3084
19059SOL    HW162024   8.603   6.341   9.042  0.0424 -1.4887 -2.1214
19059SOL    HW262025   8.555   6.222   9.122  0.5546  0.0858  0.6705
19060SOL     OW62026   1.049   8.937   6.226  0.0275  0.1978 -0.2092
19060SOL    HW162027   1.089   8.867   6.175 -0.0564  0.8504 -1.1974
19060SOL    HW262028   1.004   8.992   6.161  0.6042  1.5086  0.4639
19061SOL     OW62029   9.062   9.043   0.889  0.0100 -0.2707  0.1423
19061SOL    HW162030   8.990   9.106   0.894 -0.1886  0.3967 -5.4311
19061SOL    HW262031   9.141   9.095   0.903 -0.3377  0.4394 -0.4437
19062SOL     OW62032   8.001   1.843   9.754 -0.0863 -0.4754 -0.5535
19062SOL    HW162033   8.018   1.934   9.776 -1.5186 -0.6105  1.3438
19062SOL    HW262034   7.916   1.824   9.794 -0.7802 -2.0885 -2.5873
19063SOL     OW62035   0.516   0.099   2.081 -0.3427 -0.2809  0.0219
19063SOL    HW162036   0.504   0.118   1.988 -1.7516  0.3018  0.3052
19063SOL    HW262037   0.588   0.035   2.083 -0.7203 -0.7922 -1.5055
19064SOL     OW62038   4.808   1.508   9.154 -0.2442  0.3773  0.4340
19064SOL    HW162039   4.791   1.437   9.092  2.5239 -0.9678  1.0815
19064SOL    HW262040   4.898   1.535   9.137  0.3699  0.4825  3.2734
19065SOL     OW62041   3.250   4.238   7.009  0.1798 -0.4409 -0.1629
19065SOL    HW162042   3.247   4.248   6.913 -0.1094  0.3150 -0.0802
19065SOL    HW262043   3.344   4.238   7.029  0.2448 -0.6771 -0.4537
19066SOL     OW62044   0.610   5.195   3.771  0.7676  0.2897  0.2852
19066SOL    HW162045   0.602   5.231   3.860 -1.0766 -0.7274  0.5948
19066SOL    HW262046   0.576   5.264   3.714 -1.6764 -0.3936  0.7737
19067SOL     OW62047   7.043   3.306   1.284 -0.3493 -0.3511  0.0770
19067SOL    HW162048   7.051   3.365   1.210 -1.2740  1.5999  1.4349
19067SOL    HW262049   7.124   3.318   1.334 -0.8733  0.4216  0.7713
19068SOL     OW62050   9.073   0.718   4.508 -0.2840 -0.2819 -0.2037
19068SOL    HW162051   8.995   0.754   4.466  0.6044 -1.0572 -2.6805
19068SOL    HW262052   9.144   0.736   4.447  0.6044 -4.2679 -0.6215
19069SOL     OW62053   6.258   0.788   4.627 -0.2771  1.0330 -0.8681
19069SOL    HW162054   6.314   0.845   4.680 -0.8224  2.1035 -1.3864
19069SOL    HW262055   6.316   0.752   4.561 -0.0032  1.3758 -0.8222
19070SOL     OW62056   2.228   8.174   7.539  0.4976 -0.0296 -0.4600
19070SOL    HW162057   2.143   8.182   7.496  0.6526  0.8872 -0.6057
19070SOL    HW262058   2.209   8.191   7.632  0.3556 -0.8551 -0.3337
19071SOL     OW62059   7.599   1.684   7.214 -0.5311  0.0847 -0.7315
19071SOL    HW162060   7.519   1.655   7.258 -0.1554 -0.5990 -0.5017
19071SOL    HW262061   7.567   1.738   7.141 -1.1704  0.6161 -0.0697
19072SOL     OW62062   4.846   4.966   6.604 -0.1927 -0.0006  0.4586
19072SOL    HW162063   4.790   4.969   6.681  1.7512 -1.5531  2.0638
19072SOL    HW262064   4.935   4.974   6.639  0.8328 -1.8034 -1.4785
19073SOL     OW62065   1.142   9.032   7.054 -0.1554 -0.5141 -0.1856
19073SOL    HW162066   1.169   9.122   7.076 -1.1282  0.2711 -2.0054
19073SOL    HW262067   1.220   8.979   7.070  0.3066  0.5416  1.3909
19074SOL     OW62068   5.061   0.590   0.680  0.6045  0.3176  0.2529
19074SOL    HW162069   5.086   0.682   0.691 -1.4461  1.2102 -1.8610
19074SOL    HW262070   5.038   0.561   0.769  3.2383  1.1461  1.3017
19075SOL     OW62071   5.094   6.922   5.718  0.5350 -0.3399 -0.1856
19075SOL    HW162072   5.178   6.883   5.743 -0.3215 -1.7967  0.5528
19075SOL    HW262073   5.075   6.886   5.632  1.2316  0.9653 -0.9092
19076SOL     OW62074   8.514   1.940   3.520 -0.2176  0.6362 -0.4504
19076SOL    HW162075   8.567   1.913   3.594 -1.0163  2.1266  0.6987
19076SOL    HW262076   8.436   1.980   3.559 -1.8316 -0.7333 -2.0704
19077SOL     OW62077   8.244   8.686   0.999 -0.6724 -0.1691  0.5452
19077SOL    HW162078   8.236   8.693   0.903  0.3311  0.5848  0.5010
19077SOL    HW262079   8.228   8.774   1.031  0.3925 -0.0988  0.9472
19078SOL     OW62080   4.526   0.087   4.031  0.2242  0.1130  0.3818
19078SOL    HW162081   4.599   0.110   4.088  1.5707  0.3008 -1.3523
19078SOL    HW262082   4.555   0.010   3.983 -1.8624 -1.5969  1.6390
19079SOL     OW62083   3.833   4.942   0.548 -0.4058  0.3782  0.0041
19079SOL    HW162084   3.902   4.884   0.515 -0.5952 -0.3106  0.7722
19079SOL    HW262085   3.877   5.024   0.567 -0.2049  0.6253 -1.4722
19080SOL     OW62086   4.979   6.648   3.586 -0.0247 -0.1482 -0.1924
19080SOL    HW162087   4.921   6.690   3.649 -0.6689 -0.9324 -0.2528
19080SOL    HW262088   4.996   6.716   3.520 -1.9003 -0.2578 -0.8558
19081SOL     OW62089   8.711   8.357   9.296  0.4354  0.2015  0.2072
19081SOL    HW162090   8.642   8.341   9.360  0.2144 -2.0115 -0.4902
19081SOL    HW262091   8.789   8.376   9.348  0.4798 -2.4097  1.2802
19082SOL     OW62092   9.589   5.857   7.277  0.7063  0.6679  0.6533
19082SOL    HW162093   9.520   5.918   7.302  1.6512  1.9861  0.1332
19082SOL    HW262094   9.627   5.828   7.360 -0.0422  0.4269  0.9178
19083SOL     OW62095   3.484   3.683   4.740 -0.6907 -0.1690  0.3343
19083SOL    HW162096   3.423   3.755   4.757 -0.2188  0.3417 -0.0820
19083SOL    HW262097   3.562   3.726   4.705  0.6130 -0.6106  2.5298
19084SOL     OW62098   9.398   5.103   8.519 -0.1755  0.3468  0.1655
19084SOL    HW162099   9.493   5.115   8.521  0.0186 -0.9318  2.5198
19084SOL    HW262100   9.385   5.021   8.471 -0.1796  0.9155 -0.8305
19085SOL     OW62101   7.037   6.931   2.730 -0.3666 -0.2227 -0.0040
19085SOL    HW162102   7.035   6.934   2.825 -0.8286  2.0134 -0.0425
19085SOL    HW262103   6.948   6.956   2.703 -0.3454 -1.1529 -1.0437
19086SOL     OW62104   7.716   0.707   5.327  0.5468 -0.1283  0.5701
19086SOL    HW162105   7.702   0.792   5.285 -0.4452  0.4918  2.0341
19086SOL    HW262106   7.811   0.697   5.332  0.6786  0.2481 -0.8321
19087SOL     OW62107   3.883   5.717   3.938 -0.8677  0.2295  0.5044
19087SOL    HW162108   3.952   5.766   3.982 -1.3367  0.8037  0.6133
19087SOL    HW262109   3.928   5.670   3.868 -0.2800  0.1292  0.9402
19088SOL     OW62110   4.691   7.814   1.911  0.6376  0.1157  0.0744
19088SOL    HW162111   4.727   7.786   1.827  0.9725 -2.7960  1.0558
19088SOL    HW262112   4.609   7.765   1.920 -0.6410  2.1936  0.4714
19089SOL     OW62113   9.226   7.419   5.904  0.1506 -0.4521 -0.5979
19089SOL    HW162114   9.224   7.380   5.992  2.2990  0.1661 -0.2226
19089SOL    HW262115   9.142   7.465   5.897 -1.0628 -2.4162  0.1847
19090SOL     OW62116   9.522   5.553   7.790  0.7405  0.1827  0.2689
19090SOL    HW162117   9.610   5.567   7.755  0.6237  0.6860  0.1711
19090SOL    HW262118   9.489   5.640   7.811 -0.2133  0.1261 -0.8675
19091SOL     OW62119   2.304   2.180   3.495  0.2547  0.2480  0.1250
19091SOL    HW162120   2.212   2.160   3.515  0.2211 -0.4406 -0.6762
19091SOL    HW262121   2.352   2.101   3.519  0.3768 -0.1126 -1.2272
19092SOL     OW62122   6.671   2.891   0.637  0.4399  0.0099  0.5842
19092SOL    HW162123   6.616   2.906   0.714  1.0479 -1.0944  1.2573
19092SOL    HW262124   6.614   2.845   0.576 -0.2412  1.4436  0.0708
19093SOL     OW62125   0.976   6.781   9.639  0.4427 -0.0461 -0.5177
19093SOL    HW162126   1.043   6.847   9.624  0.9356 -0.0597  1.3202
19093SOL    HW262127   1.024   6.705   9.673 -0.5594  0.4323  2.2288
19094SOL     OW62128   6.707   0.280   6.892  0.2694  0.2183  0.3959
19094SOL    HW162129   6.631   0.287   6.949 -0.4978  0.6061 -0.6321
19094SOL    HW262130   6.768   0.223   6.939 -0.6444 -0.0718  1.2581
19095SOL     OW62131   3.306   8.034   9.196  0.6062  0.1675 -0.3638
19095SOL    HW162132   3.211   8.038   9.201  0.6224  2.6735 -0.6924
19095SOL    HW262133   3.330   7.959   9.251 -1.5100 -0.4537 -0.1759
19096SOL     OW62134   6.637   0.173   5.778 -0.1822  0.2091  0.3016
19096SOL    HW162135   6.703   0.206   5.718  0.5714  0.9007  1.4583
19096SOL    HW262136   6.684   0.110   5.833 -0.7685 -0.1546  0.3919
19097SOL     OW62137   4.041   2.119   1.094  0.4703  0.3040  0.0500
19097SOL    HW162138   4.016   2.198   1.047  0.8899  0.1836 -0.3783
19097SOL    HW262139   4.026   2.048   1.032  0.5109  0.0901  0.2818
19098SOL     OW62140   1.620   6.235   4.862  0.4514  0.1022  0.1562
19098SOL    HW162141   1.579   6.277   4.938  0.4586  1.6635 -0.6522
19098SOL    HW262142   1.711   6.264   4.865  0.1527  1.2748 -1.1395
19099SOL     OW62143   8.578   4.234   5.721 -1.0347  0.1468 -0.0751
19099SOL    HW162144   8.527   4.213   5.799 -1.7563 -1.1921 -0.8741
19099SOL    HW262145   8.644   4.164   5.716 -0.2398  0.8834 -0.0201
19100SOL     OW62146   1.421   3.902   6.326 -0.0389  0.2136  0.1389
19100SOL    HW162147   1.393   3.908   6.235  0.0604  2.0288  0.1870
19100SOL    HW262148   1.415   3.809   6.347 -0.4360 -0.1905 -1.5931
19101SOL     OW62149   3.898   1.379   1.734  0.0184  0.5973 -0.2062
19101SOL    HW162150   3.942   1.456   1.772 -0.3584  0.6898  0.0424
19101SOL    HW262151   3.932   1.374   1.645  0.9076  0.3841  0.1335
19102SOL     OW62152   9.044   3.888   0.249 -0.7245  0.0880  0.6986
19102SOL    HW162153   8.960   3.932   0.263 -1.1456 -1.2237  2.5930
19102SOL    HW262154   9.094   3.907   0.328  0.2504 -0.2729  0.1775
19103SOL     OW62155   8.766   8.114   9.640 -0.2656 -0.0235  0.4821
19103SOL    HW162156   8.720   8.195   9.660 -1.2679 -0.7360  1.1958
19103SOL    HW262157   8.697   8.056   9.606  0.4287 -0.5735 -0.0152
19104SOL     OW62158   3.634   9.142   0.382 -0.5102 -0.6197 -0.4572
19104SOL    HW162159   3.687   9.080   0.433  1.1431  0.1381 -1.1758
19104SOL    HW262160   3.660   9.228   0.414  1.0261 -0.0875 -2.8834
19105SOL     OW62161   9.736   1.273   8.072 -0.2482  0.1961 -0.6142
19105SOL    HW162162   9.809   1.293   8.014 -0.1670  0.6498 -0.3567
19105SOL    HW262163   9.732   1.177   8.074 -0.3758  0.1708 -1.5254
19106SOL     OW62164   4.745   2.540   8.493 -0.2788  0.3853  0.4626
19106SOL    HW162165   4.661   2.504   8.466 -0.3011  0.9248 -0.2072
19106SOL    HW262166   4.778   2.478   8.558 -0.2398 -0.9115 -0.7582
19107SOL     OW62167   9.092   7.745   5.814  0.4702 -0.2084  0.0136
19107SOL    HW162168   9.027   7.816   5.815  1.1968  0.4885 -0.8806
19107SOL    HW262169   9.079   7.701   5.898 -0.4627  0.5493  0.2970
19108SOL     OW62170   2.807   6.301   9.183  0.1211  0.4382  0.0079
19108SOL    HW162171   2.796   6.372   9.120  1.0187  1.7431  1.2474
19108SOL    HW262172   2.809   6.345   9.268 -0.6010 -1.2214  0.9295
19109SOL     OW62173   8.640   8.237   1.371 -0.0625  0.1279 -0.1764
19109SOL    HW162174   8.686   8.239   1.454 -0.0831  2.2468 -0.1485
19109SOL    HW262175   8.686   8.171   1.319  1.5043  0.5059  0.6746
19110SOL     OW62176   6.442   0.293   5.238  0.2032  0.3764 -0.4055
19110SOL    HW162177   6.404   0.245   5.312  2.4978 -1.8162 -0.4849
19110SOL    HW262178   6.500   0.358   5.278  0.5259 -0.0029 -0.2433
19111SOL     OW62179   8.584   2.782   7.751  0.6470 -0.4834 -0.2975
19111SOL    HW162180   8.604   2.814   7.839 -0.6031  1.5951 -0.6936
19111SOL    HW262181   8.588   2.687   7.758  1.5837 -0.3388  1.7460
19112SOL     OW62182   2.178   1.662   9.729 -0.0412  0.5038  0.5956
19112SOL    HW162183   2.111   1.648   9.796 -0.4396  0.5417  0.2127
19112SOL    HW262184   2.225   1.579   9.724 -1.6733 -0.4075 -0.8862
19113SOL     OW62185   7.051   1.314   4.947  0.3855  0.0046  0.3591
19113SOL    HW162186   6.968   1.310   4.996  0.6586 -1.4962  0.7738
19113SOL    HW262187   7.079   1.405   4.953 -1.1287  0.4919  0.3910
19114SOL     OW62188   7.425   6.558   7.962 -0.1634 -0.0155  0.1904
19114SOL    HW162189   7.356   6.529   7.903  1.2648  0.5312 -1.8294
19114SOL    HW262190   7.378   6.605   8.031 -1.7516  2.3631 -2.3021
19115SOL     OW62191   8.287   8.643   8.046  0.2310 -0.8673 -0.0432
19115SOL    HW162192   8.324   8.725   8.014 -0.2066 -0.7109 -0.1481
19115SOL    HW262193   8.313   8.640   8.139 -0.0890 -0.4181  0.0626
19116SOL     OW62194   2.324   3.779   8.633 -0.1774  0.4178 -0.6146
19116SOL    HW162195   2.244   3.737   8.667 -1.8127  2.3871 -1.7711
19116SOL    HW262196   2.355   3.834   8.705 -0.7723  0.8028 -0.6415
19117SOL     OW62197   1.436   9.457   6.320  0.6347 -0.1324  0.2882
19117SOL    HW162198   1.411   9.368   6.294 -0.4214  0.6751 -1.7565
19117SOL    HW262199   1.418   9.460   6.414 -0.4585 -1.7279  0.1863
19118SOL     OW62200   4.594   7.664   0.904 -0.4968  0.6453 -0.4890
19118SOL    HW162201   4.678   7.622   0.921 -0.3647  1.3522  0.7124
19118SOL    HW262202   4.596   7.744   0.957 -2.3878  0.0803  0.5347
19119SOL     OW62203   6.955   7.993   1.801  0.3627 -0.4297  0.2193
19119SOL    HW162204   6.914   8.036   1.876 -0.4565  2.4658 -1.7123
19119SOL    HW262205   6.884   7.980   1.738  1.6614  1.5015 -1.8260
19120SOL     OW62206   5.812   5.494   4.467 -0.1048  0.1797 -0.5341
19120SOL    HW162207   5.785   5.568   4.522 -0.3132 -0.8020  0.7304
19120SOL    HW262208   5.730   5.463   4.428 -0.4881 -1.0621  1.1176
19121SOL     OW62209   2.570   5.517   5.899 -0.5639  0.3811  0.3809
19121SOL    HW162210   2.523   5.464   5.965 -1.6517  0.7232 -0.1075
19121SOL    HW262211   2.506   5.534   5.831  0.2653  0.9137 -0.2919
19122SOL     OW62212   2.353   5.017   4.179  0.7692  0.2410 -0.2940
19122SOL    HW162213   2.403   4.948   4.134  2.6604  1.2799  0.1274
19122SOL    HW262214   2.413   5.091   4.185 -1.0982  1.8608 -0.4350
19123SOL     OW62215   5.982   3.792   2.783  0.4383 -0.0128  0.0305
19123SOL    HW162216   6.055   3.745   2.742 -0.0928 -1.0662  0.2691
19123SOL    HW262217   5.930   3.824   2.710  0.8689  0.3327 -0.1346
19124SOL     OW62218   6.805   6.870   2.569  0.7685  0.3894  0.1921
19124SOL    HW162219   6.743   6.827   2.628  1.1828 -0.3650  0.0869
19124SOL    HW262220   6.848   6.798   2.523 -0.0302  0.9447 -1.5426
19125SOL     OW62221   6.898   9.253   4.108 -0.2551 -0.4282  0.6480
19125SOL    HW162222   6.987   9.234   4.140  0.2971  0.9341 -0.0138
19125SOL    HW262223   6.907   9.251   4.013  0.2989  4.5636  0.3658
19126SOL     OW62224   7.965   4.525   5.534  0.2470 -0.0776  0.0176
19126SOL    HW162225   8.046   4.549   5.579 -0.0062  0.0524  0.4141
19126SOL    HW262226   7.971   4.568   5.449  0.5998 -0.0801  0.0386
19127SOL     OW62227   3.371   9.244   3.564 -0.3837 -0.0489  0.0368
19127SOL    HW162228   3.336   9.333   3.565 -0.4571 -0.0814  0.3145
19127SOL    HW262229   3.361   9.216   3.473  0.3870  0.5220 -0.2400
19128SOL     OW62230   5.568   0.579   2.400  0.1352 -0.0021  0.2868
19128SOL    HW162231   5.499   0.536   2.350  1.5549 -2.2005  0.0614
19128SOL    HW262232   5.643   0.580   2.340  0.9642  0.1897  1.2955
19129SOL     OW62233   4.267   1.751   6.872 -0.4754 -0.7556 -0.2469
19129SOL    HW162234   4.228   1.806   6.941 -0.9773  0.5698 -1.5152
19129SOL    HW262235   4.195   1.736   6.811  0.5622  0.3849 -1.8335
19130SOL     OW62236   0.520   4.362   8.486 -0.1324 -0.8741  0.3655
19130SOL    HW162237   0.534   4.431   8.421  1.4630 -0.7968  0.7444
19130SOL    HW262238   0.498   4.285   8.433 -0.9553 -0.3217 -0.1221
19131SOL     OW62239   0.993   2.406   0.555  0.3216 -0.0532 -0.0162
19131SOL    HW162240   0.934   2.478   0.577  1.6778  1.1066 -0.0588
19131SOL    HW262241   1.061   2.445   0.500  1.2885 -1.2844  0.2402
19132SOL     OW62242   5.301   7.104   3.844  0.7098  0.3750  0.0415
19132SOL    HW162243   5.259   7.068   3.766 -0.2455  1.1458  0.1827
19132SOL    HW262244   5.380   7.148   3.811 -0.1122  1.3965 -0.6069
19133SOL     OW62245   7.982   4.032   9.654  0.1151 -0.1284  0.2339
19133SOL    HW162246   7.922   4.062   9.585  0.2939 -1.1600 -0.3991
19133SOL    HW262247   8.036   4.108   9.673  1.0392 -0.1974 -1.8181
19134SOL     OW62248   8.647   6.773   0.502  0.1626  0.0853 -0.2503
19134SOL    HW162249   8.743   6.763   0.503  0.3312  1.5787  0.1535
19134SOL    HW262250   8.616   6.690   0.466  1.6080 -0.4371 -0.3945
19135SOL     OW62251   5.549   1.720   2.152  0.4251  0.1668 -0.4207
19135SOL    HW162252   5.562   1.687   2.063  0.4802  0.9829 -0.7206
19135SOL    HW262253   5.525   1.642   2.203  0.0114 -0.2442 -1.2275
19136SOL     OW62254   2.158   3.432   3.733  0.1003  0.1887 -0.3324
19136SOL    HW162255   2.242   3.392   3.713  0.7082  1.9589 -1.6486
19136SOL    HW262256   2.113   3.436   3.648 -0.8157  0.3491  0.1473
19137SOL     OW62257   9.242   1.999   7.896 -0.3089  0.3768  0.1222
19137SOL    HW162258   9.263   1.911   7.929  1.7822  0.3817 -1.0035
19137SOL    HW262259   9.327   2.037   7.875 -1.2705  2.1650 -0.7091
19138SOL     OW62260   1.047   4.465   5.407  0.1311 -0.0299 -0.1581
19138SOL    HW162261   1.032   4.556   5.434 -0.2536 -0.6897  2.1218
19138SOL    HW262262   1.125   4.438   5.457 -0.7494 -1.4232  0.5242
19139SOL     OW62263   8.843   8.797   6.466 -0.3719  0.0507 -0.0744
19139SOL    HW162264   8.818   8.706   6.482  1.0792 -0.5128 -0.8757
19139SOL    HW262265   8.916   8.792   6.404  0.9591  1.6486  1.2516
19140SOL     OW62266   2.907   3.699   3.423 -0.1048 -0.2247  0.3638
19140SOL    HW162267   2.892   3.668   3.334 -0.2756  4.3610 -1.4904
19140SOL    HW262268   2.819   3.708   3.461  0.0000 -2.9442  1.4412
19141SOL     OW62269   9.133   1.867   0.254 -0.4554 -0.7388 -0.6422
19141SOL    HW162270   9.090   1.916   0.325 -0.4358 -2.2791  0.4855
19141SOL    HW262271   9.209   1.921   0.231  0.2285 -0.7589  1.3648
19142SOL     OW62272   8.986   8.499   8.316 -0.3549 -0.0397  0.1244
19142SOL    HW162273   9.030   8.430   8.267 -0.8098  0.8127 -1.5736
19142SOL    HW262274   9.047   8.573   8.314 -0.1018 -0.1900  1.4467
19143SOL     OW62275   3.308   6.184   7.220  0.6398 -0.0640  0.3610
19143SOL    HW162276   3.303   6.178   7.124  1.3161  2.3636  0.1282
19143SOL    HW262277   3.269   6.102   7.250 -2.6084  0.4156 -1.9410
19144SOL     OW62278   2.973   0.733   1.104  0.4866  0.3773  0.3035
19144SOL    HW162279   2.960   0.748   1.011  0.3028 -1.3502  0.0207
19144SOL    HW262280   2.895   0.771   1.146  0.8472  1.6787 -0.1643
19145SOL     OW62281   9.528   3.108   0.105  0.4181  0.5667  0.1515
19145SOL    HW162282   9.486   3.026   0.077  0.7159  0.3710  0.2713
19145SOL    HW262283   9.620   3.085   0.114  0.9118  1.4674 -2.0567
19146SOL     OW62284   8.302   0.962   2.412 -0.3516 -0.0803 -0.2484
19146SOL    HW162285   8.245   1.020   2.361 -1.4513  0.4406  1.4726
19146SOL    HW262286   8.276   0.874   2.387 -2.1675  0.1455  0.6671
19147SOL     OW62287   7.727   8.863   4.067  0.3271 -0.2123 -0.0409
19147SOL    HW162288   7.688   8.922   4.002  4.8158  0.7897 -2.2722
19147SOL    HW262289   7.734   8.780   4.021 -0.6907 -0.8886  0.9856
19148SOL     OW62290   6.953   7.179   6.990 -0.2444 -0.1677  0.0348
19148SOL    HW162291   7.033   7.226   6.970 -1.0363  1.6534  0.9335
19148SOL    HW262292   6.965   7.093   6.950  2.0911  0.0890  0.0591
19149SOL     OW62293   4.276   2.192   4.485 -0.0840 -0.1746 -0.0921
19149SOL    HW162294   4.270   2.106   4.527  0.9186  0.3455  1.1930
19149SOL    HW262295   4.207   2.244   4.526  1.8655  0.7988  2.2031
19150SOL     OW62296   4.426   6.255   8.279 -0.5976 -0.0507  1.5218
19150SOL    HW162297   4.436   6.161   8.291 -0.0724 -0.1372  0.5589
19150SOL    HW262298   4.331   6.270   8.285 -0.6724 -0.6149  1.8361
19151SOL     OW62299   7.435   4.314   2.074  0.7322  0.1156 -0.0342
19151SOL    HW162300   7.348   4.335   2.038  0.7076 -1.1335 -0.7694
19151SOL    HW262301   7.494   4.375   2.030  0.3440  0.3856 -0.1893
19152SOL     OW62302   0.204   3.115   2.591 -0.0330  0.0228  0.2155
19152SOL    HW162303   0.117   3.092   2.557  0.1460 -1.0382  0.4459
19152SOL    HW262304   0.253   3.145   2.515  0.3357 -2.2456 -0.4986
19153SOL     OW62305   5.452   0.758   6.341  0.5787 -0.2626  0.9011
19153SOL    HW162306   5.545   0.780   6.348  0.8920 -1.0712 -0.3338
19153SOL    HW262307   5.442   0.726   6.251 -0.7254 -0.9598  1.2711
19154SOL     OW62308   8.246   2.881   0.866  0.2696  0.0615 -0.2254
19154SOL    HW162309   8.209   2.853   0.783 -1.0363 -1.4334  0.8039
19154SOL    HW262310   8.223   2.812   0.928 -0.5212  2.0028  1.8072
19155SOL     OW62311   3.122   4.889   0.620 -0.0602  0.1620 -0.8582
19155SOL    HW162312   3.062   4.939   0.676 -1.4405  1.6544 -3.5018
19155SOL    HW262313   3.197   4.870   0.677 -1.3849  1.5019  1.4962
19156SOL     OW62314   8.293   4.698   0.983  0.7201 -0.2241  0.8655
19156SOL    HW162315   8.274   4.604   0.977  2.3405 -0.6321  1.6288
19156SOL    HW262316   8.303   4.726   0.892 -1.5666 -0.3487  0.5126
19157SOL     OW62317   1.328   0.677   7.519  0.4050 -0.0441  0.1534
19157SOL    HW162318   1.401   0.720   7.474 -0.8160  1.7550 -0.2490
19157SOL    HW262319   1.311   0.598   7.469  3.0276 -1.3882  1.1706
19158SOL     OW62320   4.359   3.246   8.384 -0.0154  0.2522 -0.0068
19158SOL    HW162321   4.349   3.255   8.290 -0.2365  0.6297  0.0542
19158SOL    HW262322   4.451   3.220   8.396 -0.2831 -0.9143 -0.3971
19159SOL     OW62323   7.030   7.224   8.344  0.0754 -0.0797 -0.1935
19159SOL    HW162324   7.013   7.318   8.353  1.7202  0.3612 -1.1232
19159SOL    HW262325   7.034   7.192   8.434  1.3605  1.1578  0.2482
19160SOL     OW62326   2.464   6.650   1.459  0.3780  0.0374 -0.0558
19160SOL    HW162327   2.471   6.648   1.555 -2.6136 -0.1342  0.2478
19160SOL    HW262328   2.469   6.558   1.433  1.5084  0.1085 -0.1115
19161SOL     OW62329   9.631   6.712   8.149  0.0142 -0.0234  0.3140
19161SOL    HW162330   9.689   6.663   8.090 -0.2777  0.6187 -0.5261
19161SOL    HW262331   9.624   6.799   8.110  0.5079  0.7041  1.7765
19162SOL     OW62332   3.384   4.556   4.987  0.6342 -0.4517 -0.1413
19162SOL    HW162333   3.409   4.526   4.899  2.4674  3.5953 -1.2431
19162SOL    HW262334   3.302   4.603   4.973 -0.6791 -2.2632  0.9967
19163SOL     OW62335   4.680   6.318   2.610  0.6577 -0.0482  0.3594
19163SOL    HW162336   4.683   6.331   2.705  0.7597 -0.1434  0.3686
19163SOL    HW262337   4.590   6.293   2.592 -0.2988  3.0967  0.0503
19164SOL     OW62338   3.683   1.523   1.974  0.4583  0.0578  0.1690
19164SOL    HW162339   3.742   1.590   1.941  0.0736  0.9079  1.1422
19164SOL    HW262340   3.625   1.504   1.901  1.9339 -0.8472 -0.8329
19165SOL     OW62341   9.718   9.653   1.316  0.2954  0.3859 -0.5847
19165SOL    HW162342   9.774   9.730   1.308 -1.4378  1.6523 -1.2628
19165SOL    HW262343   9.699   9.646   1.409  2.0726 -0.4779 -0.2537
19166SOL     OW62344   5.097   4.180   0.142  0.5101 -0.2560  0.1439
19166SOL    HW162345   5.087   4.215   0.053  0.9164 -0.0260  0.1816
19166SOL    HW262346   5.188   4.148   0.145  0.1591 -1.2860  0.1292
19167SOL     OW62347   0.373   7.813   3.277  0.1402 -0.3380  0.0406
19167SOL    HW162348   0.445   7.820   3.340  1.2373 -0.2581 -1.1741
19167SOL    HW262349   0.319   7.890   3.294  2.2012  1.5019 -1.1917
19168SOL     OW62350   3.906   1.577   8.046  0.2264  0.0397 -0.0539
19168SOL    HW162351   3.979   1.515   8.051 -0.2680 -0.4831  1.5773
19168SOL    HW262352   3.835   1.527   8.005 -0.0613 -0.3891  0.9338
19169SOL     OW62353   0.352   3.651   1.519  0.4134  0.4276  0.1205
19169SOL    HW162354   0.432   3.604   1.543 -0.9411 -1.6119  0.9198
19169SOL    HW262355   0.366   3.678   1.428  1.2556 -1.6685 -0.4254
19170SOL     OW62356   1.682   2.664   9.294 -0.0705 -0.3572 -0.2561
19170SOL    HW162357   1.684   2.603   9.220  1.6118 -2.2656  1.2229
19170SOL    HW262358   1.683   2.607   9.371 -0.7784  1.5675  1.2268
19171SOL     OW62359   8.448   7.211   4.987 -0.2230  0.0373 -0.7673
19171SOL    HW162360   8.507   7.256   5.047 -1.0868 -0.5265  0.5332
19171SOL    HW262361   8.449   7.120   5.016 -2.3058  0.1462 -0.2039
19172SOL     OW62362   3.409   8.459   9.662 -0.1468  0.4528 -0.3076
19172SOL    HW162363   3.360   8.538   9.684  0.4910  0.7996 -0.1017
19172SOL    HW262364   3.500   8.481   9.682  0.1352 -0.0727 -0.9834
19173SOL     OW62365   8.804   3.129   8.922  0.4327 -0.1866 -0.3243
19173SOL    HW162366   8.868   3.091   8.862  1.2645 -0.3083  0.6281
19173SOL    HW262367   8.822   3.088   9.006 -1.6835 -1.1551 -0.2723
19174SOL     OW62368   8.584   8.186   4.101 -0.3073 -0.0030 -0.5103
19174SOL    HW162369   8.635   8.129   4.043 -0.0950 -0.3336  0.0004
19174SOL    HW262370   8.567   8.133   4.179 -2.0148 -0.1382 -0.9325
19175SOL     OW62371   9.409   9.147   7.634  0.2795 -0.1007 -0.1710
19175SOL    HW162372   9.496   9.186   7.638  0.1402  0.1265  0.9056
19175SOL    HW262373   9.409   9.081   7.703  0.5918 -2.2449 -2.1275
19176SOL     OW62374   4.908   7.914   7.772 -0.4104  0.8393  0.2929
19176SOL    HW162375   4.938   7.996   7.733  0.9750  0.2649  0.0947
19176SOL    HW262376   4.934   7.920   7.864 -0.0347  0.5139  0.2121
19177SOL     OW62377   9.627   4.387   7.260  0.1232  0.4175 -0.3588
19177SOL    HW162378   9.663   4.365   7.347 -1.2144 -0.0603  0.0907
19177SOL    HW262379   9.535   4.361   7.264  0.1655 -0.1217 -2.1220
19178SOL     OW62380   9.609   1.595   6.854  0.4036 -0.2888 -0.2790
19178SOL    HW162381   9.540   1.554   6.801  1.7556 -2.0076 -0.7752
19178SOL    HW262382   9.688   1.546   6.834  1.7116  1.3206  0.6579
19179SOL     OW62383   2.507   9.237   3.795 -0.4728 -0.7910 -0.7396
19179SOL    HW162384   2.466   9.154   3.818  0.7625 -1.1247  0.3680
19179SOL    HW262385   2.436   9.302   3.803 -1.2356 -1.6023 -0.7946
19180SOL     OW62386   8.168   1.656   0.803  0.0828 -0.3487 -0.8282
19180SOL    HW162387   8.132   1.722   0.863  2.0405 -0.9413  1.1118
19180SOL    HW262388   8.091   1.618   0.760 -1.2958  1.0577  0.2804
19181SOL     OW62389   5.401   8.066   7.383  0.0426 -0.4124  0.5627
19181SOL    HW162390   5.466   8.062   7.313  0.2784 -3.3536  0.8383
19181SOL    HW262391   5.317   8.066   7.337  0.2111 -1.1274  0.2318
19182SOL     OW62392   5.349   8.711   2.598 -0.5097 -0.3401  0.5149
19182SOL    HW162393   5.324   8.657   2.523  0.5376 -1.2031  0.7598
19182SOL    HW262394   5.406   8.779   2.561  0.2384 -0.9345  0.5533
19183SOL     OW62395   0.109   1.431   7.805  0.1948 -0.0947 -0.2746
19183SOL    HW162396   0.204   1.431   7.802  0.1817 -0.4618 -1.8995
19183SOL    HW262397   0.085   1.339   7.790 -0.4230 -0.3382  1.8992
19184SOL     OW62398   1.010   9.075   6.748 -0.4058 -0.4399  0.1258
19184SOL    HW162399   1.101   9.043   6.747 -0.1668  0.2113 -1.0704
19184SOL    HW262400   0.973   9.039   6.829  1.1848  0.0152  1.1037
19185SOL     OW62401   5.464   8.552   4.706  0.5806  0.0379 -0.2435
19185SOL    HW162402   5.374   8.538   4.736  0.7253  0.0140  0.1876
19185SOL    HW262403   5.478   8.646   4.716  0.6434  0.0240 -0.2021
19186SOL     OW62404   7.083   8.116   8.269 -0.5026  0.0345  0.2302
19186SOL    HW162405   7.075   8.085   8.178  1.6457 -0.3804  0.1281
19186SOL    HW262406   6.993   8.139   8.294 -1.3803 -1.2286 -1.5009
19187SOL     OW62407   4.944   9.174   2.939  0.3190  0.7022  0.1811
19187SOL    HW162408   5.025   9.124   2.931  0.0405 -0.1156  1.9616
19187SOL    HW262409   4.968   9.251   2.991  0.0879  0.8003  0.1462
19188SOL     OW62410   4.743   0.508   8.374  0.4436  0.3186 -0.0142
19188SOL    HW162411   4.667   0.459   8.343  1.7645 -2.0456  0.2300
19188SOL    HW262412   4.792   0.531   8.295 -0.4235  1.7466 -0.1637
19189SOL     OW62413   8.794   7.518   8.405  0.3887 -0.3610 -0.2582
19189SOL    HW162414   8.882   7.535   8.373  0.3837 -2.6272 -1.6912
19189SOL    HW262415   8.805   7.501   8.499  0.8992  2.7766  0.3885
19190SOL     OW62416   2.001   2.750   6.638 -0.0595  0.0538 -0.2061
19190SOL    HW162417   1.945   2.817   6.678  0.4837  1.8892 -2.3486
19190SOL    HW262418   1.962   2.735   6.552  1.7819  0.1135 -1.0758
19191SOL     OW62419   2.685   5.148   3.305  0.1927 -0.5816  0.3302
19191SOL    HW162420   2.720   5.229   3.266 -0.6518 -1.3688 -2.2446
19191SOL    HW262421   2.599   5.173   3.338  0.0020 -0.3756 -0.3046
19192SOL     OW62422   4.900   9.082   3.337  0.4161  0.7378 -0.3453
19192SOL    HW162423   4.917   9.176   3.344 -1.4770  1.2633 -2.0117
19192SOL    HW262424   4.846   9.073   3.259 -0.2969 -1.6474  0.3464
19193SOL     OW62425   4.488   7.529   8.475  0.2549  0.0819  0.5733
19193SOL    HW162426   4.568   7.483   8.500 -0.4465 -0.8927  1.1040
19193SOL    HW262427   4.449   7.556   8.558  0.9363  2.2197  0.2676
19194SOL     OW62428   7.144   1.183   0.650  0.4112  0.1339 -0.4719
19194SOL    HW162429   7.071   1.178   0.589  0.3542  0.2293 -0.4108
19194SOL    HW262430   7.218   1.144   0.602  0.4188  0.3951 -0.6774
19195SOL     OW62431   9.560   9.457   8.602  1.1606  0.1405 -0.3756
19195SOL    HW162432   9.561   9.386   8.667 -0.8222  0.5868  0.2063
19195SOL    HW262433   9.645   9.450   8.558  1.2011 -2.3486 -0.0786
19196SOL     OW62434   5.774   6.124   5.618  0.2626 -0.0724 -0.5256
19196SOL    HW162435   5.710   6.053   5.627  2.2849 -2.0706 -1.0017
19196SOL    HW262436   5.789   6.154   5.707 -0.3844 -0.4585 -0.2750
19197SOL     OW62437   9.023   0.753   6.039  0.6013 -0.2205 -0.1538
19197SOL    HW162438   9.103   0.701   6.052  0.4149 -0.6284 -0.6121
19197SOL    HW262439   9.031   0.788   5.951  2.3340  3.3805  1.2503
19198SOL     OW62440   6.002   3.996   2.182 -0.3622 -0.4507 -0.0675
19198SOL    HW162441   6.005   3.908   2.219  1.5041 -0.8661 -1.0531
19198SOL    HW262442   5.958   3.985   2.098 -0.0551 -0.4597 -0.2275
19199SOL     OW62443   4.791   8.685   0.631 -0.1637  0.4068  0.0159
19199SOL    HW162444   4.765   8.654   0.718 -1.5532 -0.0524 -0.5268
19199SOL    HW262445   4.787   8.780   0.638 -2.9478  0.4016 -0.2228
19200SOL     OW62446   4.732   4.681   8.860 -0.8126  0.0664 -0.5263
19200SOL    HW162447   4.669   4.732   8.911 -0.3070 -0.3924  0.6006
19200SOL    HW262448   4.817   4.716   8.886 -0.5582  0.1673 -1.4578
19201SOL     OW62449   3.649   2.911   1.097 -0.5411  0.2728 -0.4303
19201SOL    HW162450   3.744   2.904   1.088 -0.4896 -1.4011  0.8696
19201SOL    HW262451   3.636   2.980   1.163 -0.3430  1.6144 -1.7300
19202SOL     OW62452   8.090   8.176   6.569  0.0040  0.4898  0.1915
19202SOL    HW162453   8.057   8.240   6.505 -2.1287 -0.8064 -0.0750
19202SOL    HW262454   8.142   8.229   6.630  0.8086  2.0090 -1.6735
19203SOL     OW62455   1.770   5.810   4.492  0.7678 -0.2901 -0.2836
19203SOL    HW162456   1.794   5.821   4.400 -0.3368  0.5500 -0.4956
19203SOL    HW262457   1.852   5.789   4.536  1.9681  2.5528 -0.9405
19204SOL     OW62458   8.762   7.649   5.859 -0.0447  0.2450 -0.4573
19204SOL    HW162459   8.726   7.737   5.874 -1.6515 -0.6132  1.0463
19204SOL    HW262460   8.718   7.619   5.779 -0.0810  0.4834 -0.5291
19205SOL     OW62461   1.550   1.977   0.975  0.2017 -0.3896 -0.3116
19205SOL    HW162462   1.643   1.961   0.958  0.6909  1.3797  0.4573
19205SOL    HW262463   1.518   2.021   0.897  0.8323  1.8482  0.6290
19206SOL     OW62464   6.806   8.133   0.143 -0.5460  0.4753 -0.2718
19206SOL    HW162465   6.837   8.056   0.095  0.2956  0.3207  0.4835
19206SOL    HW262466   6.712   8.117   0.157 -0.4293 -0.2984 -0.3487
19207SOL     OW62467   6.019   1.533   9.347  0.8465 -0.4989 -0.0606
19207SOL    HW162468   5.983   1.609   9.394  0.2231 -2.2664  2.5522
19207SOL    HW262469   6.088   1.570   9.292  1.1079  1.9143  1.6921
19208SOL     OW62470   6.725   5.832   4.518  0.4852 -1.0930  0.2645
19208SOL    HW162471   6.681   5.821   4.434 -0.5862  2.9975  0.0352
19208SOL    HW262472   6.788   5.761   4.523 -0.3799 -2.2972 -3.3298
19209SOL     OW62473   9.706   1.755   2.661 -0.0924 -0.3315 -0.0212
19209SOL    HW162474   9.713   1.790   2.750  1.6353  1.7204 -0.8603
19209SOL    HW262475   9.784   1.700   2.650  0.5322  0.6492 -0.7045
19210SOL     OW62476   8.492   4.272   5.337  0.4554  0.2312 -0.1447
19210SOL    HW162477   8.538   4.342   5.291  1.0777  0.1569  0.3593
19210SOL    HW262478   8.560   4.210   5.362  0.2726  0.6913  1.6248
19211SOL     OW62479   8.448   8.350   3.946 -0.6557 -0.3591 -0.5904
19211SOL    HW162480   8.493   8.313   4.023 -1.6827 -1.3968 -0.4485
19211SOL    HW262481   8.355   8.347   3.970 -0.8495  1.4513 -0.9875
19212SOL     OW62482   5.632   9.514   2.026 -0.0827 -0.0373  0.1142
19212SOL    HW162483   5.706   9.560   1.986  0.0371  0.0396  0.4251
19212SOL    HW262484   5.663   9.491   2.114 -0.2885 -0.3471  0.1063
19213SOL     OW62485   1.717   7.736   1.671 -0.3041 -0.2150  0.5102
19213SOL    HW162486   1.697   7.642   1.668 -1.2845 -0.0063 -0.3211
19213SOL    HW262487   1.708   7.759   1.763  2.3891 -1.4013  1.1447
19214SOL     OW62488   2.818   7.423   2.810  0.5475  0.8007 -0.2910
19214SOL    HW162489   2.891   7.364   2.829 -1.2796 -1.2621  0.8669
19214SOL    HW262490   2.818   7.486   2.883  0.6206  0.2086  0.2337
19215SOL     OW62491   8.520   5.134   2.614 -0.1901 -0.1487  0.3533
19215SOL    HW162492   8.543   5.050   2.653 -0.4088  0.2396  1.3409
19215SOL    HW262493   8.594   5.191   2.635 -0.5824  0.2255  0.7255
19216SOL     OW62494   9.483   7.146   5.639  0.0931  0.4499  0.1830
19216SOL    HW162495   9.445   7.099   5.713  2.2536 -0.3652  0.8420
19216SOL    HW262496   9.444   7.233   5.643 -0.3900  0.1850  1.8411
19217SOL     OW62497   8.338   0.594   3.663 -0.0931 -0.1550  0.0741
19217SOL    HW162498   8.320   0.516   3.611 -0.1141  0.0883 -0.2859
19217SOL    HW262499   8.336   0.666   3.600 -0.5625  0.1981  0.4802
19218SOL     OW62500   7.500   4.705   4.101 -0.0161  0.2655  0.0369
19218SOL    HW162501   7.517   4.793   4.135  1.7298  0.1660 -0.4792
19218SOL    HW262502   7.552   4.700   4.021 -1.4109 -0.6703 -0.8664
19219SOL     OW62503   6.441   2.231   4.162 -0.4284  0.2211  0.8798
19219SOL    HW162504   6.363   2.222   4.108 -0.0784  1.8839  0.0262
19219SOL    HW262505   6.440   2.154   4.219 -0.7971 -1.6438 -1.5020
19220SOL     OW62506   5.484   2.679   4.362 -0.3278  0.6622 -0.4973
19220SOL    HW162507   5.519   2.741   4.299 -2.5136  2.6172  0.0822
19220SOL    HW262508   5.545   2.683   4.436  0.0089  1.4758 -0.8065
19221SOL     OW62509   5.955   4.737   9.333  0.0470  0.4278 -0.0240
19221SOL    HW162510   5.905   4.755   9.253  0.9193  0.5386 -0.5514
19221SOL    HW262511   6.037   4.699   9.303  1.1036  2.0247  0.6948
19222SOL     OW62512   1.547   8.919   8.527  0.0033  0.3639 -0.1727
19222SOL    HW162513   1.488   8.919   8.451  0.5490  0.5550 -0.6018
19222SOL    HW262514   1.572   9.010   8.538 -3.0664  1.0760  2.6280
19223SOL     OW62515   7.640   4.509   2.066 -0.4168  0.3721  0.3385
19223SOL    HW162516   7.705   4.474   2.127  1.0110  0.3972 -1.1072
19223SOL    HW262517   7.686   4.580   2.021 -1.2442 -0.0139 -1.1486
19224SOL     OW62518   4.450   7.462   4.764  0.0831  0.0369 -0.6666
19224SOL    HW162519   4.377   7.411   4.798  0.3145 -0.5014 -0.9615
19224SOL    HW262520   4.438   7.549   4.801  0.5759 -0.6239  1.2046
19225SOL     OW62521   8.624   0.945   4.534  0.6263  0.0368 -0.3144
19225SOL    HW162522   8.711   0.978   4.554 -0.1313  0.6964  2.2533
19225SOL    HW262523   8.574   1.023   4.507  0.3309  0.0044  0.1322
19226SOL     OW62524   8.242   1.449   5.361 -0.1506 -0.5112  0.3010
19226SOL    HW162525   8.333   1.428   5.343  0.2258 -0.7099  2.2224
19226SOL    HW262526   8.212   1.378   5.417 -1.4506 -0.3616 -0.1753
19227SOL     OW62527   7.189   6.301   0.394  0.3380  0.9131 -0.1173
19227SOL    HW162528   7.175   6.216   0.352  1.8430  1.0055 -0.8591
19227SOL    HW262529   7.170   6.285   0.487  0.1236 -0.1053 -0.3267
19228SOL     OW62530   5.368   9.648   2.061  0.4173  0.0566 -0.7914
19228SOL    HW162531   5.448   9.601   2.040 -0.7436 -2.7648  0.5857
19228SOL    HW262532   5.311   9.633   1.986 -0.1630 -1.3589 -0.1036
19229SOL     OW62533   9.278   7.091   7.957 -0.0817 -0.4510 -0.2495
19229SOL    HW162534   9.299   7.171   7.909  0.0807 -0.2839  0.0915
19229SOL    HW262535   9.286   7.116   8.049 -0.5076 -0.7333 -0.1315
19230SOL     OW62536   4.503   7.209   8.403 -0.0634 -0.0393  0.1100
19230SOL    HW162537   4.470   7.257   8.327  0.3443  2.0283  1.1914
19230SOL    HW262538   4.435   7.218   8.469  0.1101 -0.7980  0.4023
19231SOL     OW62539   0.933   4.390   8.425  0.2219  0.0565  0.2908
19231SOL    HW162540   0.887   4.325   8.372  0.5593  0.3640 -0.3812
19231SOL    HW262541   1.011   4.412   8.375 -0.0462  1.2188  0.3582
19232SOL     OW62542   2.550   3.150   3.419 -0.2055  0.5862  0.2603
19232SOL    HW162543   2.626   3.208   3.421 -0.5113  1.1211 -1.5233
19232SOL    HW262544   2.585   3.063   3.437  0.6656  0.9734  0.4785
19233SOL     OW62545   8.786   4.865   5.715  0.2267 -0.3267  0.3133
19233SOL    HW162546   8.871   4.823   5.729 -0.2518 -1.5228 -0.1429
19233SOL    HW262547   8.777   4.927   5.787  1.0556 -0.9049  0.9345
19234SOL     OW62548   1.027   1.958   9.367  0.6705  0.5139 -1.1518
19234SOL    HW162549   0.944   1.931   9.407  1.0520  1.3203  0.2704
19234SOL    HW262550   1.004   1.978   9.276 -0.5769  0.1570 -0.9435
19235SOL     OW62551   1.722   7.880   0.476 -0.1929  0.2182  0.0284
19235SOL    HW162552   1.635   7.843   0.496  0.3212 -0.8533  0.3459
19235SOL    HW262553   1.706   7.939   0.402 -0.9686 -1.0140 -0.8269
19236SOL     OW62554   8.177   3.445   4.982 -0.0377 -0.7102 -0.3294
19236SOL    HW162555   8.222   3.366   5.012 -0.9652 -1.3228 -0.5097
19236SOL    HW262556   8.208   3.457   4.892  0.3361 -0.6972 -0.1990
19237SOL     OW62557   9.305   3.808   2.593  0.0927 -0.3978  0.0181
19237SOL    HW162558   9.349   3.886   2.628  0.0748 -0.1227 -0.5713
19237SOL    HW262559   9.297   3.750   2.669 -1.2610  0.7858  0.8344
19238SOL     OW62560   6.719   9.677   7.577 -0.0527  0.0081  0.7863
19238SOL    HW162561   6.666   9.750   7.610  0.6644  0.3516  1.2126
19238SOL    HW262562   6.664   9.635   7.511  0.4489  2.5301 -1.4486
19239SOL     OW62563   9.617   2.996   5.401 -0.7343  0.2992 -0.4048
19239SOL    HW162564   9.663   2.953   5.329  0.6000 -0.1728  0.6925
19239SOL    HW262565   9.639   2.944   5.479  0.5055  2.6252  0.8942
19240SOL     OW62566   3.413   8.958   7.043  0.1091  0.1379 -0.0859
19240SOL    HW162567   3.332   8.955   7.093  0.6778  0.9249  0.9276
19240SOL    HW262568   3.480   8.985   7.107  0.8643  1.1283 -1.2433
19241SOL     OW62569   6.766   7.338   8.721 -0.1123 -0.3969  0.0569
19241SOL    HW162570   6.746   7.425   8.756  0.3138 -0.0356 -0.5781
19241SOL    HW262571   6.736   7.278   8.789 -0.4981  0.2411  0.4649
19242SOL     OW62572   6.210   9.158   6.690 -0.4210 -0.1793 -0.2640
19242SOL    HW162573   6.274   9.086   6.690  0.4098  0.5105 -1.5425
19242SOL    HW262574   6.233   9.209   6.613 -1.4932  1.0321  0.1970
19243SOL     OW62575   3.657   8.946   0.191 -0.2370 -0.9498 -0.0524
19243SOL    HW162576   3.586   8.884   0.206 -1.3129 -0.0863 -1.2709
19243SOL    HW262577   3.637   9.019   0.249 -2.5767  0.9566 -2.9341
19244SOL     OW62578   8.002   3.262   2.220  0.5291  0.3100  0.5543
19244SOL    HW162579   7.932   3.309   2.267  0.0134 -0.1781  0.2855
19244SOL    HW262580   8.004   3.175   2.260  0.2788 -0.0168 -0.1314
19245SOL     OW62581   6.935   0.244   0.981  0.1543  0.4351 -0.1026
19245SOL    HW162582   6.889   0.286   0.909 -0.0681  0.0499 -0.1870
19245SOL    HW262583   6.990   0.177   0.940 -0.5091 -0.2745  0.1315
19246SOL     OW62584   6.661   7.075   7.985  0.0442  0.0784 -0.2532
19246SOL    HW162585   6.604   7.086   7.909 -0.4605  1.6559  0.3256
19246SOL    HW262586   6.641   6.988   8.018 -2.1056  0.6122 -0.0279
19247SOL     OW62587   4.648   7.250   6.730 -0.0652 -0.0589  0.5576
19247SOL    HW162588   4.712   7.179   6.730 -1.0012 -1.0559 -2.2998
19247SOL    HW262589   4.602   7.241   6.646 -1.1468  3.1334  0.6663
19248SOL     OW62590   7.934   5.954   8.358  0.3551 -0.2728 -0.2993
19248SOL    HW162591   8.000   6.016   8.328  0.7132 -0.2615  0.5010
19248SOL    HW262592   7.878   6.004   8.417  0.0517 -0.4652 -0.4178
19249SOL     OW62593   9.500   1.638   4.550 -0.6193  0.3550  0.4181
19249SOL    HW162594   9.432   1.655   4.485  0.4207  0.5201 -0.6550
19249SOL    HW262595   9.505   1.719   4.601 -0.5029  0.7330 -0.1835
19250SOL     OW62596   4.636   7.974   6.531 -0.3072  0.1904 -0.9299
19250SOL    HW162597   4.656   7.993   6.439  0.4703 -1.7199 -1.2143
19250SOL    HW262598   4.560   7.915   6.527 -1.5506  1.6854 -0.2114
19251SOL     OW62599   8.533   3.074   7.086 -0.0031 -0.0987 -0.9639
19251SOL    HW162600   8.488   3.115   7.161  0.7120  1.2444 -1.2252
19251SOL    HW262601   8.462   3.044   7.029 -0.5720 -1.6033  0.4517
19252SOL     OW62602   7.176   6.548   6.560  0.1591  0.0053  0.3297
19252SOL    HW162603   7.188   6.530   6.654  0.6452 -0.6269  0.1536
19252SOL    HW262604   7.168   6.461   6.520 -1.2657  0.2951 -0.0689
19253SOL     OW62605   3.511   9.617   6.731  0.4769 -0.1780  0.0096
19253SOL    HW162606   3.504   9.659   6.817  0.9834  1.5528 -0.7550
19253SOL    HW262607   3.594   9.650   6.695  0.7579 -1.6563 -0.7470
19254SOL     OW62608   8.779   7.885   6.808 -0.0610  0.2132  0.1908
19254SOL    HW162609   8.718   7.882   6.735  0.0338  0.2119  0.1122
19254SOL    HW262610   8.744   7.823   6.871  0.0765 -0.0804 -0.0223
19255SOL     OW62611   4.536   4.345   6.166 -0.2130 -0.2539 -0.1197
19255SOL    HW162612   4.498   4.295   6.238 -0.9987  0.3125 -0.1290
19255SOL    HW262613   4.619   4.301   6.147 -1.5904 -2.5754 -1.1929
19256SOL     OW62614   4.296   6.176   2.986 -0.3196 -0.4089 -0.4109
19256SOL    HW162615   4.324   6.111   3.050 -0.5703  0.3048  0.4386
19256SOL    HW262616   4.253   6.244   3.038  0.1702  0.5683 -1.2445
19257SOL     OW62617   0.117   3.666   5.431  0.2256 -0.0100  0.1910
19257SOL    HW162618   0.119   3.640   5.523  3.1534  1.4343  0.6692
19257SOL    HW262619   0.150   3.589   5.384  1.7682  0.2421  0.7752
19258SOL     OW62620   0.031   4.613   7.549  0.1574 -0.1833 -0.4196
19258SOL    HW162621   0.040   4.625   7.455 -0.3796 -0.8526 -0.5679
19258SOL    HW262622  -0.043   4.552   7.558  0.8625 -0.9388  0.3919
19259SOL     OW62623   2.070   1.467   7.071 -0.9527  0.1811 -0.0696
19259SOL    HW162624   1.980   1.477   7.103 -0.4600  3.2745  0.6909
19259SOL    HW262625   2.078   1.532   7.001  0.7172  0.1414  0.0359
19260SOL     OW62626   3.252   6.274   1.781 -0.8285  0.0215  0.2695
19260SOL    HW162627   3.324   6.337   1.785  3.0701 -3.8755 -0.7973
19260SOL    HW262628   3.193   6.309   1.713  0.3850  2.9753  0.5791
19261SOL     OW62629   1.521   7.049   7.486  0.2469  0.1011  0.2118
19261SOL    HW162630   1.480   7.041   7.572 -1.6374  0.6539 -0.5776
19261SOL    HW262631   1.561   6.963   7.471  3.3579  0.8994  2.8729
19262SOL     OW62632   2.705   7.950   8.896 -0.1398 -0.1652  0.2045
19262SOL    HW162633   2.750   8.029   8.866  2.5979 -0.5862  2.6689
19262SOL    HW262634   2.692   7.964   8.990 -1.7525 -1.7037  0.2521
19263SOL     OW62635   7.465   8.909   7.089 -0.4708  0.9075 -0.0350
19263SOL    HW162636   7.472   8.949   7.002  1.2630  0.6834 -0.0449
19263SOL    HW262637   7.522   8.962   7.144 -2.4207  1.7312  1.2756
19264SOL     OW62638   8.959   2.318   8.429 -0.3279  0.1703  0.7837
19264SOL    HW162639   8.935   2.247   8.489 -0.6685  0.6833  1.2714
19264SOL    HW262640   9.010   2.275   8.360 -1.1368 -0.6645  0.6781
19265SOL     OW62641   3.807   2.717   1.371 -0.3300  0.5529 -0.0505
19265SOL    HW162642   3.844   2.797   1.409  1.9149  0.7457 -2.3399
19265SOL    HW262643   3.857   2.646   1.410 -0.2898  0.5136 -0.1715
19266SOL     OW62644   3.687   4.254   1.727 -0.0613  0.0804  0.0510
19266SOL    HW162645   3.640   4.193   1.670 -0.5305  0.2657  0.2405
19266SOL    HW262646   3.642   4.337   1.716  1.1919  0.6563 -0.9839
19267SOL     OW62647   6.060   2.389   2.318 -0.2938  0.0454 -0.6016
19267SOL    HW162648   6.049   2.323   2.250 -2.0859  0.3288 -0.6169
19267SOL    HW262649   6.035   2.344   2.399 -0.0963  0.2825 -0.4087
19268SOL     OW62650   1.000   7.476   2.611 -0.4919  0.3949 -0.0945
19268SOL    HW162651   1.029   7.411   2.547 -1.1806 -1.6037  1.5316
19268SOL    HW262652   0.936   7.530   2.563  1.8297  1.5133 -2.1600
19269SOL     OW62653   7.844   8.220   4.651  0.4635  0.6344 -0.3163
19269SOL    HW162654   7.835   8.125   4.644 -2.9488  0.6714  1.3094
19269SOL    HW262655   7.934   8.234   4.681  1.1247 -2.0494 -0.7971
19270SOL     OW62656   0.643   6.472   5.037  0.5151 -0.2174 -0.0562
19270SOL    HW162657   0.670   6.558   5.006 -1.0541  0.6265  0.7659
19270SOL    HW262658   0.661   6.474   5.131  0.9245 -0.9759 -0.1135
19271SOL     OW62659   4.736   8.729   9.453 -0.0645 -0.2193 -0.4195
19271SOL    HW162660   4.825   8.764   9.441  0.0338 -0.3451 -0.0521
19271SOL    HW262661   4.745   8.661   9.519 -0.3203 -0.7043 -0.8727
19272SOL     OW62662   9.676   0.349   1.892 -0.3483 -0.1247 -0.0698
19272SOL    HW162663   9.754   0.299   1.917 -0.1058  0.2948  0.0178
19272SOL    HW262664   9.707   0.409   1.824  0.0822  2.0183  1.9069
19273SOL     OW62665   3.693   8.079   7.881 -0.3178 -0.5370  0.1411
19273SOL    HW162666   3.610   8.102   7.922  0.0376  1.0294  0.0650
19273SOL    HW262667   3.759   8.100   7.948  0.0867 -0.6929 -0.2028
19274SOL     OW62668   4.046   4.632   0.729 -0.0720  0.2646 -0.3034
19274SOL    HW162669   4.111   4.566   0.705 -0.2051  1.0659 -3.2053
19274SOL    HW262670   3.962   4.587   0.722 -0.0735  0.3476 -0.8640
19275SOL     OW62671   4.264   2.278   6.401 -0.0338  0.7175 -0.0110
19275SOL    HW162672   4.268   2.359   6.452  0.8754  0.5925  0.1278
19275SOL    HW262673   4.281   2.209   6.465 -0.7141  0.4139 -0.1469
19276SOL     OW62674   4.867   5.280   9.007  0.5205  0.0509  0.1450
19276SOL    HW162675   4.952   5.323   8.999  0.0245  0.7893 -2.0670
19276SOL    HW262676   4.823   5.299   8.924 -1.6058 -0.7515  1.0088
19277SOL     OW62677   9.061   1.527   1.465 -0.8194  0.4274  0.2268
19277SOL    HW162678   8.984   1.512   1.520  0.1153 -0.4274  1.3441
19277SOL    HW262679   9.092   1.614   1.492  0.8907 -0.8439  2.7255
19278SOL     OW62680   0.427   7.662   5.276 -0.0897 -0.3992  0.1034
19278SOL    HW162681   0.418   7.757   5.282  2.6345  0.0194 -0.9309
19278SOL    HW262682   0.428   7.645   5.182 -0.4073 -1.4453  0.2836
19279SOL     OW62683   0.390   6.356   4.934  0.0836 -0.7763  0.4633
19279SOL    HW162684   0.415   6.391   4.849  0.9612 -0.5994  0.7811
19279SOL    HW262685   0.459   6.387   4.994 -0.6634 -0.6552  1.2875
19280SOL     OW62686   5.137   3.921   9.274 -0.3333 -0.7409  0.0292
19280SOL    HW162687   5.168   3.872   9.349 -0.1630  0.0376  0.4848
19280SOL    HW262688   5.185   3.885   9.199  1.5114  0.2363  0.6655
19281SOL     OW62689   5.696   3.545   2.378 -0.1972  0.2444  0.1564
19281SOL    HW162690   5.629   3.524   2.313 -1.1425  0.8943  0.8930
19281SOL    HW262691   5.761   3.476   2.368 -1.4985 -1.0337  0.1271
19282SOL     OW62692   6.065   2.118   6.876 -0.0750 -0.5881  0.0401
19282SOL    HW162693   6.129   2.071   6.823 -0.0233 -0.5937  0.1074
19282SOL    HW262694   6.053   2.202   6.831  0.2864 -0.4218  0.2490
19283SOL     OW62695   8.572   9.452   4.747  0.1146  0.0327 -0.3219
19283SOL    HW162696   8.588   9.537   4.788  2.4699  0.1595 -1.3054
19283SOL    HW262697   8.631   9.451   4.671 -1.1091 -1.8025 -1.3192
19284SOL     OW62698   2.462   3.083   4.638 -0.0512 -0.1411  0.2692
19284SOL    HW162699   2.422   3.170   4.637 -2.1637 -1.0497 -0.4107
19284SOL    HW262700   2.396   3.027   4.680  1.5697 -1.2970  1.3859
19285SOL     OW62701   1.748   4.970   6.884 -0.4518  0.0163 -0.2177
19285SOL    HW162702   1.758   4.889   6.933 -1.0276  0.4557  0.6393
19285SOL    HW262703   1.814   4.964   6.814 -0.7569 -1.3521 -0.4076
19286SOL     OW62704   1.030   6.528   5.118  0.2556  0.2949  0.2605
19286SOL    HW162705   1.071   6.560   5.037 -0.0489  1.1797  0.4548
19286SOL    HW262706   0.942   6.501   5.091  0.1239  0.6713  0.3124
19287SOL     OW62707   2.788   2.811   8.713 -0.4597  0.2346 -0.1013
19287SOL    HW162708   2.838   2.859   8.781 -0.0426 -0.8871  0.4098
19287SOL    HW262709   2.801   2.719   8.735 -0.0603 -0.1761 -1.8979
19288SOL     OW62710   5.523   2.899   1.985 -0.2514 -0.5075  0.3185
19288SOL    HW162711   5.472   2.840   2.040 -1.9867 -2.3781 -3.0031
19288SOL    HW262712   5.595   2.845   1.952 -0.3771 -0.0381 -0.7536
19289SOL     OW62713   7.204   7.836   2.502 -0.1198 -0.1863  0.0346
19289SOL    HW162714   7.274   7.772   2.511 -1.6521 -1.8738  0.5976
19289SOL    HW262715   7.227   7.886   2.424  1.1714 -1.3578 -0.3749
19290SOL     OW62716   9.606   8.771   2.456  0.3550  0.4746 -0.5594
19290SOL    HW162717   9.647   8.837   2.400 -0.2284  0.1488 -1.3870
19290SOL    HW262718   9.643   8.688   2.426 -2.5313 -0.1094 -2.9449
19291SOL     OW62719   1.886   4.129   1.105  0.0107 -0.0123  0.0321
19291SOL    HW162720   1.864   4.086   1.188  1.1663  0.3894  0.5659
19291SOL    HW262721   1.819   4.197   1.095 -0.8884 -0.8882 -0.0193
19292SOL     OW62722   0.485   4.971   1.991 -0.5245 -0.3029  0.2276
19292SOL    HW162723   0.435   4.915   2.051 -1.1600  1.3954  1.3294
19292SOL    HW262724   0.439   5.055   1.993 -0.3332 -0.0666 -2.3627
19293SOL     OW62725   0.333   4.109   5.899 -0.2549  0.4999  0.9370
19293SOL    HW162726   0.278   4.034   5.920 -0.5307  1.1116  2.5112
19293SOL    HW262727   0.418   4.088   5.936 -0.0776  0.5663  0.5699
19294SOL     OW62728   8.166   8.401   3.508  0.4583 -0.9606 -0.2927
19294SOL    HW162729   8.152   8.379   3.415  1.3539  1.8945 -1.2025
19294SOL    HW262730   8.187   8.494   3.507  1.3474 -1.0536  2.7403
19295SOL     OW62731   3.900   0.993   1.290 -0.5154  0.4777  0.2051
19295SOL    HW162732   3.976   1.048   1.308 -1.0532  1.0706  0.6861
19295SOL    HW262733   3.919   0.910   1.335 -0.5166  0.9164  1.0352
19296SOL     OW62734   1.735   9.032   6.899  0.4103  0.5018  1.0203
19296SOL    HW162735   1.738   9.005   6.991 -2.1461  0.3150  1.1291
19296SOL    HW262736   1.699   9.121   6.900 -1.1718 -0.0680  0.2032
19297SOL     OW62737   0.616   7.006   2.952 -0.3992 -0.6445 -0.5951
19297SOL    HW162738   0.622   7.088   2.904  0.3513 -0.2376  0.1733
19297SOL    HW262739   0.657   6.942   2.894 -0.9613 -0.4859 -1.1818
19298SOL     OW62740   3.203   0.391   0.100 -0.1606 -0.2210 -0.3452
19298SOL    HW162741   3.220   0.415   0.191 -0.9458  2.0739 -0.7215
19298SOL    HW262742   3.203   0.296   0.099 -0.8831 -0.3163  2.2016
19299SOL     OW62743   4.618   5.017   3.428 -0.0564 -0.3128  0.8673
19299SOL    HW162744   4.579   5.029   3.342  0.8703 -1.8018  0.1863
19299SOL    HW262745   4.547   4.982   3.482 -0.5101  0.1462  0.5796
19300SOL     OW62746   7.819   2.300   5.047 -0.2592  0.0676  0.0417
19300SOL    HW162747   7.894   2.241   5.036  0.9265  1.1608  1.7403
19300SOL    HW262748   7.790   2.317   4.958  1.6984 -0.1907 -0.7123
19301SOL     OW62749   1.917   0.465   3.927  0.4367  0.0192  0.2078
19301SOL    HW162750   1.882   0.496   3.843  1.8659  0.4948 -0.2615
19301SOL    HW262751   1.843   0.424   3.971 -0.6341  0.8196 -0.7773
19302SOL     OW62752   7.797   8.985   8.574  0.3832  0.0958 -0.0065
19302SOL    HW162753   7.852   9.062   8.564  0.8218 -0.2519 -0.3057
19302SOL    HW262754   7.820   8.949   8.659 -2.0551  2.0329  1.6286
19303SOL     OW62755   3.904   2.166   6.588  0.5969  0.3206 -0.2245
19303SOL    HW162756   3.970   2.224   6.624 -0.6683  1.2594  0.7053
19303SOL    HW262757   3.909   2.178   6.493  1.9084  0.1583 -0.1880
19304SOL     OW62758   4.343   0.148   3.839  0.0944  0.6686 -0.8121
19304SOL    HW162759   4.381   0.235   3.826  0.6780  0.5517  0.0647
19304SOL    HW262760   4.388   0.112   3.915 -1.2582  0.2206 -0.1791
19305SOL     OW62761   5.259   4.957   4.780  0.6117  0.7982 -0.5053
19305SOL    HW162762   5.309   5.025   4.825 -2.3122  1.7169  1.6786
19305SOL    HW262763   5.236   4.895   4.849 -0.2720 -0.1788 -1.6295
19306SOL     OW62764   4.178   0.460   5.204  0.5385  0.5141  0.2393
19306SOL    HW162765   4.261   0.462   5.251 -0.4107 -0.3188  2.0851
19306SOL    HW262766   4.193   0.401   5.130  2.2003  2.1871 -0.8620
19307SOL     OW62767   8.087   1.336   4.384  0.5937 -0.1674  0.4369
19307SOL    HW162768   8.120   1.272   4.321  0.1002  0.5720 -0.6011
19307SOL    HW262769   8.161   1.351   4.444  1.5921  0.2123 -0.8401
19308SOL     OW62770   9.748   4.033   9.394  0.0187  0.3034 -0.7336
19308SOL    HW162771   9.728   4.100   9.329  1.5829  1.0092 -0.5412
19308SOL    HW262772   9.823   3.986   9.357  1.9086  1.6632  1.1352
19309SOL     OW62773   1.491   4.472   8.766  0.3623  0.1233  0.3541
19309SOL    HW162774   1.489   4.477   8.862  3.4575 -2.0786  0.6919
19309SOL    HW262775   1.412   4.423   8.743  0.7018 -1.3503  2.0609
19310SOL     OW62776   4.186   9.135   8.363 -0.1887 -0.4124  0.2638
19310SOL    HW162777   4.182   9.129   8.267 -2.8099  0.5638  0.2256
19310SOL    HW262778   4.134   9.060   8.393 -1.1892  0.4772  0.8188
19311SOL     OW62779   3.265   0.460   7.882  0.1401 -0.1994 -0.2009
19311SOL    HW162780   3.236   0.533   7.828  1.0988  0.9354  0.7509
19311SOL    HW262781   3.227   0.382   7.841 -2.6451  0.9831 -0.0917
19312SOL     OW62782   7.377   5.595   8.517  0.4978  0.2133 -0.3885
19312SOL    HW162783   7.362   5.566   8.427  0.7101  0.0750 -0.3815
19312SOL    HW262784   7.297   5.640   8.542  0.6700  0.7963 -0.8603
19313SOL     OW62785   5.324   0.505   1.964  0.3030 -0.3280  0.4794
19313SOL    HW162786   5.399   0.501   1.905  0.4478  0.6894  0.5658
19313SOL    HW262787   5.249   0.520   1.906  0.1050 -1.6098  0.3681
19314SOL     OW62788   6.381   6.066   8.460  0.1717 -0.5760  0.3642
19314SOL    HW162789   6.364   6.154   8.427  0.9362  0.4402  2.5269
19314SOL    HW262790   6.476   6.062   8.468  0.0897 -1.3234  1.0170
19315SOL     OW62791   6.475   1.938   5.790  0.3302  0.2237 -0.3351
19315SOL    HW162792   6.498   1.845   5.788 -0.0158  0.0686  1.3966
19315SOL    HW262793   6.548   1.979   5.837  0.7118  0.9169 -1.5118
19316SOL     OW62794   5.924   5.361   4.986  0.0508  0.1642  0.5484
19316SOL    HW162795   5.873   5.366   5.068 -0.1965 -0.7178  0.4581
19316SOL    HW262796   5.860   5.335   4.920  0.1943  1.1454  0.0047
19317SOL     OW62797   8.955   5.920   5.265 -0.0813 -0.0480 -0.3300
19317SOL    HW162798   8.986   5.917   5.174  0.4519 -2.6266 -0.1302
19317SOL    HW262799   9.023   5.971   5.311  1.4608 -1.5812 -0.8004
19318SOL     OW62800   1.280   4.186   6.958 -0.3349  0.8580 -0.5073
19318SOL    HW162801   1.299   4.149   7.044  0.6730 -2.1257 -1.9005
19318SOL    HW262802   1.311   4.276   6.964  0.1988  0.5970  2.0549
19319SOL     OW62803   3.331   3.266   4.225 -0.1483  0.6647 -0.0827
19319SOL    HW162804   3.278   3.275   4.145  0.2684  1.3017 -0.2949
19319SOL    HW262805   3.339   3.172   4.238  1.5484  0.4797 -1.9906
19320SOL     OW62806   0.175   1.269   7.144 -0.6717  0.1450 -0.0382
19320SOL    HW162807   0.171   1.363   7.164  3.1502  0.6174 -0.7144
19320SOL    HW262808   0.135   1.227   7.220 -0.2247  2.2737  1.4785
19321SOL     OW62809   8.569   4.080   7.052  0.0695 -0.2870  0.2074
19321SOL    HW162810   8.476   4.060   7.045 -0.0757 -0.1224  1.4810
19321SOL    HW262811   8.598   4.037   7.132  1.4003 -1.4181 -0.8310
19322SOL     OW62812   0.692   0.322   6.227 -0.1355  0.3833 -0.0596
19322SOL    HW162813   0.777   0.333   6.184 -0.7009 -1.3803 -1.7899
19322SOL    HW262814   0.629   0.357   6.164 -0.7160  2.4900  1.5728
19323SOL     OW62815   4.035   3.836   1.415 -0.0357 -0.0027 -0.0604
19323SOL    HW162816   4.024   3.900   1.485 -0.3083  0.4942 -0.5484
19323SOL    HW262817   4.053   3.889   1.337 -4.9518 -0.0708 -1.5697
19324SOL     OW62818   2.014   1.620   0.349 -0.2588 -0.1957 -0.1193
19324SOL    HW162819   2.005   1.526   0.335 -2.7626 -0.1458  0.6807
19324SOL    HW262820   2.075   1.628   0.423  0.9179 -1.0782 -0.9523
19325SOL     OW62821   9.572   9.330   7.086 -0.3132  0.0247  0.2345
19325SOL    HW162822   9.558   9.239   7.057 -0.8879  0.6348 -1.5456
19325SOL    HW262823   9.665   9.345   7.071  0.2719 -0.8637  2.4986
19326SOL     OW62824   5.273   3.121   4.388 -0.1651 -0.1964  0.2694
19326SOL    HW162825   5.360   3.085   4.375 -0.5763 -1.3048  0.4648
19326SOL    HW262826   5.214   3.047   4.370 -1.0157  0.2253  1.2409
19327SOL     OW62827   9.339   5.344   2.600  0.0242  0.0560 -0.1132
19327SOL    HW162828   9.369   5.421   2.649 -0.5805 -0.2794  0.8057
19327SOL    HW262829   9.352   5.271   2.660 -2.3064 -0.1523  0.2428
19328SOL     OW62830   8.556   6.228   6.503  0.2005  0.2004 -0.7912
19328SOL    HW162831   8.566   6.310   6.551 -0.9254 -0.0225 -0.1301
19328SOL    HW262832   8.645   6.203   6.477  0.6303  1.2154 -0.3105
19329SOL     OW62833   2.441   5.238   3.391  0.0272  0.0838 -0.4010
19329SOL    HW162834   2.346   5.231   3.386  0.0796 -0.2801 -1.0759
19329SOL    HW262835   2.457   5.324   3.429 -0.5845 -0.3881  1.0008
19330SOL     OW62836   2.187   1.455   5.679 -0.0164 -0.4776  0.4160
19330SOL    HW162837   2.224   1.371   5.653  1.3410  0.6322 -1.4581
19330SOL    HW262838   2.147   1.489   5.599 -0.2252  0.8105  1.0541
19331SOL     OW62839   4.024   5.735   8.322  0.3386  0.7571  0.3715
19331SOL    HW162840   4.112   5.764   8.301  0.6293 -1.2598 -1.5587
19331SOL    HW262841   4.027   5.639   8.315 -2.4175  0.7065 -1.8131
19332SOL     OW62842   4.580   8.346   6.813 -0.3991  0.4899  0.7373
19332SOL    HW162843   4.492   8.377   6.838  0.0781  1.2577  1.5253
19332SOL    HW262844   4.628   8.425   6.789 -0.4846 -0.0991 -1.6748
19333SOL     OW62845   1.006   8.704   4.496 -0.7367 -0.0404 -0.8542
19333SOL    HW162846   0.972   8.767   4.432 -0.0824  0.3547 -0.8185
19333SOL    HW262847   0.990   8.745   4.581 -0.3073  0.0881 -0.8313
19334SOL     OW62848   5.368   2.788   1.164  0.4131 -0.5361 -0.5511
19334SOL    HW162849   5.310   2.815   1.235  1.2883  1.2890 -0.4871
19334SOL    HW262850   5.440   2.851   1.166  1.3073 -1.4544 -2.0018
19335SOL     OW62851   8.953   0.039   4.697 -0.0058 -0.0108 -0.1560
19335SOL    HW162852   8.901   0.027   4.776  0.1260 -0.6847 -0.1678
19335SOL    HW262853   9.024  -0.025   4.705 -0.3920 -0.5842 -1.1457
19336SOL     OW62854   0.374   0.383   0.948 -0.1458  0.0892  0.2456
19336SOL    HW162855   0.418   0.437   1.014 -2.0288  1.8411  0.1764
19336SOL    HW262856   0.428   0.393   0.869 -0.7978  2.5863  0.0203
19337SOL     OW62857   0.810   0.154   7.166 -0.4979  0.1022 -0.0165
19337SOL    HW162858   0.749   0.102   7.114 -1.4282  1.5529 -0.4177
19337SOL    HW262859   0.774   0.243   7.166  0.3682  0.5189  1.6982
19338SOL     OW62860   7.135   2.239   1.219 -0.7384  0.5276 -0.2993
19338SOL    HW162861   7.093   2.282   1.294 -0.3834 -0.8201  0.7202
19338SOL    HW262862   7.068   2.236   1.152 -2.0315 -0.7527  0.9663
19339SOL     OW62863   1.252   5.695   1.410 -0.1937  0.4058 -0.0373
19339SOL    HW162864   1.245   5.750   1.332 -0.9022 -0.4811 -0.6225
19339SOL    HW262865   1.164   5.657   1.420  0.4261 -1.1120 -0.0494
19340SOL     OW62866   0.730   6.940   4.707 -0.0181 -0.1593  0.2121
19340SOL    HW162867   0.753   6.961   4.798  0.7298 -1.4696  0.3432
19340SOL    HW262868   0.711   7.025   4.668 -0.5640  0.4094  1.6477
19341SOL     OW62869   1.209   0.143   5.734  0.3490  0.5576 -0.2698
19341SOL    HW162870   1.137   0.177   5.787  1.1905  0.0534  1.2291
19341SOL    HW262871   1.166   0.109   5.655 -1.2110 -0.7777  1.0957
19342SOL     OW62872   4.442   8.381   5.070  0.4692 -0.2432  0.0471
19342SOL    HW162873   4.397   8.393   5.154  0.5333  0.0514  0.0372
19342SOL    HW262874   4.386   8.425   5.006  1.9490  2.2344  0.3527
19343SOL     OW62875   2.215   9.532   6.072 -0.1600 -0.4244  0.4881
19343SOL    HW162876   2.228   9.505   5.981 -0.3880  0.8300  0.0609
19343SOL    HW262877   2.129   9.498   6.095 -0.6691  0.3356 -0.2091
19344SOL     OW62878   2.204   3.241   0.547  0.2198 -0.2429 -0.0402
19344SOL    HW162879   2.124   3.259   0.497 -1.9299 -1.6190  2.5899
19344SOL    HW262880   2.215   3.146   0.541  1.4974 -0.1052 -0.1029
19345SOL     OW62881   2.417   4.196   5.263 -0.0379  0.2250  0.1157
19345SOL    HW162882   2.425   4.173   5.170  2.4905  1.7042 -0.1335
19345SOL    HW262883   2.479   4.137   5.306  0.2411  0.8648  0.5927
19346SOL     OW62884   7.419   3.306   1.923  0.1283 -0.2905  0.4446
19346SOL    HW162885   7.480   3.235   1.941 -1.2057 -1.7293 -0.4591
19346SOL    HW262886   7.454   3.348   1.844  0.6035 -0.3108  0.6427
19347SOL     OW62887   3.846   4.676   6.115 -0.1349 -0.4991  0.0045
19347SOL    HW162888   3.764   4.661   6.069  0.2672 -1.2017 -0.5068
19347SOL    HW262889   3.851   4.606   6.179  0.2909 -0.7585 -0.3027
19348SOL     OW62890   0.571   5.575   8.741 -0.0732  0.4705 -0.1477
19348SOL    HW162891   0.489   5.549   8.697 -0.0999  0.0497  0.1543
19348SOL    HW262892   0.628   5.604   8.669 -0.4912  0.7821 -0.3584
19349SOL     OW62893   3.351   0.156   2.969  0.1905  0.3051 -0.2267
19349SOL    HW162894   3.362   0.168   2.874 -0.7319 -3.1067 -0.8872
19349SOL    HW262895   3.269   0.201   2.989 -0.5278 -0.3941 -1.4532
19350SOL     OW62896   2.590   7.318   3.033 -0.5453  0.2699 -0.0227
19350SOL    HW162897   2.599   7.226   3.008 -1.5074 -0.4552  2.0378
19350SOL    HW262898   2.661   7.333   3.095  0.2048  1.2397 -1.0788
19351SOL     OW62899   8.529   2.958   9.311  0.6942 -0.1530  0.2242
19351SOL    HW162900   8.559   2.945   9.221  0.7165  0.4134  0.1466
19351SOL    HW262901   8.518   3.053   9.319  0.6176 -0.2089  0.7948
19352SOL     OW62902   6.172   1.166   7.700  0.1287 -0.2229  0.3447
19352SOL    HW162903   6.185   1.173   7.605  1.2638  0.6880  0.5507
19352SOL    HW262904   6.087   1.208   7.716 -0.8221 -1.7292 -0.4164
19353SOL     OW62905   6.678   6.813   4.015 -0.1139  0.3204  0.0457
19353SOL    HW162906   6.666   6.718   4.019  0.1023  0.2651 -0.5181
19353SOL    HW262907   6.613   6.848   4.076 -0.5500 -0.1641 -0.1309
19354SOL     OW62908   0.894   7.526   6.330 -0.1955  0.2861  0.4681
19354SOL    HW162909   0.941   7.555   6.408  0.0621  0.3330  0.2971
19354SOL    HW262910   0.887   7.604   6.276  1.0381 -0.0863 -0.2700
19355SOL     OW62911   6.726   2.534   7.254  0.0334  0.0400  0.5556
19355SOL    HW162912   6.789   2.467   7.228  1.6064  0.5876  2.6963
19355SOL    HW262913   6.757   2.614   7.210 -0.5528 -0.1561 -0.2341
19356SOL     OW62914   6.348   9.382   9.699  0.2248  0.4410  0.5474
19356SOL    HW162915   6.266   9.333   9.688  1.9420 -3.0162  1.5182
19356SOL    HW262916   6.364   9.421   9.613 -0.9534 -1.3791 -0.5875
19357SOL     OW62917   1.599   9.711   2.945 -0.0891 -0.0652 -0.0768
19357SOL    HW162918   1.598   9.799   2.984 -1.9639  0.5838 -1.4306
19357SOL    HW262919   1.667   9.716   2.878  1.2352 -0.3278  1.2054
19358SOL     OW62920   8.211   0.408   8.687 -0.0898  0.4505 -0.1764
19358SOL    HW162921   8.297   0.410   8.643  0.2702  1.5644  0.5403
19358SOL    HW262922   8.149   0.388   8.617  0.5329  1.6666 -1.1214
19359SOL     OW62923   9.588   5.800   4.424  0.3429  0.8734 -0.2578
19359SOL    HW162924   9.604   5.768   4.513 -1.3350  2.4840  0.6801
19359SOL    HW262925   9.542   5.728   4.380  1.0928  0.1077  0.1923
19360SOL     OW62926   0.112   0.876   1.974  0.0742  0.7102 -0.1125
19360SOL    HW162927   0.183   0.927   1.935  0.1994  0.5429 -0.1068
19360SOL    HW262928   0.063   0.841   1.899  1.7023 -1.5799 -0.2228
19361SOL     OW62929   8.209   3.298   3.082  0.3790 -0.4442 -0.1568
19361SOL    HW162930   8.259   3.322   3.004  1.3758 -0.4005  0.4860
19361SOL    HW262931   8.162   3.379   3.106  3.2566  0.8504  1.6515
19362SOL     OW62932   9.214   7.378   7.932  0.2256 -0.3002  0.5237
19362SOL    HW162933   9.156   7.408   7.861  0.0575 -0.4239  0.6097
19362SOL    HW262934   9.156   7.331   7.992  0.2824  0.1977  0.9800
19363SOL     OW62935   3.095   1.167   4.092 -0.2369 -0.0097  0.2282
19363SOL    HW162936   3.103   1.250   4.045  1.5110 -0.0199  0.4419
19363SOL    HW262937   3.075   1.192   4.182 -0.1970  0.1710  0.1868
19364SOL     OW62938   2.519   2.706   5.927  0.8025  0.1585 -0.0004
19364SOL    HW162939   2.567   2.623   5.933  1.9463  0.8831  1.1637
19364SOL    HW262940   2.531   2.748   6.012 -2.1942  0.2560  0.4947
19365SOL     OW62941   8.046   7.204   5.886  0.0568 -0.6516 -0.6900
19365SOL    HW162942   8.028   7.298   5.877 -0.5480 -0.8656 -1.8394
19365SOL    HW262943   7.979   7.162   5.834 -0.6591 -1.8155  1.0857
19366SOL     OW62944   3.508   9.535   1.697 -0.3603  0.6532  0.1710
19366SOL    HW162945   3.564   9.607   1.670  0.0481  0.4042  0.3446
19366SOL    HW262946   3.433   9.539   1.638 -0.7494  1.7301  0.7113
19367SOL     OW62947   7.495   7.727   2.621 -0.1624 -0.0910  0.1486
19367SOL    HW162948   7.463   7.763   2.704 -0.2137  0.7146 -0.2133
19367SOL    HW262949   7.579   7.687   2.644 -0.5831 -0.6696  0.7556
19368SOL     OW62950   7.496   5.456   1.584  0.2927 -0.1034  0.3380
19368SOL    HW162951   7.534   5.534   1.623 -0.8477 -0.4687  2.3308
19368SOL    HW262952   7.437   5.489   1.516  0.4510  0.7166  0.5869
19369SOL     OW62953   0.125   4.873   7.615  0.1818 -0.1765  0.3088
19369SOL    HW162954   0.081   4.806   7.562 -2.0425  2.1175 -0.9510
19369SOL    HW262955   0.208   4.889   7.569  0.7554 -1.9453  0.6224
19370SOL     OW62956   7.936   5.159   7.539  0.1229  0.5082 -0.7508
19370SOL    HW162957   7.961   5.181   7.449  0.6578  0.7402 -0.5432
19370SOL    HW262958   7.909   5.067   7.534  0.9486  0.2724 -0.9901
19371SOL     OW62959   7.114   6.143   8.561  0.1284 -0.0684 -0.2236
19371SOL    HW162960   7.187   6.094   8.522 -0.9980 -2.6162  0.6881
19371SOL    HW262961   7.064   6.175   8.486  2.0563  1.6843 -0.8686
19372SOL     OW62962   6.418   5.061   9.105 -0.0142 -0.0470  0.5713
19372SOL    HW162963   6.430   5.137   9.049 -0.3125 -0.3588  0.0800
19372SOL    HW262964   6.324   5.043   9.101 -0.0604 -0.0013  1.2653
19373SOL     OW62965   4.664   0.528   0.532 -0.0644  0.0219 -0.0246
19373SOL    HW162966   4.662   0.623   0.544 -0.2047 -0.0062  0.1782
19373SOL    HW262967   4.582   0.507   0.488 -0.4147 -0.1024  0.6679
19374SOL     OW62968   8.865   2.043   1.640  0.0642 -0.3207 -0.2796
19374SOL    HW162969   8.777   2.078   1.649 -0.0412 -0.7605  0.4989
19374SOL    HW262970   8.906   2.058   1.725  1.0962  0.8006 -0.9400
19375SOL     OW62971   6.111   8.506   0.544  0.0937  0.6030  0.0531
19375SOL    HW162972   6.168   8.516   0.468  0.8779 -1.4177  0.2925
19375SOL    HW262973   6.145   8.428   0.589  0.1829  2.1603  2.9307
19376SOL     OW62974   8.478   1.561   8.503  0.1779  0.1817  0.6309
19376SOL    HW162975   8.510   1.624   8.567 -0.0914 -0.3599  1.3059
19376SOL    HW262976   8.442   1.489   8.555  0.0776 -0.3300 -0.1245
19377SOL     OW62977   8.436   9.116   3.637 -0.3753 -0.9236  0.0492
19377SOL    HW162978   8.381   9.074   3.704 -0.1802 -2.7138 -0.8593
19377SOL    HW262979   8.525   9.090   3.659  0.0172  0.8150  0.6871
19378SOL     OW62980   6.099   6.646   9.109 -0.0348 -0.0819 -0.0609
19378SOL    HW162981   6.033   6.662   9.177 -0.1969  0.4236 -0.3342
19378SOL    HW262982   6.096   6.724   9.055  0.4756 -0.2564 -0.3386
19379SOL     OW62983   0.395   5.255   6.092 -0.8794 -0.3043  0.1748
19379SOL    HW162984   0.405   5.350   6.094 -0.9834 -0.2995  1.3075
19379SOL    HW262985   0.337   5.235   6.166 -0.4984 -1.2830  0.2300
19380SOL     OW62986   3.977   7.434   6.773  0.3288  0.4428 -0.1712
19380SOL    HW162987   4.034   7.449   6.698  0.0202  2.7195 -0.0124
19380SOL    HW262988   3.894   7.405   6.736  0.6947 -0.0872 -0.5840
19381SOL     OW62989   4.375   5.931   4.642 -0.9592 -0.5167 -0.2976
19381SOL    HW162990   4.422   6.008   4.611 -0.9537 -0.6209 -0.5474
19381SOL    HW262991   4.431   5.894   4.710 -0.7559 -0.5470 -0.4798
19382SOL     OW62992   0.127   4.919   2.722  0.3229 -0.4691  0.4621
19382SOL    HW162993   0.135   4.955   2.810 -2.2910  3.6342 -0.7436
19382SOL    HW262994   0.058   4.853   2.729  0.9004 -0.9907  1.5954
19383SOL     OW62995   5.695   8.651   0.071  0.3215  0.1503 -0.5288
19383SOL    HW162996   5.696   8.700  -0.010  0.3074  1.6910  0.3735
19383SOL    HW262997   5.682   8.560   0.044  1.9570  0.3916 -2.3492
19384SOL     OW62998   3.949   9.586   8.666  0.4331  0.8538 -0.0319
19384SOL    HW162999   3.853   9.588   8.676  0.3250 -0.1994 -0.6858
19384SOL    HW263000   3.982   9.607   8.753 -0.3891  1.3883  0.1695
19385SOL     OW63001   7.706   6.109   9.179 -0.5783  0.4714 -0.2127
19385SOL    HW163002   7.767   6.181   9.197 -0.1554  0.4761 -1.5504
19385SOL    HW263003   7.636   6.150   9.128 -0.4234 -0.0286 -0.8299
19386SOL     OW63004   0.419   2.781   8.783 -0.0900 -0.4901 -0.5680
19386SOL    HW163005   0.373   2.843   8.840 -2.0221 -0.8006 -1.7058
19386SOL    HW263006   0.461   2.720   8.843  0.2487  0.7781  0.5386
19387SOL     OW63007   2.967   6.577   3.996  0.2556  0.2260 -0.0398
19387SOL    HW163008   2.999   6.487   4.008 -1.2744 -0.3804 -0.3601
19387SOL    HW263009   2.902   6.571   3.926 -0.4818  1.4314  0.5068
19388SOL     OW63010   1.818   4.366   1.822 -0.0629 -0.3469  0.1117
19388SOL    HW163011   1.867   4.283   1.824  0.8925  0.2092  0.2242
19388SOL    HW263012   1.768   4.365   1.903  1.7148  0.2025  1.2815
19389SOL     OW63013   6.180   4.289   6.733  0.0721 -0.2116  0.2939
19389SOL    HW163014   6.086   4.306   6.725  0.0133  0.6532  2.2135
19389SOL    HW263015   6.221   4.366   6.694  0.0693 -1.3243 -2.0499
19390SOL     OW63016   6.795   6.565   2.726 -0.1359  0.2386  0.0015
19390SOL    HW163017   6.806   6.509   2.649 -0.8764  2.7088 -2.0769
19390SOL    HW263018   6.757   6.509   2.793  0.3649 -1.9865 -1.4900
19391SOL     OW63019   7.012   4.139   2.563 -0.3109  0.2194 -0.1391
19391SOL    HW163020   7.054   4.206   2.616  1.5395 -1.1229  0.1880
19391SOL    HW263021   7.022   4.058   2.614 -0.1979 -0.7607 -1.6474
19392SOL     OW63022   8.222   1.164   9.212  0.6224  0.0044  0.5572
19392SOL    HW163023   8.252   1.228   9.276  0.9068 -0.0993  0.5277
19392SOL    HW263024   8.199   1.087   9.264  0.8510 -0.0787  0.5381
19393SOL     OW63025   3.806   7.557   1.465 -0.2575  0.4549 -0.4745
19393SOL    HW163026   3.777   7.522   1.381  0.8290 -0.7428 -0.3898
19393SOL    HW263027   3.764   7.503   1.531  0.4636  0.0756 -0.3093
19394SOL     OW63028   4.795   9.577   6.181 -0.1618  0.2871  0.4897
19394SOL    HW163029   4.837   9.658   6.153 -1.5471  1.1158  0.7445
19394SOL    HW263030   4.862   9.531   6.230  0.5055  1.4920  0.7333
19395SOL     OW63031   3.434   4.367   6.801 -0.1862  0.0423  0.0620
19395SOL    HW163032   3.522   4.401   6.817 -0.4102  1.4603 -1.4826
19395SOL    HW263033   3.376   4.441   6.819 -0.7392  0.4163 -2.7238
19396SOL     OW63034   8.998   8.163   9.481  0.2984 -0.6438  0.2976
19396SOL    HW163035   9.074   8.122   9.522 -0.2283 -1.4342  0.4984
19396SOL    HW263036   8.923   8.136   9.535  0.2099  3.1561  2.3764
19397SOL     OW63037   0.104   1.629   2.230 -0.0289  0.0273 -0.0096
19397SOL    HW163038   0.080   1.705   2.283  1.8649  0.7742 -0.1571
19397SOL    HW263039   0.141   1.666   2.150  2.8343 -0.8952  0.7469
19398SOL     OW63040   9.647   8.459   7.409  0.0751  0.1434 -0.3395
19398SOL    HW163041   9.556   8.486   7.414  0.6648  2.3652 -0.8249
19398SOL    HW263042   9.691   8.508   7.478  0.8332 -1.4458  0.3791
19399SOL     OW63043   5.844   0.554   1.304  0.6113  0.4726 -0.5124
19399SOL    HW163044   5.830   0.569   1.210 -5.1355 -3.3512 -0.7627
19399SOL    HW263045   5.920   0.496   1.309  1.3507  1.1750 -2.7007
19400SOL     OW63046   4.400   2.391   4.304 -0.1935  0.0977  0.9280
19400SOL    HW163047   4.359   2.310   4.337 -1.9123  0.6462  0.2196
19400SOL    HW263048   4.387   2.388   4.210  3.3462 -0.7091  0.3192
19401SOL     OW63049   1.506   3.478   9.086 -0.0564  0.0255  0.1626
19401SOL    HW163050   1.432   3.531   9.117 -0.8405 -0.6390 -0.4879
19401SOL    HW263051   1.579   3.540   9.079 -0.8668  0.9685 -0.2989
19402SOL     OW63052   2.768   3.128   4.474 -0.0798 -0.3407  0.0208
19402SOL    HW163053   2.686   3.084   4.495  0.6725 -2.3049 -0.9606
19402SOL    HW263054   2.798   3.088   4.392  1.9817  0.1410  0.4713
19403SOL     OW63055   7.661   9.440   6.385  0.0692  0.1120 -0.1613
19403SOL    HW163056   7.595   9.509   6.385 -0.3269 -0.2602 -0.4806
19403SOL    HW263057   7.735   9.477   6.433  0.0537  0.9431 -0.7687
19404SOL     OW63058   3.181   6.952   0.514  0.5062  0.1487  0.2090
19404SOL    HW163059   3.105   7.003   0.487 -0.5591 -1.9276 -0.9307
19404SOL    HW263060   3.256   7.007   0.492 -0.5659  1.1106 -1.1988
19405SOL     OW63061   6.683   3.093   2.219  0.3079  0.1398  0.1614
19405SOL    HW163062   6.625   3.124   2.150  0.2228  0.2092  0.2617
19405SOL    HW263063   6.772   3.110   2.186  0.2736 -0.0666 -0.0373
19406SOL     OW63064   6.380   8.245   1.614  0.1695  0.1025 -0.3652
19406SOL    HW163065   6.416   8.157   1.610  0.4023 -0.1513  3.6829
19406SOL    HW263066   6.448   8.300   1.574  2.0136 -1.1097  0.9618
19407SOL     OW63067   6.405   4.273   8.938 -0.3402 -0.1379 -0.1494
19407SOL    HW163068   6.467   4.341   8.965  2.5809 -2.5566 -0.2385
19407SOL    HW263069   6.381   4.229   9.020  0.4566 -1.0331 -0.3689
19408SOL     OW63070   6.777   5.969   1.304  0.8331  0.7897  0.0481
19408SOL    HW163071   6.773   6.047   1.249  0.4716  0.0409 -1.0113
19408SOL    HW263072   6.763   6.001   1.393  1.9341  2.0920 -0.2108
19409SOL     OW63073   7.631   1.571   5.411 -0.9679  0.2044  0.6157
19409SOL    HW163074   7.701   1.601   5.470  0.8308 -1.3120 -0.6138
19409SOL    HW263075   7.591   1.497   5.457  0.8016 -1.3393 -0.1501
19410SOL     OW63076   6.793   4.761   0.749  0.3676 -0.5559 -0.0145
19410SOL    HW163077   6.824   4.688   0.695  0.4670 -0.7853  0.3490
19410SOL    HW263078   6.700   4.766   0.731  0.5306 -0.1401 -0.7870
19411SOL     OW63079   8.732   0.589   1.344 -0.0984 -0.1548  0.2670
19411SOL    HW163080   8.646   0.546   1.345  0.1347 -0.7353  2.8942
19411SOL    HW263081   8.724   0.660   1.409  1.1643  0.3138 -0.0633
19412SOL     OW63082   1.291   3.486   7.436  0.1288 -0.2724  0.1166
19412SOL    HW163083   1.236   3.554   7.396  1.0903 -0.5181 -1.7356
19412SOL    HW263084   1.340   3.532   7.504 -0.2268  0.5879 -0.1907
19413SOL     OW63085   3.252   1.412   1.956 -0.3947  0.0536 -0.1551
19413SOL    HW163086   3.176   1.399   2.014 -0.6646 -1.4628 -0.8206
19413SOL    HW263087   3.216   1.460   1.881 -0.7685 -0.9069 -0.5987
19414SOL     OW63088   2.481   0.452   6.524 -0.2954 -0.6905  0.4402
19414SOL    HW163089   2.502   0.496   6.606 -1.8253 -1.1136  1.1098
19414SOL    HW263090   2.499   0.516   6.456  1.5651 -0.5328  1.0314
19415SOL     OW63091   1.792   8.012   3.389 -0.4577  0.6928 -0.5365
19415SOL    HW163092   1.860   7.944   3.396 -0.6905  0.6268  1.8667
19415SOL    HW263093   1.714   7.965   3.360 -0.3294  0.1359 -0.0029
19416SOL     OW63094   4.959   2.213   2.320  0.3409  0.0766  0.1411
19416SOL    HW163095   5.035   2.262   2.289  0.8007  0.2196  1.4410
19416SOL    HW263096   4.944   2.147   2.253  1.3382  0.3296 -0.3444
19417SOL     OW63097   3.055   9.501   4.050  0.5182 -0.0317 -0.1588
19417SOL    HW163098   3.118   9.488   3.979  0.8270  1.3956 -0.1893
19417SOL    HW263099   3.041   9.414   4.087 -1.4195 -1.2605 -3.4026
19418SOL     OW63100   9.615   4.372   7.556  0.5139  0.4402 -0.5786
19418SOL    HW163101   9.678   4.300   7.557 -0.7598 -0.7120 -0.2010
19418SOL    HW263102   9.546   4.344   7.617 -0.0214  1.9717 -0.4522
19419SOL     OW63103   3.813   1.402   3.067 -0.1423  0.0254 -0.1685
19419SOL    HW163104   3.782   1.313   3.052 -2.1022 -0.6404  5.4140
19419SOL    HW263105   3.906   1.392   3.088 -0.5276 -0.8877  1.2063
19420SOL     OW63106   5.320   2.421   4.386 -0.1924  0.0079 -0.2201
19420SOL    HW163107   5.228   2.441   4.367  0.2868  0.3787 -2.4690
19420SOL    HW263108   5.362   2.507   4.392  0.0162 -0.1572  0.8876
19421SOL     OW63109   7.150   9.738   2.343 -1.0049 -0.0708 -0.4132
19421SOL    HW163110   7.118   9.733   2.432  0.7786  0.4992  0.3153
19421SOL    HW263111   7.096   9.806   2.302 -1.4178  0.1133  0.4150
19422SOL     OW63112   3.461   5.710   0.100  0.0289  0.1731 -0.2764
19422SOL    HW163113   3.524   5.646   0.068 -0.7745 -0.0872 -1.3887
19422SOL    HW263114   3.470   5.785   0.041 -1.0121 -0.0458 -0.7218
19423SOL     OW63115   6.385   0.750   3.527  0.0704  0.3922  0.0166
19423SOL    HW163116   6.399   0.690   3.601 -0.7467  0.2909  0.1021
19423SOL    HW263117   6.449   0.722   3.462 -1.0546 -1.3680 -0.4108
19424SOL     OW63118   7.933   5.195   9.338 -0.5219 -0.3370  0.2579
19424SOL    HW163119   8.010   5.248   9.358 -0.2173 -0.9145  0.6706
19424SOL    HW263120   7.860   5.244   9.375  0.0414 -1.4665  3.1221
19425SOL     OW63121   2.906   5.627   7.366  0.0038 -0.3724  0.7089
19425SOL    HW163122   2.855   5.704   7.341  1.8007  0.9983  1.0441
19425SOL    HW263123   2.978   5.626   7.303  0.2419 -1.5447  0.9854
19426SOL     OW63124   7.564   5.362   6.478  0.5813 -0.1438 -0.2609
19426SOL    HW163125   7.512   5.403   6.409  2.3858 -0.5295 -1.9572
19426SOL    HW263126   7.577   5.431   6.543  0.0445  0.6945 -1.0188
19427SOL     OW63127   9.584   6.082   1.557  0.3240  0.1352 -0.0831
19427SOL    HW163128   9.675   6.092   1.529  0.4291 -0.7105 -0.0885
19427SOL    HW263129   9.563   5.990   1.537 -0.9879  0.6750 -1.4060
19428SOL     OW63130   0.678   0.090   0.511  0.0267  0.4242 -0.1168
19428SOL    HW163131   0.617   0.017   0.519 -0.8751  0.7919 -2.8225
19428SOL    HW263132   0.660   0.144   0.589 -0.9310 -1.0031  0.6950
19429SOL     OW63133   8.896   3.317   0.744 -0.2058  0.5110 -0.2019
19429SOL    HW163134   8.816   3.288   0.701  0.8711  0.6441 -2.4319
19429SOL    HW263135   8.967   3.275   0.695  1.1585  1.4365  0.8671
19430SOL     OW63136   2.342   6.242   8.891  0.0335  0.0007  0.0015
19430SOL    HW163137   2.332   6.167   8.831 -1.3404 -1.1702  1.5992
19430SOL    HW263138   2.361   6.202   8.976 -0.3357  1.4853  0.8144
19431SOL     OW63139   6.774   5.673   9.252 -0.1548 -0.0385 -0.0657
19431SOL    HW163140   6.797   5.751   9.202  0.3790 -0.1419  0.0103
19431SOL    HW263141   6.858   5.639   9.283 -0.4347 -0.2703  0.4579
19432SOL     OW63142   2.928   0.449   0.160 -0.0710  0.0214  0.5851
19432SOL    HW163143   3.014   0.406   0.155  0.8672  1.9026 -0.8451
19432SOL    HW263144   2.879   0.412   0.087  0.5578  0.9524 -0.3377
19433SOL     OW63145   6.085   5.133   6.507 -0.1161  0.1428 -0.2248
19433SOL    HW163146   6.046   5.210   6.549 -2.1109 -1.1601  0.4719
19433SOL    HW263147   6.069   5.146   6.414 -1.8357 -0.0953  0.0068
19434SOL     OW63148   8.980   7.741   1.031 -0.3250  0.2773  0.2293
19434SOL    HW163149   8.904   7.734   1.089 -0.1914  0.8100  0.4695
19434SOL    HW263150   8.989   7.653   0.994 -2.0391  0.5838 -1.0486
19435SOL     OW63151   1.326   8.221   5.257  0.5961  0.0846 -0.3688
19435SOL    HW163152   1.350   8.299   5.307  1.4025 -0.7928  0.6663
19435SOL    HW263153   1.402   8.163   5.266 -0.0120 -0.8440 -1.0651
19436SOL     OW63154   8.781   1.559   8.027 -0.0693  0.3360  0.0451
19436SOL    HW163155   8.704   1.551   8.082 -1.3457 -0.4188 -1.7448
19436SOL    HW263156   8.747   1.556   7.937  1.8722  1.8624 -0.8137
19437SOL     OW63157   8.382   0.325   7.144  0.0981  0.2514 -0.2975
19437SOL    HW163158   8.325   0.402   7.147 -0.2456 -0.0017 -0.3535
19437SOL    HW263159   8.469   0.360   7.123  0.0685  0.6968  0.2808
19438SOL     OW63160   8.760   2.492   3.168 -0.2615  0.0722 -0.0942
19438SOL    HW163161   8.676   2.469   3.210 -0.7725 -0.6763 -1.4714
19438SOL    HW263162   8.825   2.444   3.219 -0.7675 -0.0987  0.4088
19439SOL     OW63163   6.691   6.457   1.855  0.2359 -0.3037  0.0438
19439SOL    HW163164   6.665   6.367   1.839 -3.5604  0.9023 -1.7840
19439SOL    HW263165   6.758   6.475   1.789 -0.7509 -1.1401 -1.2310
19440SOL     OW63166   8.436   9.003   1.412 -0.1441 -0.2577  0.0330
19440SOL    HW163167   8.387   9.084   1.402 -1.1068 -0.7281  0.7318
19440SOL    HW263168   8.485   9.014   1.494  0.8879  0.1853 -0.6300
19441SOL     OW63169   1.296   9.457   8.454 -0.5297 -0.0977  0.5396
19441SOL    HW163170   1.238   9.441   8.379  0.0970 -0.6906  0.1635
19441SOL    HW263171   1.237   9.476   8.527 -1.2314 -1.3834  0.3364
19442SOL     OW63172   4.793   2.504   1.199 -0.3299  0.2936 -0.2295
19442SOL    HW163173   4.799   2.425   1.253  1.1949  0.0601 -0.7196
19442SOL    HW263174   4.810   2.576   1.261  2.6423 -0.0404 -0.5440
19443SOL     OW63175   8.223   8.136   9.026 -0.5172 -0.5822 -0.1257
19443SOL    HW163176   8.310   8.117   9.061  0.1494  0.9825 -0.8745
19443SOL    HW263177   8.175   8.171   9.101 -0.2309 -0.6246  0.0806
19444SOL     OW63178   7.563   7.886   7.689 -0.0126 -0.3155  0.0178
19444SOL    HW163179   7.655   7.867   7.668  0.4451  1.7103 -0.0184
19444SOL    HW263180   7.521   7.894   7.603  0.1111  0.1620 -0.0031
19445SOL     OW63181   4.317   2.595   7.898  0.5402  0.1512 -0.1614
19445SOL    HW163182   4.398   2.645   7.914 -0.2819  0.6782  3.1541
19445SOL    HW263183   4.248   2.648   7.939 -1.5406 -0.3928 -2.6885
19446SOL     OW63184   0.557   2.304   6.500  0.3562  0.0101 -0.2291
19446SOL    HW163185   0.503   2.284   6.576 -0.6260 -0.0910 -0.9249
19446SOL    HW263186   0.601   2.221   6.480 -1.4298 -0.7501 -1.3274
19447SOL     OW63187   5.460   6.114   2.203 -0.5187 -0.2740  0.3926
19447SOL    HW163188   5.452   6.045   2.137 -0.8317  0.2783 -0.1669
19447SOL    HW263189   5.515   6.180   2.161 -1.4270  0.4680  0.3501
19448SOL     OW63190   2.445   1.653   2.271  0.2986 -0.4765 -0.4275
19448SOL    HW163191   2.431   1.623   2.181 -1.2200 -0.4722 -0.2255
19448SOL    HW263192   2.514   1.596   2.305  0.3413 -0.9969 -1.3454
19449SOL     OW63193   0.868   1.666   8.897 -0.9241  0.3771  0.2358
19449SOL    HW163194   0.885   1.757   8.873  3.0241 -0.4406 -0.7523
19449SOL    HW263195   0.835   1.626   8.817  0.8693  0.2103 -0.4573
19450SOL     OW63196   0.178   2.939   7.747  0.3447  0.8650  0.4085
19450SOL    HW163197   0.101   2.941   7.690  0.7024  0.2714 -0.0982
19450SOL    HW263198   0.249   2.972   7.692  0.6449  0.5101  0.5825
19451SOL     OW63199   2.185   4.389   7.324 -0.0427 -0.6415  0.0829
19451SOL    HW163200   2.224   4.354   7.404  0.3085 -0.5130 -0.0289
19451SOL    HW263201   2.096   4.414   7.349  0.2500 -0.0619  0.5741
19452SOL     OW63202   6.667   2.392   3.981  0.6167  0.0899 -0.2612
19452SOL    HW163203   6.712   2.387   4.065  2.0556  0.4597 -0.9811
19452SOL    HW263204   6.575   2.375   4.002  1.1531 -1.2479  1.1850
19453SOL     OW63205   8.829   8.442   9.609 -0.4145  0.0413 -0.2081
19453SOL    HW163206   8.748   8.449   9.659 -1.3263  2.2437 -1.8498
19453SOL    HW263207   8.894   8.416   9.674 -1.8998  0.9350  1.7513
19454SOL     OW63208   7.746   9.272   1.469 -0.0432 -0.0828 -0.3728
19454SOL    HW163209   7.727   9.325   1.546  1.7251 -0.9038  0.6710
19454SOL    HW263210   7.672   9.211   1.463 -0.6343  0.5715  0.1331
19455SOL     OW63211   2.021   4.694   7.195 -0.1976 -0.2492 -0.0865
19455SOL    HW163212   2.098   4.704   7.139 -0.6773 -0.4795 -0.8000
19455SOL    HW263213   2.032   4.608   7.236 -0.7857 -0.9440 -1.3284
19456SOL     OW63214   2.914   6.168   1.398 -0.2623 -0.0599  0.7867
19456SOL    HW163215   2.934   6.257   1.369 -1.0655 -0.3583 -0.8207
19456SOL    HW263216   2.826   6.175   1.436  0.2454  0.0742  1.9808
19457SOL     OW63217   4.647   4.010   3.599  0.0127  0.2669 -0.5983
19457SOL    HW163218   4.660   4.105   3.602 -0.2091  0.2784  0.3175
19457SOL    HW263219   4.634   3.990   3.506 -2.1668  1.4410 -0.6209
19458SOL     OW63220   0.883   8.423   8.524 -0.2767  0.3296 -0.8992
19458SOL    HW163221   0.922   8.342   8.557 -1.1768  0.1541 -0.2071
19458SOL    HW263222   0.852   8.401   8.437 -2.3589 -0.7349  0.0275
19459SOL     OW63223   5.595   2.485   6.731 -0.4744 -0.4423 -0.2658
19459SOL    HW163224   5.522   2.542   6.756  0.1559  0.4150 -0.3370
19459SOL    HW263225   5.640   2.466   6.813 -0.1463 -0.0811 -0.3629
19460SOL     OW63226   3.315   8.512   4.408  1.0571 -0.3203 -0.4924
19460SOL    HW163227   3.248   8.450   4.382  0.5168  0.1002 -0.1275
19460SOL    HW263228   3.397   8.474   4.376  0.7118 -1.0976 -0.4709
19461SOL     OW63229   2.547   2.158   8.943  0.6706 -0.3002  0.0992
19461SOL    HW163230   2.585   2.191   9.024  0.0063  0.6329  0.0438
19461SOL    HW263231   2.594   2.204   8.873 -0.3457  0.6597  0.0243
19462SOL     OW63232   5.944   5.889   5.477 -0.2520  0.4333  0.3404
19462SOL    HW163233   5.934   5.979   5.511 -0.3240  0.8807 -0.8230
19462SOL    HW263234   5.855   5.856   5.470 -0.3514  0.9168 -0.8774
19463SOL     OW63235   2.442   4.187   3.265  0.2582  0.3306  0.3606
19463SOL    HW163236   2.389   4.267   3.256  0.4965  0.3990 -0.6083
19463SOL    HW263237   2.403   4.141   3.339 -0.3739  0.9734  0.4502
19464SOL     OW63238   4.898   8.925   9.229  0.6207 -0.6376  0.1618
19464SOL    HW163239   4.929   8.952   9.315  0.0962 -0.3653  0.2697
19464SOL    HW263240   4.934   8.990   9.169 -0.9465  0.5919  0.4609
19465SOL     OW63241   6.077   8.289   8.231  0.4312  0.0708  0.0160
19465SOL    HW163242   6.121   8.237   8.164  1.0179 -0.2928  0.6777
19465SOL    HW263243   6.024   8.352   8.181  1.4281  0.2964 -0.7964
19466SOL     OW63244   5.077   2.123   4.794 -0.0866 -0.4678  0.1775
19466SOL    HW163245   5.140   2.112   4.866  0.5202  2.9198  0.3225
19466SOL    HW263246   5.080   2.040   4.747  1.7191 -1.7369  2.3273
19467SOL     OW63247   6.493   3.491   4.297  0.5135 -0.0800  0.3007
19467SOL    HW163248   6.513   3.408   4.252 -2.1368 -0.1004 -1.0601
19467SOL    HW263249   6.460   3.548   4.228  1.1702  1.7333  1.4307
19468SOL     OW63250   5.479   1.967   0.693 -0.7069  0.1339  0.0815
19468SOL    HW163251   5.390   1.931   0.696  0.1304 -2.0390  1.0919
19468SOL    HW263252   5.517   1.942   0.777  0.4255  2.3183  0.2727
19469SOL     OW63253   7.042   2.730   1.614  0.0948 -0.2672 -0.1146
19469SOL    HW163254   7.125   2.701   1.577  0.7346  0.4794  0.6997
19469SOL    HW263255   7.049   2.710   1.708 -0.3642  0.4291  0.0769
19470SOL     OW63256   9.683   4.149   0.277  0.0395 -0.6494  0.6763
19470SOL    HW163257   9.707   4.121   0.365 -1.1082 -1.8970  0.6225
19470SOL    HW263258   9.589   4.132   0.271 -0.5284  2.1499  0.2001
19471SOL     OW63259   9.739   2.958   6.923  0.3494  0.0390  0.0170
19471SOL    HW163260   9.684   2.885   6.896  0.4289  0.3850 -1.1108
19471SOL    HW263261   9.791   2.922   6.996 -1.4786 -0.2219  1.2651
19472SOL     OW63262   9.674   9.676   3.784  0.0746  0.3479  0.8000
19472SOL    HW163263   9.659   9.671   3.689  5.8985 -0.7503 -0.4609
19472SOL    HW263264   9.667   9.586   3.814 -0.1885  0.4581  1.0675
19473SOL     OW63265   5.078   1.672   8.553 -0.4256  0.4525 -0.2732
19473SOL    HW163266   5.000   1.718   8.522 -1.0524  0.0171  0.6227
19473SOL    HW263267   5.145   1.740   8.560 -1.1941  1.1389  0.5280
19474SOL     OW63268   3.179   9.327   0.777 -0.2529  0.6249 -0.4330
19474SOL    HW163269   3.225   9.387   0.718 -0.8712  1.4928 -0.0656
19474SOL    HW263270   3.248   9.271   0.813  0.8766  3.0728  1.5042
19475SOL     OW63271   9.229   5.868   7.400 -0.6174  0.1675  0.0858
19475SOL    HW163272   9.195   5.790   7.357  0.3260 -0.7020  0.8625
19475SOL    HW263273   9.286   5.909   7.334  1.9224 -1.8965  0.8278
19476SOL     OW63274   3.636   7.869   9.451 -0.5923  0.6259 -0.1745
19476SOL    HW163275   3.680   7.795   9.493 -0.7227  0.3611 -0.5015
19476SOL    HW263276   3.675   7.946   9.492  3.9908  0.6940 -3.8226
19477SOL     OW63277   7.859   9.489   6.088 -0.0302  0.0431  0.1812
19477SOL    HW163278   7.930   9.426   6.077 -0.4951 -0.1813 -1.9306
19477SOL    HW263279   7.784   9.436   6.118  0.4348  0.1511  1.5985
19478SOL     OW63280   6.856   6.248   6.217  0.1379 -0.0863  0.7034
19478SOL    HW163281   6.848   6.187   6.290  0.1490 -1.4620 -0.4089
19478SOL    HW263282   6.768   6.284   6.206 -0.7863 -2.5738 -0.8273
19479SOL     OW63283   0.120   3.000   4.878  0.2474  0.9082  0.5378
19479SOL    HW163284   0.026   2.992   4.896  0.3260  1.6449  1.3718
19479SOL    HW263285   0.128   3.083   4.831  0.5121  1.0007  0.7434
19480SOL     OW63286   5.031   7.907   8.364 -0.2173  0.0842  0.0909
19480SOL    HW163287   5.075   7.858   8.294  0.2430 -0.6042  0.8329
19480SOL    HW263288   4.965   7.960   8.319 -0.3393 -0.7931 -0.8071
19481SOL     OW63289   9.113   0.458   8.907 -0.3442  0.2693  0.3965
19481SOL    HW163290   9.071   0.535   8.870 -4.5894 -1.3181  1.3380
19481SOL    HW263291   9.129   0.481   8.998 -0.4052  0.4658  0.3575
19482SOL     OW63292   6.882   4.627   1.926  0.6312 -0.8156  0.7956
19482SOL    HW163293   6.906   4.718   1.910  1.1839 -0.8969  1.1300
19482SOL    HW263294   6.844   4.597   1.844  0.5992 -0.3301  0.6313
19483SOL     OW63295   7.770   0.318   8.202 -0.2624 -0.0109 -0.0324
19483SOL    HW163296   7.785   0.348   8.292  1.0590 -1.7470  0.3840
19483SOL    HW263297   7.855   0.330   8.159 -0.0848 -1.7373 -0.2248
19484SOL     OW63298   5.682   1.951   5.423  0.2812  0.0982 -0.7339
19484SOL    HW163299   5.753   1.992   5.473  0.2879 -0.4493 -0.2822
19484SOL    HW263300   5.606   2.008   5.438 -0.0191 -0.6527  0.8626
19485SOL     OW63301   2.626   8.986   5.417 -0.9294 -0.2233 -0.2445
19485SOL    HW163302   2.628   9.040   5.496 -0.7415  0.1119 -0.4770
19485SOL    HW263303   2.706   8.934   5.421 -0.7162  0.0909 -0.4208
19486SOL     OW63304   2.644   4.148   7.636 -0.1123  0.0330 -0.2766
19486SOL    HW163305   2.629   4.193   7.718  0.4456  0.3041 -0.3156
19486SOL    HW263306   2.685   4.213   7.579 -0.4837 -0.1507 -0.7675
19487SOL     OW63307   3.732   7.783   2.386 -0.4687 -0.1217 -0.1117
19487SOL    HW163308   3.771   7.870   2.376 -1.6433  0.6122  1.3262
19487SOL    HW263309   3.797   7.734   2.437  0.9046 -0.6481 -2.2342
19488SOL     OW63310   2.352   8.304   4.945  0.4578 -0.4919  0.1875
19488SOL    HW163311   2.326   8.238   4.881 -0.5337 -0.8412  0.9315
19488SOL    HW263312   2.323   8.387   4.908 -0.1425 -0.6969  0.1961
19489SOL     OW63313   2.616   7.509   3.644  0.4026 -0.2617  0.1833
19489SOL    HW163314   2.523   7.523   3.627  0.7835  1.6058 -0.6705
19489SOL    HW263315   2.620   7.427   3.693 -1.6531 -0.5352 -0.0287
19490SOL     OW63316   4.260   4.975   4.351 -0.0722  0.2900  0.2741
19490SOL    HW163317   4.334   4.917   4.370  0.8867  0.4127 -2.6530
19490SOL    HW263318   4.281   5.056   4.399  1.4214  0.1262 -0.0621
19491SOL     OW63319   7.304   1.196   7.130  0.4170  0.2116  0.7027
19491SOL    HW163320   7.303   1.251   7.052  1.3764 -1.0873 -0.2750
19491SOL    HW263321   7.220   1.150   7.129  1.0711 -1.0320 -0.5320
19492SOL     OW63322   6.573   0.058   7.758  0.6673 -0.1407 -0.1552
19492SOL    HW163323   6.521   0.084   7.834 -0.3360  0.1495 -0.9166
19492SOL    HW263324   6.660   0.095   7.775  0.6918 -0.7664  1.2051
19493SOL     OW63325   4.413   9.473   2.232 -0.0063 -0.1999  0.0774
19493SOL    HW163326   4.415   9.381   2.257  0.9971 -0.1668  0.1779
19493SOL    HW263327   4.440   9.519   2.312 -1.1066  0.2280  0.2123
19494SOL     OW63328   1.665   4.396   2.093 -0.2311 -0.2312  0.5650
19494SOL    HW163329   1.635   4.482   2.122  1.7063  0.7650 -0.1276
19494SOL    HW263330   1.755   4.390   2.126 -0.2032 -1.8227  0.2661
19495SOL     OW63331   8.454   0.272   3.710 -0.1719  0.3434 -0.2113
19495SOL    HW163332   8.531   0.264   3.766 -0.9264  0.8017  0.9193
19495SOL    HW263333   8.489   0.308   3.628  1.2714 -2.3089 -0.8580
19496SOL     OW63334   0.433   8.708   6.723  0.5185 -0.1126 -0.0172
19496SOL    HW163335   0.513   8.759   6.709  1.0017 -0.5868  0.8897
19496SOL    HW263336   0.379   8.727   6.647  0.7862  1.5397  0.1610
19497SOL     OW63337   5.766   8.519   2.070 -0.0559 -0.2948  0.0059
19497SOL    HW163338   5.693   8.579   2.063  0.9874  0.9660 -0.3869
19497SOL    HW263339   5.726   8.433   2.080 -1.6325  0.6414  2.9175
19498SOL     OW63340   2.820   6.229   4.666 -0.2594 -0.0679  0.2897
19498SOL    HW163341   2.742   6.284   4.659 -0.3894 -0.1601  0.9210
19498SOL    HW263342   2.893   6.288   4.645 -0.4954  0.0340 -0.2370
19499SOL     OW63343   7.599   5.282   7.277 -0.1124  0.8799 -0.4721
19499SOL    HW163344   7.585   5.374   7.301  0.3296  0.9613 -0.5245
19499SOL    HW263345   7.607   5.284   7.182 -2.1266  0.5264 -0.7010
19500SOL     OW63346   2.437   5.812   6.424 -0.4012 -0.6925 -0.0013
19500SOL    HW163347   2.390   5.732   6.399 -1.8024 -0.0461  0.4718
19500SOL    HW263348   2.426   5.817   6.519  1.8057 -1.2292  0.3315
19501SOL     OW63349   5.715   2.268   7.179  0.1572  0.3309 -0.5921
19501SOL    HW163350   5.799   2.311   7.199  0.6758  0.0988 -2.1337
19501SOL    HW263351   5.711   2.194   7.238  0.5856  0.8901  0.1564
19502SOL     OW63352   5.558   4.619   7.528 -0.6701  0.0074  1.2197
19502SOL    HW163353   5.634   4.664   7.565 -0.3357  0.0109  0.5474
19502SOL    HW263354   5.519   4.572   7.602  0.8939 -1.2563  1.2800
19503SOL     OW63355   5.598   4.458   0.809  0.0442  0.3027  0.5999
19503SOL    HW163356   5.548   4.394   0.860 -1.2713  0.6088 -0.2488
19503SOL    HW263357   5.548   4.539   0.816  0.6227  0.7254  0.0150
19504SOL     OW63358   2.667   4.021   7.368  0.0520  0.6668  0.2073
19504SOL    HW163359   2.741   4.031   7.308 -0.8013  0.1775 -0.9696
19504SOL    HW263360   2.625   4.107   7.369  0.6481  0.9630  0.9262
19505SOL     OW63361   8.108   5.618   4.849 -0.0646  0.0348 -0.0339
19505SOL    HW163362   8.185   5.594   4.797 -0.5502 -0.1521 -0.6733
19505SOL    HW263363   8.034   5.581   4.801 -0.4740 -0.7519  1.1573
19506SOL     OW63364   2.099   4.076   4.211 -0.3202  0.5258 -0.0998
19506SOL    HW163365   2.096   4.033   4.296 -2.2413  1.4930  0.3797
19506SOL    HW263366   2.126   4.007   4.150 -3.0093 -1.3958  0.6639
19507SOL     OW63367   4.096   9.204   9.217 -0.0390  0.3688 -0.1024
19507SOL    HW163368   4.037   9.131   9.203  0.7355 -0.5181  1.0758
19507SOL    HW263369   4.062   9.248   9.295 -0.9651  1.7836 -1.2522
19508SOL     OW63370   8.955   0.383   6.218 -0.4526  0.2433 -0.6111
19508SOL    HW163371   8.963   0.408   6.126  2.1037  1.4279 -0.1608
19508SOL    HW263372   8.961   0.288   6.218 -1.1677  0.1776 -1.6914
19509SOL     OW63373   2.415   7.100   7.367  0.3547  0.9204  0.1841
19509SOL    HW163374   2.436   7.116   7.275 -0.2267 -0.2553 -0.1679
19509SOL    HW263375   2.400   7.006   7.373  1.8981  0.7276  1.8201
19510SOL     OW63376   8.009   0.300   5.971 -0.3461  0.5053  0.3577
19510SOL    HW163377   8.036   0.223   5.920  3.3120  2.7687 -1.6014
19510SOL    HW263378   7.923   0.323   5.937 -0.2168 -1.0405 -1.1205
19511SOL     OW63379   3.021   7.075   8.068 -0.1992  0.2633  0.0166
19511SOL    HW163380   3.051   7.012   8.133  0.8059  1.2770  0.5801
19511SOL    HW263381   2.964   7.134   8.117  0.2328  0.7910 -0.1091
19512SOL     OW63382   0.667   3.208   3.075 -0.1284 -0.0476  0.1925
19512SOL    HW163383   0.741   3.226   3.017  0.3503 -0.2016  0.7460
19512SOL    HW263384   0.668   3.280   3.139 -0.8471  0.2957 -0.1745
19513SOL     OW63385   6.994   6.103   5.594  0.2205  0.1979  0.2003
19513SOL    HW163386   7.064   6.103   5.659 -0.4016 -0.8416  0.9006
19513SOL    HW263387   6.932   6.037   5.626 -0.9114  0.8586 -0.5764
19514SOL     OW63388   7.206   9.664   7.408  0.4650  0.7260  0.4136
19514SOL    HW163389   7.233   9.646   7.498 -2.2565 -2.6826  0.7776
19514SOL    HW263390   7.133   9.724   7.417 -0.7449 -0.7205  0.7274
19515SOL     OW63391   9.206   4.969   7.745 -0.9489  0.4821  0.4239
19515SOL    HW163392   9.242   4.943   7.661  1.2059  1.0664  1.1105
19515SOL    HW263393   9.250   5.051   7.766 -0.5236 -0.2416  2.6491
19516SOL     OW63394   8.058   6.691   3.514 -0.5697 -0.8029 -0.0223
19516SOL    HW163395   8.044   6.628   3.443  1.6313  0.2478 -1.4826
19516SOL    HW263396   7.987   6.755   3.503 -0.8689 -1.2211 -0.5849
19517SOL     OW63397   0.529   5.856   1.710 -0.2899  0.6823 -0.0719
19517SOL    HW163398   0.581   5.781   1.682  0.2572  1.3052 -0.7825
19517SOL    HW263399   0.506   5.837   1.801 -0.2875 -0.4045 -0.2830
19518SOL     OW63400   8.958   6.897   5.500 -0.0491 -0.0625  1.0159
19518SOL    HW163401   8.916   6.904   5.585  2.0341 -0.6502  2.1696
19518SOL    HW263402   9.052   6.892   5.520  0.6604  1.5895 -1.4014
19519SOL     OW63403   0.532   2.011   7.333 -0.1918 -0.2720  0.8093
19519SOL    HW163404   0.444   2.037   7.305  0.2090 -1.8544 -2.4001
19519SOL    HW263405   0.585   2.089   7.320 -0.5882 -0.1715 -0.4092
19520SOL     OW63406   8.930   9.471   8.015  0.6440 -0.3918 -0.6081
19520SOL    HW163407   8.938   9.376   8.011  2.1633 -0.2461 -2.4415
19520SOL    HW263408   8.862   9.493   7.952  0.8371 -0.2066 -0.7521
19521SOL     OW63409   0.415   2.581   9.382  0.0490  0.5803  0.1974
19521SOL    HW163410   0.460   2.665   9.378  1.2520 -0.0107  0.9273
19521SOL    HW263411   0.413   2.550   9.291 -0.9286  1.6461 -0.1619
19522SOL     OW63412   9.644   4.194   5.781 -0.1251  0.3739 -1.0842
19522SOL    HW163413   9.597   4.262   5.734 -0.6162  0.2098 -0.8462
19522SOL    HW263414   9.580   4.161   5.845  0.4434  0.4157 -0.4870
19523SOL     OW63415   1.018   9.131   1.284 -0.4520 -0.3614  0.9176
19523SOL    HW163416   1.100   9.158   1.243  0.0004  0.1491  2.0962
19523SOL    HW263417   1.010   9.190   1.360 -3.0012  1.0862 -0.3570
19524SOL     OW63418   3.303   5.070   8.568  0.3497 -0.1174 -0.4522
19524SOL    HW163419   3.320   5.156   8.529  1.5523 -0.5311 -0.8805
19524SOL    HW263420   3.381   5.052   8.621  0.2653 -1.0907 -0.6462
19525SOL     OW63421   6.911   0.776   4.550 -0.1091 -0.2582 -0.2737
19525SOL    HW163422   6.863   0.850   4.514 -2.0715 -1.5106 -0.3632
19525SOL    HW263423   6.914   0.794   4.644  0.4797  0.4897 -0.4241
19526SOL     OW63424   7.498   7.256   0.124  0.0975 -0.2902  0.0251
19526SOL    HW163425   7.408   7.262   0.090  0.4070  0.3235 -0.7031
19526SOL    HW263426   7.541   7.193   0.066  0.3907  0.1137 -0.1984
19527SOL     OW63427   0.637   3.442   4.819 -0.1046  0.1586 -0.0269
19527SOL    HW163428   0.676   3.382   4.755 -0.2859  0.8118 -0.7635
19527SOL    HW263429   0.683   3.423   4.901  1.1776  0.3119 -0.6836
19528SOL     OW63430   4.039   7.590   6.538  0.6836 -0.0350 -0.0288
19528SOL    HW163431   3.954   7.634   6.539  1.0639  0.8641 -2.1199
19528SOL    HW263432   4.101   7.658   6.565  1.0491  0.2096 -1.4010
19529SOL     OW63433   4.704   3.975   3.958 -0.1699 -0.3364 -0.1690
19529SOL    HW163434   4.675   3.885   3.970  1.3796 -0.8210  0.1109
19529SOL    HW263435   4.676   4.020   4.038 -2.1537 -0.1977 -0.8855
19530SOL     OW63436   1.387   9.415   9.462  0.3824  0.4471  0.4029
19530SOL    HW163437   1.305   9.461   9.446  0.1266 -0.2348 -0.2676
19530SOL    HW263438   1.447   9.484   9.492 -0.1133  1.1431 -0.1672
19531SOL     OW63439   8.810   0.203   8.604 -0.1771 -0.0208 -0.4157
19531SOL    HW163440   8.818   0.292   8.638 -2.0227 -0.6685  1.9940
19531SOL    HW263441   8.860   0.149   8.666 -1.2445 -0.9424 -0.3226
19532SOL     OW63442   2.981   6.226   1.701 -0.1078 -0.0370  0.0160
19532SOL    HW163443   2.941   6.313   1.709  1.9829  1.0343 -0.5415
19532SOL    HW263444   3.028   6.229   1.617  3.0538 -0.3181  1.6332
19533SOL     OW63445   7.296   3.748   8.028 -0.5231  0.2337 -0.1248
19533SOL    HW163446   7.299   3.830   8.077 -0.8156  0.8403 -1.1016
19533SOL    HW263447   7.339   3.768   7.945 -0.1617 -0.7364 -0.1820
19534SOL     OW63448   7.643   6.309   8.387 -0.0418  0.7251 -0.3810
19534SOL    HW163449   7.727   6.317   8.343 -0.1466  0.6037 -0.6075
19534SOL    HW263450   7.614   6.220   8.367 -0.1786  0.7333 -0.2244
19535SOL     OW63451   9.257   4.949   7.201  0.4313 -0.3945 -0.0521
19535SOL    HW163452   9.178   4.947   7.146 -0.4540 -2.9791  1.1559
19535SOL    HW263453   9.295   4.861   7.192  0.1894 -0.9916  3.4245
19536SOL     OW63454   6.117   0.231   3.698  0.0608 -0.1607 -0.2389
19536SOL    HW163455   6.178   0.299   3.668  0.9150 -0.7478  0.1230
19536SOL    HW263456   6.042   0.239   3.640  1.0628 -0.3218 -1.6183
19537SOL     OW63457   3.049   8.575   2.526 -0.0779 -0.4214  0.1834
19537SOL    HW163458   3.077   8.524   2.450  1.0947 -0.2665  0.4929
19537SOL    HW263459   3.126   8.625   2.551 -0.3955 -0.5756  1.5655
19538SOL     OW63460   9.518   3.386   7.462 -0.7645 -0.0339 -0.2594
19538SOL    HW163461   9.462   3.348   7.530 -1.4597  0.2661 -0.6545
19538SOL    HW263462   9.565   3.456   7.507 -2.0767  0.9370 -0.3207
19539SOL     OW63463   5.080   2.245   8.208  0.3283  0.1444 -0.3982
19539SOL    HW163464   5.034   2.237   8.292 -0.1427 -0.6783 -0.7192
19539SOL    HW263465   5.103   2.155   8.185  1.2487  0.4474 -0.7272
19540SOL     OW63466   8.673   5.466   8.809 -0.2098 -0.2933 -0.3580
19540SOL    HW163467   8.646   5.408   8.739 -0.7877 -1.6665  0.9423
19540SOL    HW263468   8.625   5.435   8.886 -0.9832  2.2685  0.2942
19541SOL     OW63469   6.913   4.443   6.120  0.1449  0.4199 -0.0650
19541SOL    HW163470   6.885   4.497   6.046  1.0518 -0.5570 -1.1497
19541SOL    HW263471   6.923   4.505   6.192 -1.5620  1.2693 -0.5089
19542SOL     OW63472   5.066   6.080   6.848  0.2303  0.4809  0.4221
19542SOL    HW163473   5.100   5.996   6.878  0.0012 -0.4107 -1.6966
19542SOL    HW263474   5.142   6.125   6.811 -0.3137 -0.5107 -2.0930
19543SOL     OW63475   7.414   2.251   3.256 -0.0611 -0.5470  0.0677
19543SOL    HW163476   7.389   2.344   3.262  0.8325 -0.3925  1.8701
19543SOL    HW263477   7.488   2.242   3.315  1.9896 -1.7541 -2.4746
19544SOL     OW63478   3.101   5.539   5.399 -0.0524  0.0509 -0.5335
19544SOL    HW163479   3.105   5.607   5.466 -1.5740  1.5723 -1.8462
19544SOL    HW263480   3.028   5.483   5.426  1.2388 -1.1608  0.5794
19545SOL     OW63481   9.637   7.756   6.436 -0.0740  0.2083 -0.1701
19545SOL    HW163482   9.686   7.676   6.457  0.4256  0.9472  1.7760
19545SOL    HW263483   9.566   7.727   6.380  0.9477 -1.3580 -0.7291
19546SOL     OW63484   7.819   3.986   6.932 -0.4508 -0.2640  0.1255
19546SOL    HW163485   7.749   3.991   6.997  0.7077 -0.4219  1.4347
19546SOL    HW263486   7.888   4.044   6.965 -0.5648  1.1776 -1.9609
19547SOL     OW63487   9.566   1.290   2.670  0.4201 -0.2629  0.2082
19547SOL    HW163488   9.502   1.316   2.603  0.9217 -4.0223 -2.0235
19547SOL    HW263489   9.515   1.281   2.750 -1.0545  0.3875 -0.6104
19548SOL     OW63490   2.910   0.914   1.404  0.2262 -0.3460 -0.0161
19548SOL    HW163491   2.994   0.867   1.408  0.1034 -0.6414 -0.7024
19548SOL    HW263492   2.929   0.994   1.355  0.0796 -0.4843 -0.3023
19549SOL     OW63493   3.787   3.412   8.383 -0.3582 -0.4306 -0.8600
19549SOL    HW163494   3.810   3.460   8.304 -0.3139  0.1256 -0.5091
19549SOL    HW263495   3.854   3.344   8.390  0.2957  0.2247 -0.6801
19550SOL     OW63496   3.132   0.465   5.230 -0.4415 -0.0797 -0.3089
19550SOL    HW163497   3.112   0.488   5.321  0.4856  0.1047 -0.1419
19550SOL    HW263498   3.127   0.370   5.227  0.1605 -0.1290  0.1010
19551SOL     OW63499   1.997   8.963   3.659  0.7036 -0.9710 -0.5208
19551SOL    HW163500   2.088   8.940   3.637  1.2034  0.5279 -0.1170
19551SOL    HW263501   1.967   9.015   3.585 -0.6113 -3.2338 -1.6882
19552SOL     OW63502   7.575   0.914   6.586 -0.4933 -0.0562  0.2056
19552SOL    HW163503   7.608   0.964   6.511 -2.3012  0.0405 -0.5601
19552SOL    HW263504   7.488   0.885   6.560 -0.2449 -2.0504  1.3740
19553SOL     OW63505   6.201   1.107   5.109 -0.0168 -0.0847 -0.5171
19553SOL    HW163506   6.140   1.179   5.126  0.0328  0.0196 -0.7723
19553SOL    HW263507   6.275   1.125   5.167  0.8903  1.1817 -1.9756
19554SOL     OW63508   5.636   6.585   7.177 -0.3664 -0.3218 -0.4145
19554SOL    HW163509   5.697   6.631   7.119 -2.0570  1.5708 -0.8023
19554SOL    HW263510   5.631   6.639   7.255 -2.2695  0.1462 -0.7956
19555SOL     OW63511   1.345   1.788   3.601  0.5061  0.2004  0.0314
19555SOL    HW163512   1.313   1.869   3.639 -0.4568 -0.7038  1.2212
19555SOL    HW263513   1.283   1.721   3.630  0.5985 -0.7970 -1.8937
19556SOL     OW63514   0.114   3.514   1.528 -0.0835  0.2541  0.8245
19556SOL    HW163515   0.191   3.571   1.527  0.8866 -1.0175  0.1300
19556SOL    HW263516   0.116   3.470   1.443 -2.1563  0.9057  0.3810
19557SOL     OW63517   3.087   3.218   4.705  0.1891 -0.2233 -0.2755
19557SOL    HW163518   3.010   3.177   4.744  0.0788 -0.3365 -0.6099
19557SOL    HW263519   3.097   3.300   4.752  0.3741 -0.5993  0.3603
19558SOL     OW63520   3.245   2.729   6.134  0.6307 -0.4840 -0.1938
19558SOL    HW163521   3.211   2.649   6.095  0.3740 -1.2123  1.4304
19558SOL    HW263522   3.210   2.729   6.223  1.5650  0.8527  0.2111
19559SOL     OW63523   9.285   1.500   3.300 -0.2626  0.0240 -0.7491
19559SOL    HW163524   9.214   1.555   3.334 -0.4917 -0.3967 -0.5263
19559SOL    HW263525   9.321   1.457   3.378 -1.4153 -1.6859 -1.1005
19560SOL     OW63526   6.753   8.332   0.752  0.2438 -0.2649 -0.1447
19560SOL    HW163527   6.791   8.343   0.839 -0.8016 -0.7444  0.3980
19560SOL    HW263528   6.742   8.237   0.743 -0.2708 -0.1716 -0.5111
19561SOL     OW63529   2.036   8.255   0.028  0.0379  0.2958  0.1211
19561SOL    HW163530   2.081   8.231  -0.053  1.1473  1.4495  0.3555
19561SOL    HW263531   2.106   8.269   0.092 -0.6466  1.8839  0.5845
19562SOL     OW63532   8.494   7.669   8.733  0.2898 -0.2591 -0.3167
19562SOL    HW163533   8.498   7.718   8.815 -0.1427 -1.2159  0.2915
19562SOL    HW263534   8.492   7.736   8.665  2.3960  0.5613  0.3366
19563SOL     OW63535   3.369   9.405   4.163 -0.0654  0.1290  0.5120
19563SOL    HW163536   3.420   9.326   4.179 -1.1881 -0.4679  1.3219
19563SOL    HW263537   3.282   9.385   4.198  0.0440  2.2966  2.3089
19564SOL     OW63538   1.552   4.983   7.871  0.1132  0.4407 -0.0659
19564SOL    HW163539   1.566   5.002   7.779 -1.3780  1.3712 -0.1377
19564SOL    HW263540   1.477   4.923   7.872 -2.4981  3.4440  0.6123
19565SOL     OW63541   3.846   1.829   3.983 -0.1085  0.1232 -0.3694
19565SOL    HW163542   3.863   1.735   3.989 -0.5868  0.0522 -0.0188
19565SOL    HW263543   3.760   1.835   3.942 -0.0294  0.4122 -0.4941
19566SOL     OW63544   8.127   1.864   5.043 -0.6861 -0.3999 -0.2824
19566SOL    HW163545   8.126   1.777   5.005  1.2088  0.8084 -3.5804
19566SOL    HW263546   8.048   1.906   5.009 -0.6158 -0.2786 -0.2963
19567SOL     OW63547   1.895   0.977   0.135  0.5894  0.0818  0.0779
19567SOL    HW163548   1.873   0.888   0.106 -1.5586  0.4636  0.3945
19567SOL    HW263549   1.934   0.964   0.222 -0.4005 -0.5134  0.4483
19568SOL     OW63550   5.264   0.441   2.615 -0.2052 -0.1637  0.1834
19568SOL    HW163551   5.320   0.364   2.622  1.0970  0.8062  0.8976
19568SOL    HW263552   5.221   0.432   2.530 -0.1860 -1.7340  0.3235
19569SOL     OW63553   7.803   2.978   7.482  0.3832  0.6060 -0.2513
19569SOL    HW163554   7.762   3.045   7.537 -0.4228  2.1469 -2.5858
19569SOL    HW263555   7.750   2.899   7.496 -0.6824  1.3635  0.0787
19570SOL     OW63556   9.330   6.302   6.755  0.1612 -0.3271  0.0118
19570SOL    HW163557   9.248   6.253   6.756  0.3794 -0.6967 -0.2128
19570SOL    HW263558   9.348   6.318   6.663 -1.0318  2.0847  0.0955
19571SOL     OW63559   8.222   1.524   3.153 -0.0245 -0.1095  0.6210
19571SOL    HW163560   8.227   1.430   3.140 -1.0214 -0.1700  0.6211
19571SOL    HW263561   8.313   1.554   3.147  0.3447 -1.1168  1.0377
19572SOL     OW63562   8.994   2.894   5.550 -0.0609  0.0762 -0.4771
19572SOL    HW163563   9.025   2.906   5.639 -0.6657  0.3059 -0.2896
19572SOL    HW263564   8.899   2.882   5.559 -0.1656  0.3889 -1.1100
19573SOL     OW63565   2.540   1.388   2.575  0.3302  0.2393  0.2974
19573SOL    HW163566   2.610   1.414   2.515 -0.7242  1.5809 -0.4215
19573SOL    HW263567   2.463   1.379   2.519 -0.5374  0.9011  1.3367
19574SOL     OW63568   6.451   0.388   4.462 -0.5578 -0.2088 -0.0262
19574SOL    HW163569   6.456   0.419   4.372 -1.1510 -0.7154 -0.2399
19574SOL    HW263570   6.389   0.448   4.504  0.4496  0.6303  0.3150
19575SOL     OW63571   9.573   6.155   0.998  0.0427 -0.1851 -0.5080
19575SOL    HW163572   9.618   6.182   0.919 -0.4695  2.0279 -0.1125
19575SOL    HW263573   9.480   6.169   0.979 -0.4666 -3.1608 -0.7549
19576SOL     OW63574   6.761   2.086   9.482  0.1718  0.1913  0.2057
19576SOL    HW163575   6.727   2.173   9.462  1.1178  0.5563  0.1374
19576SOL    HW263576   6.818   2.065   9.407 -0.7804 -0.8872 -0.2363
19577SOL     OW63577   3.516   7.601   6.609 -0.3661  0.0469 -0.6921
19577SOL    HW163578   3.559   7.678   6.647 -0.0090 -0.6957  0.4758
19577SOL    HW263579   3.445   7.636   6.556 -0.7960  1.1546  0.5663
19578SOL     OW63580   2.142   8.093   7.165 -0.0167 -0.1690 -0.7709
19578SOL    HW163581   2.122   8.186   7.151  1.9041  0.4643  0.2435
19578SOL    HW263582   2.099   8.071   7.247 -0.0419 -0.0078 -0.7399
19579SOL     OW63583   6.748   4.366   2.623 -0.7751  0.0607 -0.3457
19579SOL    HW163584   6.796   4.392   2.544 -0.3452 -0.0502 -0.1277
19579SOL    HW263585   6.758   4.440   2.683 -1.2484  0.2159 -0.4614
19580SOL     OW63586   1.655   6.891   3.488 -0.2365 -0.4084  0.2012
19580SOL    HW163587   1.642   6.877   3.394  0.0146 -1.2164  0.2753
19580SOL    HW263588   1.570   6.921   3.520  0.2004  1.9515 -0.6274
19581SOL     OW63589   0.679   0.407   9.697 -0.1510 -0.6522  0.1892
19581SOL    HW163590   0.713   0.405   9.786  0.2598 -0.9767  0.0303
19581SOL    HW263591   0.621   0.331   9.691 -0.8739 -0.1325  0.4419
19582SOL     OW63592   5.922   8.700   1.874 -0.5818 -0.2101  0.1555
19582SOL    HW163593   5.951   8.792   1.875  0.6399 -0.5721 -0.3816
19582SOL    HW263594   5.878   8.688   1.958  0.3031  0.5543  0.7508
19583SOL     OW63595   5.032   6.862   2.416 -0.1627 -0.1192  0.1970
19583SOL    HW163596   5.063   6.874   2.505  0.5899  0.3301 -0.1128
19583SOL    HW263597   5.110   6.838   2.366 -0.4891  0.0474 -0.4127
19584SOL     OW63598   6.768   6.130   0.349 -0.7638  0.4833  0.0918
19584SOL    HW163599   6.779   6.216   0.391  0.1999 -0.1571  1.2229
19584SOL    HW263600   6.822   6.135   0.270  0.3330  0.5245  0.8125
19585SOL     OW63601   1.580   8.342   3.451  0.2680  0.1723  0.6194
19585SOL    HW163602   1.504   8.380   3.495 -0.3674 -0.1411 -0.1860
19585SOL    HW263603   1.589   8.255   3.488  0.9344  0.6126  1.5283
19586SOL     OW63604   2.317   0.734   6.793 -0.4396 -0.4746  0.0395
19586SOL    HW163605   2.317   0.817   6.840 -2.9238  0.0485 -0.7206
19586SOL    HW263606   2.224   0.715   6.778  0.0501 -3.2915 -0.0123
19587SOL     OW63607   8.727   3.791   0.520 -0.5102  0.1712  0.0348
19587SOL    HW163608   8.702   3.701   0.542  0.3623  0.0329  0.5043
19587SOL    HW263609   8.819   3.785   0.493 -0.3575  0.9541  0.3398
19588SOL     OW63610   2.689   2.750   0.673 -0.2618 -0.7331 -0.2085
19588SOL    HW163611   2.735   2.830   0.699  0.0247 -0.6142 -1.0589
19588SOL    HW263612   2.694   2.693   0.750 -1.4470  0.4725  0.8137
19589SOL     OW63613   8.802   4.312   9.133  0.0351 -0.1124  0.0554
19589SOL    HW163614   8.737   4.346   9.071  0.2119  0.6063  0.2600
19589SOL    HW263615   8.767   4.227   9.159  0.6026 -1.0572 -2.0405
19590SOL     OW63616   7.202   7.165   2.492  0.3363 -0.8570  0.4594
19590SOL    HW163617   7.202   7.257   2.515 -1.4066 -0.9076  0.7935
19590SOL    HW263618   7.110   7.144   2.476  0.9378 -1.8747 -2.3307
19591SOL     OW63619   6.602   1.138   0.942  0.1451 -0.0831 -0.7528
19591SOL    HW163620   6.680   1.177   0.901  0.2160 -0.1459 -0.6784
19591SOL    HW263621   6.601   1.174   1.031  1.2182 -1.6182 -0.0773
19592SOL     OW63622   1.186   0.904   6.395  0.2945 -0.0290 -0.4179
19592SOL    HW163623   1.245   0.968   6.436  1.6462 -1.8269  0.6640
19592SOL    HW263624   1.201   0.823   6.445  0.1314 -1.7195 -2.9037
19593SOL     OW63625   2.664   0.080   7.776 -0.8197 -0.2083 -0.1772
19593SOL    HW163626   2.603   0.028   7.724 -0.0494 -2.1019  0.7252
19593SOL    HW263627   2.615   0.100   7.856 -0.8396 -0.2436 -0.1803
19594SOL     OW63628   1.945   2.286   2.755  0.2372  0.3151  0.2628
19594SOL    HW163629   1.994   2.239   2.822  2.0433 -0.8695 -1.7490
19594SOL    HW263630   1.886   2.220   2.718 -0.0881  0.7113  0.0716
19595SOL     OW63631   0.364   8.890   0.084 -0.0926 -0.6553  0.1566
19595SOL    HW163632   0.373   8.819   0.021 -1.5960 -1.9631  1.3169
19595SOL    HW263633   0.320   8.960   0.036  0.3165 -0.9717 -0.6866
19596SOL     OW63634   1.384   1.768   6.457 -0.4819 -0.7042  0.0579
19596SOL    HW163635   1.317   1.837   6.452 -1.5142 -1.6527  0.3879
19596SOL    HW263636   1.361   1.718   6.536  1.7426  0.0566  1.2932
19597SOL     OW63637   4.099   0.865   1.930  0.5996 -0.3536 -0.2076
19597SOL    HW163638   4.149   0.926   1.984  1.4218  0.3172 -1.6953
19597SOL    HW263639   4.013   0.907   1.921  0.3404 -0.6265  0.8131
19598SOL     OW63640   5.380   0.589   5.331  0.1444  0.5336  0.0413
19598SOL    HW163641   5.468   0.620   5.351  0.2604  0.3282 -0.1487
19598SOL    HW263642   5.380   0.577   5.236 -0.4204  1.5524 -0.0993
19599SOL     OW63643   6.079   8.347   4.054  0.9267 -0.1254 -0.3665
19599SOL    HW163644   5.993   8.310   4.076  0.0124  1.3012 -1.3680
19599SOL    HW263645   6.136   8.270   4.045 -0.3189 -1.1352 -0.0546
19600SOL     OW63646   2.168   5.445   9.477 -0.2167 -0.5809  0.4952
19600SOL    HW163647   2.220   5.525   9.478 -0.6087 -0.2650 -0.9950
19600SOL    HW263648   2.160   5.420   9.569  1.1274  0.2820  0.8787
19601SOL     OW63649   3.951   0.502   1.412 -0.0312  0.0806  0.6921
19601SOL    HW163650   4.003   0.476   1.488  1.5369  4.0998  1.2694
19601SOL    HW263651   4.009   0.487   1.337  0.4200  0.7614  0.8935
19602SOL     OW63652   1.389   8.612   4.525 -0.2214 -0.5891  0.4081
19602SOL    HW163653   1.453   8.659   4.472 -1.5701  0.2656 -0.5265
19602SOL    HW263654   1.441   8.571   4.594  0.9598  3.1407  1.9891
19603SOL     OW63655   6.759   8.093   5.287 -0.0654  0.1403  0.5023
19603SOL    HW163656   6.667   8.120   5.281  0.2341  0.9954 -0.4136
19603SOL    HW263657   6.790   8.092   5.196  1.6298  2.7009  0.9705
19604SOL     OW63658   0.489   6.340   2.092 -0.1114  0.0069 -0.5924
19604SOL    HW163659   0.542   6.262   2.109 -1.1304 -0.6123 -0.1300
19604SOL    HW263660   0.537   6.412   2.132  0.2299 -0.5819  0.0689
19605SOL     OW63661   7.564   5.934   5.757 -0.1309 -0.3250  0.5066
19605SOL    HW163662   7.489   5.939   5.816  1.0110  2.1664  1.9267
19605SOL    HW263663   7.621   5.869   5.796 -0.4657 -0.4591  0.7787
19606SOL     OW63664   1.374   0.378   6.792  0.0859 -0.2030  0.1492
19606SOL    HW163665   1.456   0.354   6.750 -0.8893 -1.6849 -1.0146
19606SOL    HW263666   1.317   0.406   6.720 -0.4390  0.8431  0.9398
19607SOL     OW63667   1.436   9.298   2.948  0.3657 -0.1306 -0.2129
19607SOL    HW163668   1.349   9.331   2.926  0.1644  0.1597  0.9872
19607SOL    HW263669   1.495   9.371   2.929  0.2925 -0.1392 -0.4880
19608SOL     OW63670   5.094   0.847   4.793 -0.1897  0.1609  0.5427
19608SOL    HW163671   5.046   0.891   4.722 -0.4764 -0.8554  0.0855
19608SOL    HW263672   5.106   0.915   4.859 -0.9167  0.8390  0.0045
19609SOL     OW63673   7.272   9.395   9.276 -0.2659 -0.0832  0.2866
19609SOL    HW163674   7.312   9.360   9.196  0.4756  1.2946  0.0306
19609SOL    HW263675   7.337   9.456   9.311 -1.1322  0.3296  1.2318
19610SOL     OW63676   1.106   6.051   2.816 -0.1276  1.0779 -0.1810
19610SOL    HW163677   1.154   6.081   2.738  1.1375 -1.0018 -0.2728
19610SOL    HW263678   1.016   6.036   2.784  0.2842  0.6056 -1.1654
19611SOL     OW63679   8.601   3.077   2.133  0.3541 -0.1908 -0.2225
19611SOL    HW163680   8.688   3.094   2.169  0.1521 -0.0805  0.2129
19611SOL    HW263681   8.613   3.085   2.038  1.1151 -1.4858 -0.2618
19612SOL     OW63682   0.896   6.185   5.714 -0.1478 -0.0843 -0.2061
19612SOL    HW163683   0.822   6.233   5.678  0.1551  0.2844 -0.3500
19612SOL    HW263684   0.859   6.102   5.744 -0.6548  0.1894 -0.0635
19613SOL     OW63685   6.342   5.478   9.091 -0.2132 -0.8107 -0.6637
19613SOL    HW163686   6.394   5.434   9.158  1.3029 -0.6764 -1.7118
19613SOL    HW263687   6.342   5.570   9.116  0.9910 -0.6426 -1.2191
19614SOL     OW63688   3.647   1.516   3.821  0.7213 -0.0840 -0.2594
19614SOL    HW163689   3.600   1.455   3.765  0.3929  0.7698 -0.9396
19614SOL    HW263690   3.640   1.600   3.776  2.9811  0.0712 -0.4273
19615SOL     OW63691   6.939   9.307   8.238  0.8696 -0.3597 -0.1777
19615SOL    HW163692   7.006   9.344   8.295 -1.1924  1.4868  1.1931
19615SOL    HW263693   6.929   9.372   8.168  1.0531 -1.0279 -0.8400
19616SOL     OW63694   3.320   1.035   4.893 -0.0879 -0.1593  0.5889
19616SOL    HW163695   3.305   1.127   4.871  3.1496 -0.0207 -1.7513
19616SOL    HW263696   3.252   0.988   4.845  2.1734  0.7330 -4.0582
19617SOL     OW63697   9.389   1.163   3.168  0.2337  0.9953 -0.2245
19617SOL    HW163698   9.334   1.095   3.207 -0.2840  0.0611 -2.4084
19617SOL    HW263699   9.445   1.192   3.240  0.9403 -2.2162  0.7141
19618SOL     OW63700   6.945   4.954   6.270 -0.5360  0.7974 -0.2338
19618SOL    HW163701   6.860   4.998   6.278 -0.5751  0.4599  1.6927
19618SOL    HW263702   7.010   5.021   6.290 -0.4660  0.5853  0.2684
19619SOL     OW63703   6.514   5.523   4.286 -0.1334 -0.2869  0.3268
19619SOL    HW163704   6.462   5.579   4.343  1.0547  1.4636 -0.2150
19619SOL    HW263705   6.598   5.514   4.330  0.2632 -0.2185 -0.3882
19620SOL     OW63706   5.270   0.403   1.282  0.1123 -0.8640  0.2407
19620SOL    HW163707   5.199   0.435   1.226  1.1018  1.1104  0.0421
19620SOL    HW263708   5.234   0.406   1.370 -0.1819 -0.2230  0.1038
19621SOL     OW63709   0.899   2.847   3.549  0.0477  0.8411  0.3677
19621SOL    HW163710   0.870   2.886   3.467 -1.0020 -1.0236 -0.1990
19621SOL    HW263711   0.933   2.761   3.524 -0.4983  0.1428  1.8921
19622SOL     OW63712   7.599   4.472   5.323 -0.4126 -0.3152 -0.4195
19622SOL    HW163713   7.661   4.427   5.381  0.2395  2.4610  1.2385
19622SOL    HW263714   7.582   4.409   5.253  3.3838 -1.6845 -0.3624
19623SOL     OW63715   4.778   6.148   4.352  0.0474  0.4467 -0.3116
19623SOL    HW163716   4.726   6.156   4.432 -0.0077  3.5277 -0.5197
19623SOL    HW263717   4.864   6.184   4.375  0.6040 -0.2597 -1.1966
19624SOL     OW63718   2.581   3.106   4.884  0.7564 -0.6648 -0.6351
19624SOL    HW163719   2.569   3.106   4.789  1.2940 -0.3921 -0.7045
19624SOL    HW263720   2.538   3.026   4.914 -0.7159 -0.0231 -0.9437
19625SOL     OW63721   2.835   3.082   7.059 -0.3023 -0.2398 -0.0887
19625SOL    HW163722   2.916   3.062   7.107 -0.4765 -2.1293 -0.5291
19625SOL    HW263723   2.779   3.124   7.124  0.9692  1.0458  0.2478
19626SOL     OW63724   1.823   2.138   7.689 -0.7381  0.0055 -0.2839
19626SOL    HW163725   1.903   2.088   7.703 -0.9797 -0.3207 -0.0356
19626SOL    HW263726   1.795   2.116   7.600 -1.0040 -0.5423 -0.0706
19627SOL     OW63727   4.819   9.052   1.998 -0.2332 -0.2109 -0.6524
19627SOL    HW163728   4.770   8.970   1.983 -1.3692  0.2835  0.2398
19627SOL    HW263729   4.905   9.023   2.027 -1.3953 -1.1578  2.2061
19628SOL     OW63730   3.678   9.668   2.317  0.0116 -0.3092  0.3961
19628SOL    HW163731   3.600   9.616   2.336 -0.0062  0.4136  2.5261
19628SOL    HW263732   3.749   9.603   2.311 -0.4669 -0.8201  0.1351
19629SOL     OW63733   1.637   5.837   7.028 -0.0189  0.0211  0.0902
19629SOL    HW163734   1.614   5.912   6.973  0.2007  0.6336  0.8212
19629SOL    HW263735   1.642   5.763   6.966  0.7576  0.7888 -0.8002
19630SOL     OW63736   2.720   3.616   4.389  0.0824  0.2304 -0.0702
19630SOL    HW163737   2.638   3.574   4.362 -0.1881 -0.1968  1.3271
19630SOL    HW263738   2.712   3.624   4.484  1.5135  0.5289  0.0368
19631SOL     OW63739   4.744   8.387   7.816 -0.1725 -0.2068 -0.1212
19631SOL    HW163740   4.649   8.397   7.819 -0.1640  0.0291 -0.5760
19631SOL    HW263741   4.777   8.473   7.789  0.2300 -0.0185  0.8968
19632SOL     OW63742   5.122   7.304   6.010 -0.0679 -0.0912 -0.7728
19632SOL    HW163743   5.090   7.271   5.926  1.4353 -2.3142 -0.5596
19632SOL    HW263744   5.067   7.260   6.076 -1.2741  1.6778 -0.5236
19633SOL     OW63745   4.173   1.470   9.035 -0.0572  0.7729 -0.3640
19633SOL    HW163746   4.079   1.458   9.047 -0.1187  0.6412 -0.9904
19633SOL    HW263747   4.183   1.501   8.946  0.7244 -2.1875 -1.4315
19634SOL     OW63748   7.153   0.934   1.687 -0.0147 -0.2041 -0.2945
19634SOL    HW163749   7.180   0.866   1.749 -4.0753 -0.0594  1.9759
19634SOL    HW263750   7.148   0.890   1.603 -0.0952 -2.0571  0.6387
19635SOL     OW63751   4.655   5.885   7.896  0.0507  0.1029  0.4474
19635SOL    HW163752   4.688   5.938   7.968  1.0123 -2.0071  1.6562
19635SOL    HW263753   4.728   5.827   7.874 -0.7500 -0.3493 -1.2172
19636SOL     OW63754   6.549   2.617   0.940  0.4379 -0.8055  0.8783
19636SOL    HW163755   6.514   2.627   0.852  0.0228 -0.6624  1.0570
19636SOL    HW263756   6.533   2.701   0.982  3.4850  0.3114  0.1181
19637SOL     OW63757   3.291   8.611   7.204 -0.0595  0.4250  0.0193
19637SOL    HW163758   3.276   8.664   7.126  3.3469  2.1521  0.3648
19637SOL    HW263759   3.334   8.670   7.266 -0.9413 -1.3873  2.5369
19638SOL     OW63760   6.408   0.572   8.422  0.2880 -0.4107 -0.1535
19638SOL    HW163761   6.337   0.636   8.432 -0.7210 -1.3090 -1.2680
19638SOL    HW263762   6.380   0.496   8.474  1.0792 -0.2954  0.4723
19639SOL     OW63763   6.552   9.300   4.946 -0.1780  0.1138 -0.1215
19639SOL    HW163764   6.502   9.350   5.011  1.0872  0.5684  0.5333
19639SOL    HW263765   6.628   9.355   4.927  1.0639 -1.3945  0.3398
19640SOL     OW63766   2.747   0.800   8.913 -0.4607 -0.4662  0.2097
19640SOL    HW163767   2.801   0.725   8.938  1.1608  0.9316  1.0367
19640SOL    HW263768   2.732   0.848   8.994 -2.2595 -0.3326 -0.1522
19641SOL     OW63769   7.007   7.196   2.033  0.4256  0.3446 -0.5509
19641SOL    HW163770   7.015   7.143   2.113 -2.3514  3.1500  1.8424
19641SOL    HW263771   7.090   7.243   2.026  0.4259  0.6622  1.2305
19642SOL     OW63772   4.309   2.635   8.738  0.6473 -0.3982 -0.2448
19642SOL    HW163773   4.358   2.647   8.657  0.3005 -1.6955 -0.6780
19642SOL    HW263774   4.218   2.628   8.710  0.4148  0.0715  0.3638
19643SOL     OW63775   1.137   2.181   7.722  0.1593  0.2433  0.1092
19643SOL    HW163776   1.089   2.191   7.640  0.2719  1.5136  0.1811
19643SOL    HW263777   1.228   2.165   7.695 -0.1933 -1.6883 -0.0214
19644SOL     OW63778   2.837   0.274   5.810  0.3118 -0.5957  0.5790
19644SOL    HW163779   2.753   0.276   5.764 -0.0821 -0.4999  1.2913
19644SOL    HW263780   2.872   0.363   5.801  1.5576 -1.2215 -1.8782
19645SOL     OW63781   7.658   8.836   1.989 -0.4795 -0.3279  0.5521
19645SOL    HW163782   7.695   8.790   2.064  0.8722  0.6626  0.5366
19645SOL    HW263783   7.700   8.922   1.991 -0.7654 -0.1215 -1.0720
19646SOL     OW63784   6.795   5.342   4.792 -0.3622  0.4092  0.1626
19646SOL    HW163785   6.817   5.264   4.842  0.0219  1.2292  1.2982
19646SOL    HW263786   6.809   5.316   4.700  0.6866 -0.5490  0.5724
19647SOL     OW63787   1.375   8.856   8.310  0.5041  0.7795  0.2912
19647SOL    HW163788   1.372   8.900   8.225 -1.1100  0.6708  0.2675
19647SOL    HW263789   1.289   8.815   8.319  1.1965 -0.4963  1.3121
19648SOL     OW63790   5.027   3.329   6.446  0.0023 -0.5881 -0.1867
19648SOL    HW163791   5.115   3.322   6.409  1.5441 -2.0728  3.2867
19648SOL    HW263792   4.993   3.239   6.445 -0.2954 -0.5071  0.9906
19649SOL     OW63793   6.021   5.160   5.671 -0.1491 -0.5349  0.2539
19649SOL    HW163794   5.951   5.146   5.607 -0.2073 -0.5158  0.3145
19649SOL    HW263795   6.023   5.079   5.723 -0.8221 -0.1308  0.9319
19650SOL     OW63796   1.134   3.642   5.091  0.3230 -0.0627  0.2011
19650SOL    HW163797   1.221   3.608   5.070  0.3225 -0.3144  0.6107
19650SOL    HW263798   1.152   3.722   5.141  0.3321 -0.9517  1.6733
19651SOL     OW63799   8.605   8.336   2.232  0.1788  0.5271  0.2569
19651SOL    HW163800   8.563   8.274   2.171  0.1343  0.3054  0.5081
19651SOL    HW263801   8.688   8.358   2.190  0.4704 -0.1759  0.4440
19652SOL     OW63802   7.648   8.396   1.784 -0.0322 -0.3346 -0.7919
19652SOL    HW163803   7.602   8.451   1.847  1.2617 -1.9136  1.6516
19652SOL    HW263804   7.642   8.445   1.701 -3.1705  1.0368  0.1114
19653SOL     OW63805   2.884   2.445   0.395 -0.0895 -0.2531  0.1736
19653SOL    HW163806   2.834   2.522   0.424 -0.9743 -0.0872 -1.6604
19653SOL    HW263807   2.965   2.449   0.445 -0.8892  0.8392  1.4663
19654SOL     OW63808   9.346   4.347   7.284 -0.9507  0.2166 -0.0408
19654SOL    HW163809   9.262   4.370   7.325 -1.5241  0.4611 -1.3228
19654SOL    HW263810   9.332   4.359   7.191  1.0869  2.1756 -0.1813
19655SOL     OW63811   6.201   3.118   7.701 -0.4607 -0.1724  0.1842
19655SOL    HW163812   6.240   3.035   7.730 -2.1420 -2.2516 -2.9921
19655SOL    HW263813   6.262   3.152   7.636 -0.7309  0.0302  0.0347
19656SOL     OW63814   2.755   1.340   3.068  0.1972 -0.5084  0.6429
19656SOL    HW163815   2.817   1.302   3.130  1.2498 -1.0710 -0.6761
19656SOL    HW263816   2.808   1.402   3.017 -0.8231  0.5481  0.8351
19657SOL     OW63817   9.089   6.082   0.949 -0.2108 -0.2171  0.2440
19657SOL    HW163818   9.050   6.121   1.028 -0.5533  0.7714 -0.3969
19657SOL    HW263819   9.040   6.121   0.876  1.3101  0.2964 -0.5353
19658SOL     OW63820   6.380   7.071   2.100  0.3369  0.1434 -0.0021
19658SOL    HW163821   6.323   7.041   2.171 -1.1001 -0.0298 -1.1747
19658SOL    HW263822   6.367   7.166   2.099  2.4599  0.5414  1.6617
19659SOL     OW63823   4.839   8.064   9.139 -0.0601  0.3248  0.4042
19659SOL    HW163824   4.755   8.029   9.169 -0.9718  2.1017  0.0398
19659SOL    HW263825   4.817   8.117   9.063  1.5034  0.2864 -0.1065
19660SOL     OW63826   6.255   3.975   3.408 -0.2395  0.4278  0.3218
19660SOL    HW163827   6.217   3.894   3.441 -2.1601  1.1394  0.0180
19660SOL    HW263828   6.232   3.976   3.315 -0.0669  1.2365  0.2780
19661SOL     OW63829   0.540   4.286   6.029 -0.3062 -0.3152  0.5126
19661SOL    HW163830   0.572   4.217   5.971  1.7348  0.5813  0.4856
19661SOL    HW263831   0.529   4.242   6.114  0.8296 -0.7440  0.4601
19662SOL     OW63832   7.391   3.489   7.832  1.1938  0.0842 -0.0292
19662SOL    HW163833   7.465   3.500   7.892  1.1817 -1.8381  0.4182
19662SOL    HW263834   7.397   3.398   7.803 -1.0197 -0.1587  0.0672
19663SOL     OW63835   2.406   1.273   0.292  0.3533  0.0566  0.2628
19663SOL    HW163836   2.495   1.253   0.320 -0.3828 -1.0019  1.9499
19663SOL    HW263837   2.383   1.203   0.231  0.9804  0.8595 -0.9385
19664SOL     OW63838   0.593   3.708   9.050  0.1265 -0.0313  0.6936
19664SOL    HW163839   0.567   3.665   8.968  1.4019  2.2903 -1.0278
19664SOL    HW263840   0.596   3.636   9.114  0.1329 -2.1278 -1.5122
19665SOL     OW63841   4.902   4.473   8.917 -0.1617  0.5885 -0.3333
19665SOL    HW163842   4.976   4.518   8.878 -0.8863  3.6168  1.4339
19665SOL    HW263843   4.827   4.532   8.902 -1.5426 -0.8236  0.6534
19666SOL     OW63844   4.860   3.747   3.957  0.0371  0.2578 -0.0039
19666SOL    HW163845   4.838   3.838   3.933 -1.0324 -0.6138 -2.7277
19666SOL    HW263846   4.926   3.721   3.893 -0.7831 -1.3497 -0.2373
19667SOL     OW63847   1.848   3.926   1.296 -0.6292  0.1889 -0.2090
19667SOL    HW163848   1.810   3.953   1.379  0.0072  2.5125 -0.5861
19667SOL    HW263849   1.942   3.921   1.313 -0.6150 -0.5743 -0.4842
19668SOL     OW63850   1.550   0.673   5.632  0.2769  0.0378 -0.4273
19668SOL    HW163851   1.455   0.683   5.639  0.3507  0.4340  0.0920
19668SOL    HW263852   1.585   0.744   5.686  0.8822  0.9376 -1.9483
19669SOL     OW63853   1.049   2.055   8.668 -0.2051  0.5480  0.0320
19669SOL    HW163854   1.140   2.079   8.685 -0.1514  0.0261  0.4799
19669SOL    HW263855   1.053   2.003   8.587  0.0269 -0.3690  0.6250
19670SOL     OW63856   3.747   0.071   1.947  0.2685 -0.0326  0.0834
19670SOL    HW163857   3.784  -0.011   1.915  0.6428 -0.8084  2.3050
19670SOL    HW263858   3.653   0.055   1.951  0.3387 -0.3795  0.4934
19671SOL     OW63859   4.897   6.694   7.203 -0.8584 -0.0089 -0.2979
19671SOL    HW163860   4.816   6.689   7.254 -1.2131 -2.0541 -0.9865
19671SOL    HW263861   4.869   6.712   7.114 -0.3511  1.6527 -0.1678
19672SOL     OW63862   9.157   5.718   7.176  0.1460  0.2247 -0.6367
19672SOL    HW163863   9.105   5.781   7.126 -1.0053  1.6261  2.1344
19672SOL    HW263864   9.096   5.648   7.199  0.8107 -0.7090 -1.6002
19673SOL     OW63865   4.539   3.742   1.816 -0.0548 -0.0557  0.4555
19673SOL    HW163866   4.528   3.837   1.823  0.3733 -0.0413  1.0176
19673SOL    HW263867   4.631   3.730   1.796 -0.4761 -0.2871 -1.5413
19674SOL     OW63868   2.219   6.338   9.542  0.2876 -0.7478 -0.5788
19674SOL    HW163869   2.205   6.426   9.577 -0.1822  0.1185 -2.7911
19674SOL    HW263870   2.224   6.282   9.620 -1.4910  0.9008  0.8302
19675SOL     OW63871   4.051   0.682   7.349  0.0577 -0.2111 -0.5308
19675SOL    HW163872   4.061   0.740   7.424  1.3402 -0.3339 -0.5908
19675SOL    HW263873   4.030   0.597   7.387 -1.4487  0.1706 -0.4287
19676SOL     OW63874   5.802   7.318   9.619  0.4534  0.4258 -0.1541
19676SOL    HW163875   5.845   7.301   9.535  0.7193 -0.6999  0.1942
19676SOL    HW263876   5.711   7.336   9.596  0.7174  1.0368 -0.7522
19677SOL     OW63877   4.834   7.495   5.732 -0.1709 -0.3820  0.0530
19677SOL    HW163878   4.926   7.506   5.756 -0.3879 -0.4392  0.9247
19677SOL    HW263879   4.798   7.438   5.800 -0.7065 -0.8655 -0.6271
19678SOL     OW63880   1.985   7.169   6.675 -0.2103  0.0593  0.4285
19678SOL    HW163881   2.003   7.153   6.768  0.3749  0.4735  0.3946
19678SOL    HW263882   2.063   7.215   6.643  0.5383 -1.9359 -0.7878
19679SOL     OW63883   2.191   3.191   4.185 -0.1343  0.1312 -0.5649
19679SOL    HW163884   2.107   3.206   4.227  0.5082 -1.2955  1.3921
19679SOL    HW263885   2.177   3.114   4.129  0.6302 -2.6011  2.6724
19680SOL     OW63886   5.087   5.420   7.827 -0.3102  0.1932 -0.1234
19680SOL    HW163887   5.070   5.494   7.885  0.3244 -0.3327  0.7614
19680SOL    HW263888   5.178   5.432   7.799 -0.5895  0.4068 -0.9644
19681SOL     OW63889   2.294   4.130   0.656  0.1374  1.0721 -0.0258
19681SOL    HW163890   2.236   4.058   0.681  0.3402  0.6458 -0.7581
19681SOL    HW263891   2.333   4.158   0.739  0.3427  0.0895  0.2265
19682SOL     OW63892   6.051   1.622   0.558 -0.6741 -0.1659  0.5422
19682SOL    HW163893   5.980   1.558   0.555  0.0735 -0.9761 -0.6250
19682SOL    HW263894   6.068   1.644   0.467  1.7535 -1.3679  0.6112
19683SOL     OW63895   0.299   5.069   7.910  0.0451 -0.3095 -0.2687
19683SOL    HW163896   0.356   5.115   7.971  0.6043 -0.8177 -0.4031
19683SOL    HW263897   0.240   5.137   7.876  0.0784  0.0734  0.4298
19684SOL     OW63898   0.033   4.701   7.265 -0.4189 -0.3857 -0.3362
19684SOL    HW163899   0.113   4.748   7.238 -1.1391  0.6041 -0.8265
19684SOL    HW263900   0.032   4.623   7.209  2.2622 -2.6149  2.3683
19685SOL     OW63901   3.446   2.388   9.725 -0.4626 -0.2474  0.5451
19685SOL    HW163902   3.526   2.426   9.760  0.2137 -0.8962 -0.2500
19685SOL    HW263903   3.393   2.463   9.698 -0.0908  0.1819  0.9948
19686SOL     OW63904   0.879   8.364   1.664  0.5305  0.3929  0.1695
19686SOL    HW163905   0.962   8.398   1.696  0.9528  0.5546 -1.0537
19686SOL    HW263906   0.844   8.313   1.737  1.1313  1.2868  1.1136
19687SOL     OW63907   2.721   1.560   5.230 -0.1710 -0.0570  0.6208
19687SOL    HW163908   2.785   1.491   5.213 -1.1054 -0.7121 -0.3543
19687SOL    HW263909   2.705   1.555   5.324  0.9798 -0.0703  0.8293
19688SOL     OW63910   0.170   4.548   7.059 -0.3080 -0.0201 -0.2059
19688SOL    HW163911   0.226   4.474   7.037  0.7112  0.3223  1.1275
19688SOL    HW263912   0.144   4.584   6.974  0.5976 -0.8541 -0.8559
19689SOL     OW63913   5.192   3.821   0.988  0.7858  0.5051  0.0365
19689SOL    HW163914   5.239   3.780   1.061 -0.6361 -1.0705  0.1216
19689SOL    HW263915   5.103   3.834   1.020  0.3499  0.5765 -1.1432
19690SOL     OW63916   6.995   8.113   2.650 -0.0236  0.7168  0.2818
19690SOL    HW163917   6.925   8.179   2.649 -2.0617 -1.3149  0.2341
19690SOL    HW263918   6.949   8.030   2.664  2.4071 -0.7391  0.1433
19691SOL     OW63919   3.079   3.029   7.207 -0.2322 -0.1139 -0.2953
19691SOL    HW163920   3.151   2.966   7.207 -1.8259 -2.0454 -0.2031
19691SOL    HW263921   3.121   3.114   7.211  2.0120 -1.2104  1.4391
19692SOL     OW63922   5.936   3.259   0.987 -0.4111 -0.2362 -0.1428
19692SOL    HW163923   5.957   3.166   0.983 -1.2980 -0.4616  0.2849
19692SOL    HW263924   5.911   3.282   0.897  2.3828  0.2418 -0.8732
19693SOL     OW63925   8.505   8.611   3.834  0.1239  0.3707  0.6954
19693SOL    HW163926   8.561   8.656   3.897  1.1051  0.3034 -0.1118
19693SOL    HW263927   8.436   8.572   3.888  0.1555  1.4717  1.5798
19694SOL     OW63928   6.113   1.988   2.951 -0.1593  0.4750  0.1083
19694SOL    HW163929   6.107   1.910   3.006 -0.0037 -0.0873 -0.6560
19694SOL    HW263930   6.101   2.061   3.012 -0.7469 -0.1529  0.7737
19695SOL     OW63931   3.684   6.397   8.783  0.2342 -0.0784  0.0502
19695SOL    HW163932   3.668   6.340   8.708  2.2108 -0.0292 -0.4423
19695SOL    HW263933   3.597   6.430   8.807 -1.1444 -3.8420  0.8718
19696SOL     OW63934   1.689   9.134   3.040 -0.6831 -0.0089 -0.3121
19696SOL    HW163935   1.750   9.208   3.031 -1.0308  0.4190  0.6746
19696SOL    HW263936   1.708   9.077   2.965  1.9849 -0.6742  0.7921
19697SOL     OW63937   3.594   0.380   5.452 -0.1559 -0.1129  0.2754
19697SOL    HW163938   3.656   0.449   5.430 -1.8073  2.0004  1.7564
19697SOL    HW263939   3.621   0.350   5.539  0.4362 -1.2214 -0.2800
19698SOL     OW63940   9.553   7.000   4.928  0.7949 -0.7130  0.8178
19698SOL    HW163941   9.553   7.062   4.856 -0.4332 -0.6922  0.8225
19698SOL    HW263942   9.577   7.052   5.005  0.0116 -0.2971  0.7818
19699SOL     OW63943   1.751   4.282   0.526 -0.2328  0.0472  0.0807
19699SOL    HW163944   1.712   4.197   0.546 -0.8839  0.1982 -0.4932
19699SOL    HW263945   1.679   4.344   0.541  0.1403  0.4615  0.1708
19700SOL     OW63946   4.715   6.623   4.992  0.5249  0.3087 -0.3715
19700SOL    HW163947   4.759   6.545   4.956 -0.1269 -0.1844 -0.1315
19700SOL    HW263948   4.746   6.629   5.082  1.1388  0.7582 -0.6140
19701SOL     OW63949   4.310   6.015   0.239 -0.4227  0.4716  0.5534
19701SOL    HW163950   4.394   6.063   0.238 -1.3775  2.2586 -0.6035
19701SOL    HW263951   4.311   5.966   0.321  1.3791  1.1444  0.9840
19702SOL     OW63952   0.140   8.818   9.672  0.0204  0.0501  0.0120
19702SOL    HW163953   0.207   8.756   9.700 -0.9785 -1.0406  0.0238
19702SOL    HW263954   0.118   8.792   9.583 -1.0286 -0.1702  0.3251
19703SOL     OW63955   3.292   1.776   9.623 -0.2087 -0.7672 -0.3087
19703SOL    HW163956   3.209   1.730   9.635 -1.4362  1.0963 -1.1504
19703SOL    HW263957   3.280   1.828   9.543  0.8723  1.3799  0.8205
19704SOL     OW63958   2.000   8.544   2.697 -0.4079  0.5172 -0.4174
19704SOL    HW163959   2.058   8.518   2.768  1.5135  1.5506 -1.5242
19704SOL    HW263960   2.028   8.633   2.675 -0.6044  0.0627 -2.7352
19705SOL     OW63961   4.619   1.470   6.477  0.2911 -0.5394 -0.6611
19705SOL    HW163962   4.675   1.523   6.534 -1.7349  0.1018  0.9048
19705SOL    HW263963   4.649   1.380   6.489  0.5846 -0.2855  0.6380
19706SOL     OW63964   9.375   5.243   2.151  0.3593 -0.8030  0.2734
19706SOL    HW163965   9.294   5.290   2.136  0.2849 -0.7717  0.7442
19706SOL    HW263966   9.430   5.305   2.200  0.7676 -0.7275 -0.2775
19707SOL     OW63967   5.759   6.445   7.416 -0.3379  0.5896  0.5959
19707SOL    HW163968   5.843   6.416   7.451 -0.0529 -0.8768 -1.1918
19707SOL    HW263969   5.754   6.538   7.441  0.1985 -0.1004  3.6793
19708SOL     OW63970   8.222   9.593   2.775 -0.2716  0.1892 -0.4707
19708SOL    HW163971   8.223   9.569   2.683 -0.0853  0.8318 -0.6400
19708SOL    HW263972   8.206   9.687   2.775  0.7654  0.3769  0.1096
19709SOL     OW63973   4.534   8.683   4.410  0.0767  0.7206  0.3600
19709SOL    HW163974   4.511   8.746   4.478  2.5621  2.0450  0.0856
19709SOL    HW263975   4.451   8.642   4.386 -1.1471  1.6052  2.7855
19710SOL     OW63976   5.744   0.885   8.196  0.6203 -0.0844 -0.7819
19710SOL    HW163977   5.808   0.831   8.242 -1.0044  0.4653  2.3876
19710SOL    HW263978   5.677   0.822   8.168  1.1126 -0.2786 -1.5806
19711SOL     OW63979   5.458   5.485   2.108  0.0315  0.2730 -0.1731
19711SOL    HW163980   5.462   5.497   2.203  1.2423  2.2465 -0.4218
19711SOL    HW263981   5.450   5.391   2.096  2.9056 -0.3726  1.8679
19712SOL     OW63982   9.025   2.594   8.134  0.7410  0.4853 -0.6718
19712SOL    HW163983   9.089   2.524   8.126  1.3870  1.1260 -1.2694
19712SOL    HW263984   9.076   2.675   8.128  0.2070  1.0494  1.5110
19713SOL     OW63985   8.207   2.434   4.768  0.5710  0.7848 -0.4276
19713SOL    HW163986   8.207   2.351   4.720  1.9813  1.5500 -1.8473
19713SOL    HW263987   8.136   2.485   4.728  0.1530  0.5378 -0.0176
19714SOL     OW63988   4.562   0.396   4.331  0.3378 -0.1220  0.2476
19714SOL    HW163989   4.580   0.348   4.251 -2.4463 -0.0000 -0.5729
19714SOL    HW263990   4.510   0.471   4.303 -0.0728  0.3382  2.0839
19715SOL     OW63991   1.395   3.785   5.665  0.3019 -0.6592 -0.3133
19715SOL    HW163992   1.350   3.705   5.692  0.3115 -0.4732  0.2640
19715SOL    HW263993   1.356   3.806   5.580 -2.9723  1.1690  1.4169
19716SOL     OW63994   0.559   4.473   5.716  0.0906 -0.5146  0.6528
19716SOL    HW163995   0.636   4.529   5.714  0.5997 -1.2309  0.0091
19716SOL    HW263996   0.588   4.390   5.679 -0.8722 -0.9422  0.8253
19717SOL     OW63997   0.432   9.103   9.471 -0.3050  0.2135 -0.0539
19717SOL    HW163998   0.426   9.174   9.407  1.5086  0.5267  0.0869
19717SOL    HW263999   0.491   9.136   9.538 -0.0829 -1.1275  0.4366
19718SOL     OW64000   4.356   1.151   4.539  0.1472 -0.4058 -0.4120
19718SOL    HW164001   4.278   1.194   4.575 -0.3486 -1.1200 -0.6196
19718SOL    HW264002   4.407   1.223   4.500 -0.0133  0.1745  0.4146
19719SOL     OW64003   4.145   2.393   8.279  0.8730  0.1441  0.1917
19719SOL    HW164004   4.159   2.397   8.185  0.6843  0.5760  0.1770
19719SOL    HW264005   4.227   2.357   8.314  0.7646 -0.4679 -0.1730
19720SOL     OW64006   2.778   1.409   4.957  0.3054 -0.2341 -0.1045
19720SOL    HW164007   2.826   1.352   4.897  2.2672  1.2835 -0.0680
19720SOL    HW264008   2.810   1.383   5.044 -0.0061 -0.1591  0.0325
19721SOL     OW64009   7.460   4.232   4.064 -0.3558 -0.1111  0.2805
19721SOL    HW164010   7.495   4.150   4.100  0.2335  0.2222  0.4970
19721SOL    HW264011   7.370   4.235   4.094  0.0785  0.0881  1.6577
19722SOL     OW64012   5.247   3.296   4.608 -0.4830  0.1502 -0.6695
19722SOL    HW164013   5.339   3.290   4.637 -0.5884  0.5785 -0.2440
19722SOL    HW264014   5.242   3.234   4.535  0.3064  0.6057 -1.1244
19723SOL     OW64015   3.114   1.652   3.893 -0.1544  0.0735 -0.2873
19723SOL    HW164016   3.124   1.689   3.805  3.3151 -2.2959 -1.1044
19723SOL    HW264017   3.188   1.689   3.942 -0.4474 -0.7524  0.8021
19724SOL     OW64018   7.150   1.914   8.765 -0.8254 -0.5939  0.4439
19724SOL    HW164019   7.197   1.886   8.687  1.6460  0.4970  1.4365
19724SOL    HW264020   7.103   1.836   8.795  2.1636 -2.4715  0.6139
19725SOL     OW64021   9.713   3.818   6.299 -0.1596 -0.3413 -0.1915
19725SOL    HW164022   9.739   3.899   6.254 -0.3497 -0.3694 -0.3489
19725SOL    HW264023   9.796   3.781   6.329 -0.1977  1.2634  2.2372
19726SOL     OW64024   5.249   0.640   7.755  0.0907 -0.2809  0.3057
19726SOL    HW164025   5.242   0.559   7.704 -0.0611 -0.7659  1.0769
19726SOL    HW264026   5.193   0.702   7.708  0.4430 -0.5276 -0.4630
19727SOL     OW64027   2.666   1.238   3.377  0.1116  0.0493 -0.0820
19727SOL    HW164028   2.628   1.316   3.416  3.3152  1.9450 -0.3355
19727SOL    HW264029   2.649   1.248   3.283 -0.2176 -0.0118 -0.0294
19728SOL     OW64030   1.313   3.519   7.999  0.2550 -0.0138 -0.2920
19728SOL    HW164031   1.285   3.436   8.038 -0.9633 -0.4625 -1.9984
19728SOL    HW264032   1.369   3.559   8.066 -2.5619 -0.1547  2.4305
19729SOL     OW64033   3.097   5.353   6.582 -0.7447 -0.1473  0.2217
19729SOL    HW164034   3.035   5.421   6.610 -0.1198  0.3677  0.3636
19729SOL    HW264035   3.183   5.392   6.594 -0.4085 -0.3273 -1.3266
19730SOL     OW64036   1.372   1.565   4.765 -0.5971  0.1460  0.4266
19730SOL    HW164037   1.377   1.485   4.818  0.2832  0.6159  1.0764
19730SOL    HW264038   1.435   1.550   4.694 -1.0428 -0.0673  0.0669
19731SOL     OW64039   9.123   6.351   6.218  0.8252 -0.3552 -0.0010
19731SOL    HW164040   9.033   6.323   6.230 -0.1393  1.7070 -1.7229
19731SOL    HW264041   9.127   6.438   6.258  0.8360  1.3247 -3.2909
19732SOL     OW64042   0.275   8.781   1.968  0.6100 -0.2527  0.6384
19732SOL    HW164043   0.225   8.862   1.959 -1.1298 -1.3047  0.4940
19732SOL    HW264044   0.344   8.789   1.902 -0.4217  0.4901 -0.4051
19733SOL     OW64045   8.381   5.564   5.060  0.6167 -0.2136  0.1945
19733SOL    HW164046   8.318   5.636   5.072 -0.7595 -0.8380 -2.4781
19733SOL    HW264047   8.464   5.599   5.093 -0.2479  2.1933  0.0160
19734SOL     OW64048   8.021   6.747   0.942  0.5331 -0.2259 -0.6111
19734SOL    HW164049   7.929   6.751   0.969  0.8423  0.0526  0.4508
19734SOL    HW264050   8.017   6.721   0.850 -0.6535  0.8772 -0.9161
19735SOL     OW64051   1.159   8.629   1.150 -0.3202  0.1473 -0.6020
19735SOL    HW164052   1.248   8.615   1.183  0.3282  3.1154 -0.8362
19735SOL    HW264053   1.157   8.579   1.068  0.3322 -1.7288  0.4434
19736SOL     OW64054   3.797   7.788   7.450 -0.0831 -0.2480 -0.1915
19736SOL    HW164055   3.854   7.739   7.509  1.7980  1.5805 -0.3806
19736SOL    HW264056   3.821   7.758   7.362  0.4667  0.3478 -0.2559
19737SOL     OW64057   2.012   9.322   5.860 -0.7232  0.2242  0.0678
19737SOL    HW164058   2.018   9.233   5.825 -2.4111  0.1610 -0.1284
19737SOL    HW264059   1.969   9.372   5.791 -1.7722  0.6841  1.0307
19738SOL     OW64060   0.153   8.470   3.283 -0.1451  0.3165  0.1328
19738SOL    HW164061   0.177   8.411   3.212  0.1930  0.2557  0.2974
19738SOL    HW264062   0.061   8.490   3.267 -0.2131 -0.1139 -0.0261
19739SOL     OW64063   5.861   5.011   0.008 -0.3359 -0.0680 -0.7598
19739SOL    HW164064   5.849   5.079  -0.058  1.1902  0.3678 -0.6169
19739SOL    HW264065   5.782   5.017   0.062 -1.3117 -0.0071 -2.1409
19740SOL     OW64066   9.274   4.907   6.448 -0.0537  0.3530 -0.6875
19740SOL    HW164067   9.314   4.928   6.363  0.2336 -2.0557 -1.2352
19740SOL    HW264068   9.344   4.920   6.511  1.1692 -2.0190 -1.4195
19741SOL     OW64069   2.789   3.536   5.745 -0.0749  0.4396 -0.5378
19741SOL    HW164070   2.867   3.491   5.778 -1.3552 -0.1628  1.8434
19741SOL    HW264071   2.777   3.501   5.657  1.1585 -1.0027 -0.1757
19742SOL     OW64072   2.777   0.512   2.837 -0.1083 -0.4079  0.2023
19742SOL    HW164073   2.751   0.436   2.889  1.7565 -1.6655 -0.6309
19742SOL    HW264074   2.860   0.540   2.875  0.3224 -0.1641 -0.8881
19743SOL     OW64075   1.190   0.733   5.671 -0.1979 -0.1188  1.0854
19743SOL    HW164076   1.149   0.659   5.627  0.9489 -0.9459  1.3600
19743SOL    HW264077   1.240   0.694   5.743  0.6845  0.8811  1.0483
19744SOL     OW64078   0.642   7.147   9.138 -0.7099 -0.4226 -0.6757
19744SOL    HW164079   0.593   7.140   9.056 -1.9046 -0.4622  0.0295
19744SOL    HW264080   0.589   7.204   9.193  0.5423  0.3879 -0.2419
19745SOL     OW64081   3.916   5.751   9.313 -0.6950 -0.1075 -0.2440
19745SOL    HW164082   3.931   5.846   9.308 -1.6365  0.1029  0.6892
19745SOL    HW264083   4.004   5.714   9.318 -0.2980  0.6861 -1.0180
19746SOL     OW64084   7.897   8.822   8.766 -0.1197 -0.1142 -0.2418
19746SOL    HW164085   7.882   8.859   8.853 -0.1092 -1.7801  0.5074
19746SOL    HW264086   7.923   8.731   8.783  0.4947 -0.2922 -1.9633
19747SOL     OW64087   6.268   7.421   2.735  0.0625 -0.2049  0.6799
19747SOL    HW164088   6.341   7.402   2.794 -0.1957  0.8215  1.3695
19747SOL    HW264089   6.213   7.342   2.739  2.3536 -2.1046 -1.8729
19748SOL     OW64090   9.205   6.585   4.951 -0.0018 -0.1170 -0.4787
19748SOL    HW164091   9.265   6.658   4.968 -0.1209 -0.3818  1.3090
19748SOL    HW264092   9.119   6.626   4.942 -0.1689 -0.0499  1.1628
19749SOL     OW64093   2.313   7.805   5.546  0.0205  0.1561  0.2718
19749SOL    HW164094   2.224   7.835   5.565  0.0325 -0.1603  0.8745
19749SOL    HW264095   2.333   7.840   5.459 -0.6301  0.3662  0.2036
19750SOL     OW64096   6.397   0.196   5.934  0.1190  0.0369 -0.5868
19750SOL    HW164097   6.465   0.211   5.869 -0.2875  1.3069 -0.7451
19750SOL    HW264098   6.404   0.270   5.994 -1.7405  0.7232 -1.1489
19751SOL     OW64099   8.620   8.525   2.412  0.1504  0.1047 -0.6201
19751SOL    HW164100   8.597   8.456   2.350  0.6788  1.1503 -2.0119
19751SOL    HW264101   8.716   8.521   2.418  0.2339  1.1190 -1.1942
19752SOL     OW64102   0.407   1.846   0.190 -0.6719  0.1832 -0.1312
19752SOL    HW164103   0.449   1.764   0.166 -0.1928  0.7316 -1.2640
19752SOL    HW264104   0.444   1.910   0.129 -2.5348  0.8536 -0.6185
19753SOL     OW64105   8.854   0.615   9.559  0.5469 -0.6749  0.5046
19753SOL    HW164106   8.854   0.697   9.510 -1.6750 -0.5618  0.5923
19753SOL    HW264107   8.852   0.547   9.491  1.8581 -0.6706  0.4394
19754SOL     OW64108   1.612   0.956   4.577 -0.0959  0.3755  0.9019
19754SOL    HW164109   1.558   1.001   4.642  0.1689  0.0834  1.3269
19754SOL    HW264110   1.702   0.976   4.602  0.0073  1.2424 -0.0740
19755SOL     OW64111   4.784   3.494   7.880  0.0845 -1.0606 -0.1151
19755SOL    HW164112   4.800   3.498   7.974  0.1053  0.0300 -0.1515
19755SOL    HW264113   4.835   3.566   7.844 -1.9435  0.1789 -0.6625
19756SOL     OW64114   8.232   6.898   4.991 -0.0678  0.4890  0.2619
19756SOL    HW164115   8.233   6.806   4.963 -0.1904  0.4571  0.3617
19756SOL    HW264116   8.152   6.933   4.953 -0.5155  0.3053  1.0133
19757SOL     OW64117   4.105   8.684   3.659  0.0466  0.0874 -0.0456
19757SOL    HW164118   4.032   8.634   3.625 -0.9689  0.7122  1.1349
19757SOL    HW264119   4.132   8.741   3.587 -0.5489 -0.2333 -0.5205
19758SOL     OW64120   2.987   5.753   1.038 -0.3584  0.1347 -0.0027
19758SOL    HW164121   2.929   5.789   0.970 -0.2803 -0.2375 -0.2656
19758SOL    HW264122   3.056   5.819   1.047  0.4669 -0.4922 -1.3670
19759SOL     OW64123   7.737   2.753   0.310  0.1064 -0.7852 -0.5089
19759SOL    HW164124   7.695   2.722   0.390 -1.0056 -2.0263 -1.5458
19759SOL    HW264125   7.671   2.807   0.267  0.6761 -0.1783 -0.6516
19760SOL     OW64126   3.287   5.601   3.923 -0.0414  0.5748  0.2083
19760SOL    HW164127   3.345   5.528   3.945  1.2248  1.2197 -0.8389
19760SOL    HW264128   3.308   5.668   3.989  0.8273  0.9956 -0.4611
19761SOL     OW64129   5.910   3.990   0.734 -0.1856 -0.2736  0.3627
19761SOL    HW164130   5.880   3.975   0.645  0.0663  0.0853  0.2156
19761SOL    HW264131   5.860   4.066   0.765  1.1805  0.8943 -0.1989
19762SOL     OW64132   9.119   2.032   5.629  0.0617 -0.2069  0.4690
19762SOL    HW164133   9.054   2.100   5.612 -0.2028 -0.3942  0.6976
19762SOL    HW264134   9.079   1.952   5.594  0.2614 -0.2864  0.4239
19763SOL     OW64135   0.644   4.899   9.641  0.1365  0.4443  0.2951
19763SOL    HW164136   0.699   4.942   9.575  0.5019  0.7779  0.8169
19763SOL    HW264137   0.694   4.821   9.666  0.3163  0.6777  0.6714
19764SOL     OW64138   0.951   7.893   2.650 -0.0399  0.2145  0.1243
19764SOL    HW164139   1.041   7.925   2.658 -0.2281  0.3109  2.4846
19764SOL    HW264140   0.901   7.944   2.714 -1.6379 -0.3604 -0.6152
19765SOL     OW64141   0.591   8.574   8.024  0.0780  0.1506  0.0529
19765SOL    HW164142   0.587   8.656   8.073 -1.8820  0.1305  0.0198
19765SOL    HW264143   0.569   8.600   7.934 -2.4950 -0.5845  0.3819
19766SOL     OW64144   7.849   3.008   8.103 -0.1016 -0.1815  0.1766
19766SOL    HW164145   7.777   2.985   8.162 -0.1221 -0.2205  0.1362
19766SOL    HW264146   7.826   2.968   8.020 -0.9845  1.3915 -0.3771
19767SOL     OW64147   5.593   2.864   7.536  0.3564 -0.2843  0.0669
19767SOL    HW164148   5.645   2.795   7.495  0.7331 -0.3840  0.6927
19767SOL    HW264149   5.504   2.849   7.506  0.6619 -0.1906 -0.9218
19768SOL     OW64150   3.007   0.109   2.119  0.5563 -0.2204  0.5153
19768SOL    HW164151   3.024   0.154   2.202  1.9481 -0.4511  0.3911
19768SOL    HW264152   2.975   0.177   2.061 -2.5996 -0.4505  1.8070
19769SOL     OW64153   8.748   0.366   8.371 -0.5909  0.5231  0.0028
19769SOL    HW164154   8.796   0.316   8.438 -0.4694  1.1982  0.4376
19769SOL    HW264155   8.815   0.391   8.308 -0.9909 -1.6325 -1.3661
19770SOL     OW64156   9.755   6.961   2.003  0.1076 -0.6043 -0.2483
19770SOL    HW164157   9.670   6.971   2.045 -0.0580 -0.8630 -0.5184
19770SOL    HW264158   9.787   6.876   2.032  1.5107  0.5985  2.0381
19771SOL     OW64159   8.722   5.526   8.528  0.1881  0.3853  0.2868
19771SOL    HW164160   8.656   5.510   8.460  0.3710 -1.8199  0.5700
19771SOL    HW264161   8.794   5.568   8.481 -0.1732 -0.0036 -0.6539
19772SOL     OW64162   1.657   0.601   6.738  0.0876 -0.1104  0.9722
19772SOL    HW164163   1.678   0.549   6.815  0.5111  1.3694  1.8883
19772SOL    HW264164   1.666   0.692   6.766 -3.7090  0.6402  0.3511
19773SOL     OW64165   1.611   3.698   5.037 -0.1050 -1.0688 -0.3393
19773SOL    HW164166   1.637   3.786   5.065 -1.2269 -0.7521 -0.2190
19773SOL    HW264167   1.677   3.672   4.973  0.0979 -0.0320 -0.5710
19774SOL     OW64168   6.984   3.921   6.300  0.2189  0.3802  0.5588
19774SOL    HW164169   6.917   3.948   6.237  0.4170 -0.2234  0.0784
19774SOL    HW264170   7.059   3.976   6.280  0.4045 -0.0610  0.0131
19775SOL     OW64171   9.497   9.442   1.591 -0.3685 -0.0712 -0.1193
19775SOL    HW164172   9.519   9.533   1.573  1.8940 -0.9408 -2.3344
19775SOL    HW264173   9.581   9.398   1.601 -1.3955 -1.9554  0.8410
19776SOL     OW64174   7.608   7.778   5.658 -0.1046 -0.0075  0.7360
19776SOL    HW164175   7.665   7.841   5.702  2.3210 -2.1638  0.9109
19776SOL    HW264176   7.535   7.830   5.624  2.1933  3.0300  0.0863
19777SOL     OW64177   4.933   8.050   5.714  0.6561 -0.4756 -0.0611
19777SOL    HW164178   5.001   8.004   5.763 -0.0043 -0.4146  0.9310
19777SOL    HW264179   4.914   8.128   5.766  0.9497  0.3540 -1.1487
19778SOL     OW64180   3.918   3.247   2.410 -0.3711 -0.1912  0.7044
19778SOL    HW164181   3.843   3.215   2.459 -0.5078 -0.0177  0.6098
19778SOL    HW264182   3.928   3.184   2.338 -1.0125  0.2999  0.1677
19779SOL     OW64183   3.833   0.450   2.886 -0.0220 -0.2874  0.5461
19779SOL    HW164184   3.922   0.415   2.890 -0.1526 -0.5852  0.9871
19779SOL    HW264185   3.834   0.510   2.812  0.1633 -1.3364 -0.3315
19780SOL     OW64186   1.691   6.497   2.148 -0.8185 -0.6900 -0.2412
19780SOL    HW164187   1.651   6.583   2.161 -0.2410 -0.6821  1.9048
19780SOL    HW264188   1.668   6.473   2.058 -1.8354  1.2502 -0.5567
19781SOL     OW64189   4.281   5.113   1.414  0.3230 -0.1294  0.3877
19781SOL    HW164190   4.324   5.039   1.371  0.5488  0.3749 -0.2713
19781SOL    HW264191   4.227   5.073   1.482  1.0516 -0.8454  0.5647
19782SOL     OW64192   5.070   0.500   1.855 -0.2582  0.3863  0.7372
19782SOL    HW164193   5.004   0.434   1.876  0.2770  0.5266  3.1070
19782SOL    HW264194   5.051   0.572   1.915  1.4963  0.7908  0.8474
19783SOL     OW64195   6.241   9.697   6.513 -0.1313 -0.4238  0.4994
19783SOL    HW164196   6.279   9.635   6.574  0.8935 -1.0566 -0.7394
19783SOL    HW264197   6.160   9.655   6.483  1.4200 -2.0947 -1.6840
19784SOL     OW64198   1.492   2.301   3.623 -0.2277  0.7599  0.0585
19784SOL    HW164199   1.516   2.359   3.551  0.3253 -0.0792 -0.4510
19784SOL    HW264200   1.566   2.308   3.684 -0.7772  1.6095  0.6572
19785SOL     OW64201   9.550   6.599   4.791 -0.8307  0.0456 -0.1186
19785SOL    HW164202   9.496   6.533   4.747  1.3692 -1.6459 -0.4518
19785SOL    HW264203   9.515   6.603   4.880 -2.3875  0.0952 -0.6947
19786SOL     OW64204   8.660   3.838   5.770  0.4036 -0.0438 -0.3558
19786SOL    HW164205   8.572   3.823   5.806  0.3830  0.8484 -0.0241
19786SOL    HW264206   8.714   3.858   5.846  1.1032 -1.4099 -0.4573
19787SOL     OW64207   3.039   1.149   5.685 -0.4278  0.1638 -0.6841
19787SOL    HW164208   3.089   1.219   5.727 -0.3811  0.1500 -0.7172
19787SOL    HW264209   3.031   1.081   5.753  0.5518 -0.3086 -1.0324
19788SOL     OW64210   3.752   7.384   4.631  0.9254 -0.5838  0.1415
19788SOL    HW164211   3.785   7.309   4.581  2.9926  1.7960 -2.4403
19788SOL    HW264212   3.741   7.453   4.565  0.1837  1.7378  2.5167
19789SOL     OW64213   2.181   1.096   0.218  0.6229 -0.2621  0.1932
19789SOL    HW164214   2.114   1.164   0.224  0.9509  0.3621 -2.1745
19789SOL    HW264215   2.203   1.076   0.308 -0.3392  1.9308  0.9789
19790SOL     OW64216   0.950   8.906   7.916 -0.3293 -0.2002  0.0388
19790SOL    HW164217   1.017   8.950   7.969  0.4769 -0.8978 -0.3638
19790SOL    HW264218   0.973   8.813   7.922 -0.2298 -0.3071 -1.4873
19791SOL     OW64219   5.061   6.355   3.151  0.7017  0.5220 -0.2637
19791SOL    HW164220   5.025   6.292   3.213 -1.3247  2.3173  0.4845
19791SOL    HW264221   5.100   6.301   3.083 -0.5006 -1.5356  0.5802
19792SOL     OW64222   1.160   4.328   3.614  0.3166 -0.1320  0.6071
19792SOL    HW164223   1.129   4.316   3.524  1.2964 -0.7680  0.3371
19792SOL    HW264224   1.094   4.285   3.668 -0.9037  1.2968  0.2978
19793SOL     OW64225   4.292   5.393   1.444  0.1570 -0.1579 -0.0276
19793SOL    HW164226   4.242   5.435   1.374 -2.4438 -0.3584  1.5596
19793SOL    HW264227   4.278   5.299   1.430  0.1278 -0.2181  0.3775
19794SOL     OW64228   7.401   3.808   6.762 -0.2189 -0.5219 -0.2738
19794SOL    HW164229   7.486   3.802   6.718  0.1353 -2.2592  0.5648
19794SOL    HW264230   7.345   3.854   6.699  1.1474  0.0378 -1.1256
19795SOL     OW64231   0.153   7.313   8.416  0.2067 -0.3364  0.4289
19795SOL    HW164232   0.193   7.396   8.391  1.5394 -0.7664  1.0342
19795SOL    HW264233   0.106   7.284   8.338 -0.0753  0.8587  0.1372
19796SOL     OW64234   6.336   7.654   4.730  0.2716  0.1215  0.1514
19796SOL    HW164235   6.394   7.647   4.655  0.7402 -0.7680  0.5779
19796SOL    HW264236   6.390   7.630   4.805 -0.0727  1.4016  0.8364
19797SOL     OW64237   9.476   0.033   0.210 -0.1635 -0.3984  0.5851
19797SOL    HW164238   9.470   0.054   0.303 -1.1345  0.7737  0.2779
19797SOL    HW264239   9.399   0.074   0.170  2.1231  2.4446 -1.3317
19798SOL     OW64240   6.498   9.647   3.292 -0.6690  0.5723 -0.6617
19798SOL    HW164241   6.408   9.663   3.265 -0.7129  0.1148 -0.7988
19798SOL    HW264242   6.493   9.634   3.387 -0.5110  2.2020 -0.3960
19799SOL     OW64243   5.530   2.225   8.891 -0.3666 -0.0933 -0.7118
19799SOL    HW164244   5.494   2.164   8.826  0.8796 -1.0542 -0.5314
19799SOL    HW264245   5.620   2.195   8.905 -0.2957  0.7054  0.7304
19800SOL     OW64246   2.289   1.230   7.170  0.2092 -0.3089 -0.9684
19800SOL    HW164247   2.274   1.316   7.209 -0.4329 -0.2569 -1.3216
19800SOL    HW264248   2.357   1.245   7.103  1.1706 -0.3652 -0.0262
19801SOL     OW64249   0.866   5.666   9.222 -0.7036  0.3217 -0.3854
19801SOL    HW164250   0.872   5.734   9.289 -1.5019 -1.7166  1.9114
19801SOL    HW264251   0.796   5.697   9.164 -0.6617  1.6944  0.2406
19802SOL     OW64252   0.978   4.217   8.744 -0.0134  0.1723 -0.2904
19802SOL    HW164253   1.021   4.245   8.825  0.6186  0.7376 -0.8142
19802SOL    HW264254   0.966   4.123   8.755  0.4736  0.1695  0.2766
19803SOL     OW64255   9.507   4.297   4.960 -0.5482 -0.3532  0.1973
19803SOL    HW164256   9.447   4.222   4.958 -1.0711  0.0599 -1.2212
19803SOL    HW264257   9.510   4.326   4.869 -0.1042  1.1581  0.6779
19804SOL     OW64258   7.115   4.297   4.459  0.1159  0.3108 -0.2817
19804SOL    HW164259   7.025   4.319   4.483  0.2958  1.4234 -0.5798
19804SOL    HW264260   7.169   4.356   4.511  0.7315 -0.8837  0.4943
19805SOL     OW64261   4.172   9.609   5.610 -0.2774  0.1492 -0.8130
19805SOL    HW164262   4.149   9.545   5.543  2.0479 -0.5000 -1.0682
19805SOL    HW264263   4.214   9.558   5.679  0.7977  1.2606 -0.6087
19806SOL     OW64264   9.144   7.148   4.192 -0.0527  1.1486  0.0910
19806SOL    HW164265   9.185   7.176   4.111  0.0596  0.1036 -0.2352
19806SOL    HW264266   9.213   7.153   4.258  0.3817  0.2417 -0.2735
19807SOL     OW64267   6.772   5.552   1.129  0.6133  0.0620 -0.1487
19807SOL    HW164268   6.689   5.579   1.090 -0.6950 -1.2631  1.5299
19807SOL    HW264269   6.747   5.496   1.202  3.0041 -0.0143  0.7108
19808SOL     OW64270   3.906   2.724   6.689 -0.4415  0.1205  0.0496
19808SOL    HW164271   3.899   2.669   6.611 -0.1374 -0.2827  0.3028
19808SOL    HW264272   3.999   2.747   6.693 -0.5236  0.4426  0.0883
19809SOL     OW64273   5.551   5.714   8.416 -0.5538  0.0493 -0.3562
19809SOL    HW164274   5.626   5.770   8.434  0.7772 -1.8009  0.1665
19809SOL    HW264275   5.480   5.751   8.468 -0.7889  3.2540 -2.6610
19810SOL     OW64276   7.487   2.553   9.283 -0.2946 -0.3230  0.1796
19810SOL    HW164277   7.440   2.504   9.215 -0.3353  0.8639 -0.6948
19810SOL    HW264278   7.579   2.529   9.270 -0.0330  1.3973 -1.6866
19811SOL     OW64279   3.035   0.086   4.174  0.4368 -0.3877 -0.4723
19811SOL    HW164280   3.028   0.158   4.111  1.7787 -1.4853 -1.9725
19811SOL    HW264281   3.129   0.075   4.188  0.1768  0.1020  2.1481
19812SOL     OW64282   2.379   8.594   2.837 -0.4119  0.1774  0.0009
19812SOL    HW164283   2.468   8.585   2.872 -0.2954 -0.0993 -0.3624
19812SOL    HW264284   2.362   8.688   2.837 -0.7889  0.1378  1.7400
19813SOL     OW64285   3.130   5.566   7.213  0.2397  0.4836 -0.0254
19813SOL    HW164286   3.189   5.641   7.217  1.3750 -0.2808 -1.5244
19813SOL    HW264287   3.185   5.491   7.237 -0.9538  0.1278  1.7927
19814SOL     OW64288   9.751   4.893   1.162  0.2792  0.4300 -0.3216
19814SOL    HW164289   9.713   4.979   1.147  0.4067  0.5363 -0.0390
19814SOL    HW264290   9.728   4.843   1.084 -1.7480  0.0182  0.5037
19815SOL     OW64291   9.176   1.260   1.438 -0.1751  0.5298  0.4577
19815SOL    HW164292   9.105   1.208   1.401 -1.0310  2.3013 -0.5407
19815SOL    HW264293   9.141   1.349   1.441  3.2925  2.4855 -4.3289
19816SOL     OW64294   9.110   3.908   4.134  0.3114 -0.0365 -0.4026
19816SOL    HW164295   9.096   3.948   4.048 -1.9876 -0.4356 -0.2741
19816SOL    HW264296   9.136   3.981   4.190  3.9756 -0.0581 -1.7458
19817SOL     OW64297   7.883   9.260   7.735 -0.1409 -0.0265 -0.1888
19817SOL    HW164298   7.828   9.292   7.663 -2.4817  0.5918  1.7290
19817SOL    HW264299   7.832   9.189   7.774  0.3811  0.5854  1.7071
19818SOL     OW64300   9.072   3.538   4.353 -0.1581 -0.4662 -0.1565
19818SOL    HW164301   9.055   3.458   4.303 -1.1191  0.2540 -1.0128
19818SOL    HW264302   9.160   3.564   4.326  1.1629 -2.4607  1.8828
19819SOL     OW64303   0.143   5.110   6.631 -0.1376 -0.9570 -0.0123
19819SOL    HW164304   0.063   5.154   6.601 -0.0125 -0.6483  0.1056
19819SOL    HW264305   0.113   5.023   6.657 -0.3652 -0.9843 -0.3618
19820SOL     OW64306   6.195   0.325   4.921 -0.8145 -0.1192  0.1281
19820SOL    HW164307   6.206   0.300   5.013 -0.9056  0.2932  0.2507
19820SOL    HW264308   6.163   0.415   4.924 -1.2444 -0.2543 -0.2989
19821SOL     OW64309   4.364   1.227   7.946 -0.1088  0.7765 -0.6444
19821SOL    HW164310   4.347   1.320   7.936  0.8047  0.9790 -0.4085
19821SOL    HW264311   4.372   1.193   7.857 -1.4323  0.7211 -0.7558
19822SOL     OW64312   9.095   0.577   3.342 -0.0864  0.1437 -0.1262
19822SOL    HW164313   9.188   0.575   3.316  0.2740  2.7885  0.7588
19822SOL    HW264314   9.089   0.513   3.412  1.3001  0.5923  0.4378
19823SOL     OW64315   6.236   9.233   0.722 -0.0668 -0.1910  1.1509
19823SOL    HW164316   6.154   9.280   0.704  0.7057  0.0205 -2.5200
19823SOL    HW264317   6.243   9.169   0.652  3.5575  0.7567  0.4276
19824SOL     OW64318   0.387   6.367   3.747 -0.1607 -0.3553  0.4487
19824SOL    HW164319   0.322   6.349   3.679  1.7922 -1.1980 -1.3181
19824SOL    HW264320   0.457   6.413   3.702  0.4947  0.5424  2.2826
19825SOL     OW64321   6.802   4.312   4.742  0.2891  0.5654 -0.5805
19825SOL    HW164322   6.801   4.331   4.648  0.1335  2.1299 -0.2895
19825SOL    HW264323   6.823   4.219   4.748  3.3430  1.0630 -2.0808
19826SOL     OW64324   1.202   5.876   1.180 -0.5629  0.1553  0.0771
19826SOL    HW164325   1.263   5.926   1.125 -0.5689 -0.0881 -0.1546
19826SOL    HW264326   1.155   5.821   1.118 -3.7492  2.9877 -0.3115
19827SOL     OW64327   8.453   3.693   3.533 -0.1867  0.2384 -0.0441
19827SOL    HW164328   8.386   3.725   3.472  0.7339  0.9255 -0.7375
19827SOL    HW264329   8.495   3.620   3.487  1.7244  1.8870 -1.0963
19828SOL     OW64330   9.369   1.092   8.250  0.2732  0.0834  0.1810
19828SOL    HW164331   9.320   1.143   8.315 -0.1272 -0.4494  0.3031
19828SOL    HW264332   9.303   1.036   8.209  0.9117 -1.2793  0.9454
19829SOL     OW64333   7.128   5.852   1.975 -0.1740 -0.1502  0.4336
19829SOL    HW164334   7.208   5.903   1.984 -0.6039  0.9099 -1.2608
19829SOL    HW264335   7.145   5.793   1.901 -0.6521 -0.5307  0.6226
19830SOL     OW64336   9.414   8.991   8.343  0.1407  0.2628 -0.4807
19830SOL    HW164337   9.391   9.083   8.332  0.9818  0.5366 -0.0732
19830SOL    HW264338   9.487   8.992   8.405 -0.2072 -0.7247 -0.0335
19831SOL     OW64339   0.930   8.105   3.152 -0.8983 -0.5127 -0.0727
19831SOL    HW164340   0.943   8.123   3.245 -0.6937  0.6924 -0.3208
19831SOL    HW264341   0.874   8.027   3.150  0.5252 -1.6342  1.0451
19832SOL     OW64342   3.109   0.574   0.777 -0.4732 -0.1074  0.3228
19832SOL    HW164343   3.027   0.525   0.784 -0.9418  0.7009  0.6086
19832SOL    HW264344   3.081   0.664   0.758  0.3747  0.0456 -0.2238
19833SOL     OW64345   3.709   0.517   1.326 -0.0643 -0.1784 -0.4790
19833SOL    HW164346   3.673   0.434   1.357 -0.2839  1.0599  3.0494
19833SOL    HW264347   3.796   0.521   1.367 -0.2318  1.4638 -0.2140
19834SOL     OW64348   0.056   9.710   7.308  0.1461 -0.1927 -0.3347
19834SOL    HW164349   0.035   9.782   7.368  1.2263  0.3240 -0.5489
19834SOL    HW264350  -0.014   9.646   7.321 -0.5905  0.7010  0.1846
19835SOL     OW64351   4.433   3.943   8.332  0.0480 -0.2522 -0.1254
19835SOL    HW164352   4.420   3.981   8.245 -0.1993 -0.3003 -0.1106
19835SOL    HW264353   4.384   4.001   8.390  1.9805  1.0780  0.2906
19836SOL     OW64354   1.585   6.421   6.857 -0.2218 -0.1227  0.9381
19836SOL    HW164355   1.681   6.420   6.847 -0.4097 -2.3030 -1.5886
19836SOL    HW264356   1.569   6.375   6.939  0.8659  0.3598  1.4443
19837SOL     OW64357   6.515   8.069   6.081  0.2624  0.0400  0.2840
19837SOL    HW164358   6.434   8.027   6.109  0.2807 -2.0315 -2.3511
19837SOL    HW264359   6.487   8.151   6.040 -0.3005  0.2129  1.0067
19838SOL     OW64360   3.863   2.576   1.921  0.1569  0.3487 -0.3149
19838SOL    HW164361   3.821   2.491   1.935  0.6380  0.2203  0.4242
19838SOL    HW264362   3.940   2.574   1.979  1.3280  0.4675 -1.8159
19839SOL     OW64363   0.258   5.177   5.564 -0.3522  0.1421 -0.6532
19839SOL    HW164364   0.230   5.241   5.629  2.5293  1.4145 -0.5230
19839SOL    HW264365   0.263   5.227   5.482 -0.8815 -0.6828 -1.2159
19840SOL     OW64366   4.331   2.696   5.093  0.2670 -0.2134  0.0505
19840SOL    HW164367   4.394   2.691   5.021  0.2443 -1.6933  0.1038
19840SOL    HW264368   4.340   2.612   5.138  0.7456  0.9279  2.1777
19841SOL     OW64369   8.954   7.487   3.516  0.2064  0.0998  0.3147
19841SOL    HW164370   8.992   7.429   3.581 -0.0879 -1.0726 -0.5178
19841SOL    HW264371   9.029   7.515   3.462  0.1128 -1.1464 -0.5097
19842SOL     OW64372   9.536   1.312   3.706 -0.1111 -0.0328 -0.4514
19842SOL    HW164373   9.610   1.290   3.650 -1.4666 -0.0800 -2.3261
19842SOL    HW264374   9.512   1.228   3.747 -0.5294 -0.5033 -1.6236
19843SOL     OW64375   0.560   8.039   3.912  0.1891  0.0481 -0.8034
19843SOL    HW164376   0.590   7.964   3.860  0.0134  0.1436 -1.0470
19843SOL    HW264377   0.541   8.107   3.847 -0.4287  0.0320 -0.6480
19844SOL     OW64378   9.391   0.534   9.719 -0.5235  0.2376 -0.0456
19844SOL    HW164379   9.484   0.555   9.718 -0.6313  0.7862  0.6465
19844SOL    HW264380   9.348   0.617   9.697 -0.8109 -0.3157 -1.6400
19845SOL     OW64381   9.459   4.725   8.849  0.7817 -0.0846 -0.0553
19845SOL    HW164382   9.465   4.811   8.891  0.6487  0.0356 -0.2844
19845SOL    HW264383   9.539   4.718   8.798  0.2337  0.4116 -1.0017
19846SOL     OW64384   8.913   4.859   3.537 -0.1769  0.0283 -0.0324
19846SOL    HW164385   8.917   4.821   3.625  0.2089 -1.2028 -0.5540
19846SOL    HW264386   9.004   4.875   3.512 -0.1975 -0.7777 -0.6702
19847SOL     OW64387   3.333   7.124   6.287  0.2907 -0.0304 -0.0507
19847SOL    HW164388   3.383   7.045   6.304 -0.4037 -0.3608  0.5273
19847SOL    HW264389   3.249   7.109   6.331  0.6148  1.5689  1.2264
19848SOL     OW64390   8.947   5.686   8.428  1.1048  0.2063 -0.2090
19848SOL    HW164391   9.002   5.642   8.494  0.4080  0.7645  0.7572
19848SOL    HW264392   8.998   5.762   8.401  0.7578  0.7911  0.7761
19849SOL     OW64393   0.380   3.564   2.571 -0.4363  0.6092  0.0978
19849SOL    HW164394   0.341   3.517   2.497  0.4141 -0.0639  0.0604
19849SOL    HW264395   0.337   3.526   2.648  0.1260 -0.1306  0.0580
19850SOL     OW64396   9.676   8.823   5.769  0.3172 -0.2461 -0.6449
19850SOL    HW164397   9.706   8.742   5.809  3.0066  1.3364  0.8533
19850SOL    HW264398   9.713   8.822   5.681 -1.8279 -1.7034 -1.6105
19851SOL     OW64399   6.745   6.266   3.822 -0.5109  0.1294 -0.5032
19851SOL    HW164400   6.686   6.280   3.897 -0.3217  1.3832 -0.5727
19851SOL    HW264401   6.711   6.323   3.753 -0.0264 -0.1785 -1.0077
19852SOL     OW64402   2.329   1.387   4.587  0.0472  0.1412 -0.3041
19852SOL    HW164403   2.315   1.467   4.536  0.7378  0.6065  0.2124
19852SOL    HW264404   2.285   1.318   4.537 -1.9786  1.0948  0.0825
19853SOL     OW64405   6.030   8.499   2.104  0.2555  0.3228 -0.4438
19853SOL    HW164406   5.942   8.499   2.142  1.0179  0.8737  1.4410
19853SOL    HW264407   6.025   8.561   2.031 -0.8652  0.4908 -0.2376
19854SOL     OW64408   3.254   1.095   3.479 -0.0213 -0.3334 -0.2430
19854SOL    HW164409   3.269   1.009   3.439  1.6839  0.4474 -1.3617
19854SOL    HW264410   3.284   1.085   3.570  0.9061 -0.7134 -0.5836
19855SOL     OW64411   0.402   2.956   3.039  0.1321  0.1309 -0.4800
19855SOL    HW164412   0.370   2.977   3.127  0.7060  0.1240 -0.2663
19855SOL    HW264413   0.360   2.873   3.018 -0.4340  0.4025 -0.4380
19856SOL     OW64414   0.617   7.406   5.741 -0.3944 -0.2976  0.1574
19856SOL    HW164415   0.524   7.395   5.761 -0.6767 -1.5453 -1.6231
19856SOL    HW264416   0.642   7.327   5.694  1.7191 -0.2018  0.9918
19857SOL     OW64417   0.881   5.188   2.868  0.0383 -0.1654  0.1520
19857SOL    HW164418   0.957   5.166   2.921 -0.0108  0.7624  0.6309
19857SOL    HW264419   0.844   5.266   2.910 -1.4289 -0.8320  0.1937
19858SOL     OW64420   4.839   1.670   4.449 -0.6982  0.2413  0.1540
19858SOL    HW164421   4.922   1.714   4.467  0.9040 -0.9986 -3.2081
19858SOL    HW264422   4.830   1.675   4.354 -2.6807 -2.6942  0.0616
19859SOL     OW64423   2.737   8.148   5.388  0.0401  0.1165 -0.2568
19859SOL    HW164424   2.646   8.178   5.386  0.2794  0.8294 -1.4654
19859SOL    HW264425   2.745   8.090   5.312  0.2783 -0.9317  0.5572
19860SOL     OW64426   8.009   0.488   9.410 -0.1951  0.2334 -0.5667
19860SOL    HW164427   8.078   0.466   9.347  0.8448 -1.6602  1.0895
19860SOL    HW264428   7.947   0.415   9.404 -0.0686  0.0105  0.5861
19861SOL     OW64429   5.656   2.007   7.727 -0.0422 -0.4705  0.3680
19861SOL    HW164430   5.685   2.098   7.716  1.3583 -1.0140 -0.7328
19861SOL    HW264431   5.600   2.010   7.804  0.7556  1.1690  0.9509
19862SOL     OW64432   3.677   8.217   0.703 -0.4750  0.0783 -0.1389
19862SOL    HW164433   3.756   8.188   0.750  0.3018 -0.8211 -1.8953
19862SOL    HW264434   3.612   8.150   0.723  0.0691 -0.6896 -0.8769
19863SOL     OW64435   5.937   8.341   6.781  0.5476  0.3503  0.4888
19863SOL    HW164436   5.887   8.260   6.788  0.5062  0.3474  0.1705
19863SOL    HW264437   5.921   8.387   6.864 -1.3727  1.1548 -0.2812
19864SOL     OW64438   8.426   8.242   3.124  0.4292  0.0248  0.2904
19864SOL    HW164439   8.486   8.269   3.054  0.5505 -0.1665  0.3192
19864SOL    HW264440   8.349   8.210   3.079  0.7105 -0.5779  0.2271
19865SOL     OW64441   8.574   3.636   4.124 -0.5676  0.0027 -0.5844
19865SOL    HW164442   8.618   3.584   4.056  1.9770  0.0547  0.9025
19865SOL    HW264443   8.487   3.596   4.132  1.3894 -4.6145  0.8832
19866SOL     OW64444   4.608   4.996   0.478  0.1846 -0.1565  0.3565
19866SOL    HW164445   4.537   4.938   0.506 -0.1088 -0.6741 -1.3392
19866SOL    HW264446   4.658   5.012   0.558 -2.2436  0.8731  1.8044
19867SOL     OW64447   2.459   7.916   9.327 -0.0201 -0.1200 -0.0591
19867SOL    HW164448   2.431   7.977   9.396  0.5870  0.4795 -0.3351
19867SOL    HW264449   2.411   7.835   9.347 -0.0336  0.1115  0.9319
19868SOL     OW64450   0.727   9.608   4.301  0.3540 -0.0618  0.0119
19868SOL    HW164451   0.815   9.572   4.294  0.1256 -0.2483 -3.2992
19868SOL    HW264452   0.700   9.625   4.211 -3.4251 -0.9615  0.7963
19869SOL     OW64453   4.786   9.246   4.186 -0.0555  0.5816  0.1913
19869SOL    HW164454   4.870   9.246   4.232 -0.4489  0.8894  0.9147
19869SOL    HW264455   4.808   9.219   4.096  0.6318 -0.6980  0.7196
19870SOL     OW64456   4.115   2.154   6.830  0.5419 -0.4033  0.0418
19870SOL    HW164457   4.150   2.081   6.778  0.3467 -1.2447  1.0523
19870SOL    HW264458   4.171   2.228   6.808  1.1703 -1.0267 -0.5093
19871SOL     OW64459   5.229   0.594   9.412 -0.1635  0.0042 -0.2511
19871SOL    HW164460   5.275   0.654   9.470  2.0292 -0.6593 -1.2026
19871SOL    HW264461   5.244   0.507   9.449 -1.4031 -0.1771 -0.1260
19872SOL     OW64462   7.216   4.144   5.860 -0.3246 -0.6979 -0.3328
19872SOL    HW164463   7.166   4.224   5.847 -0.7540 -1.0126 -0.6640
19872SOL    HW264464   7.150   4.076   5.872  0.0315 -1.0476 -0.3140
19873SOL     OW64465   0.141   3.344   3.586  0.2648 -0.1494 -0.1416
19873SOL    HW164466   0.191   3.294   3.522 -1.9368 -2.1301 -0.4539
19873SOL    HW264467   0.062   3.370   3.540 -0.5988 -0.1148  1.2854
19874SOL     OW64468   0.676   6.201   1.802 -0.1087 -0.3782  0.4160
19874SOL    HW164469   0.748   6.139   1.784  1.4244  1.1851  0.8780
19874SOL    HW264470   0.629   6.162   1.875  1.3982 -0.5755  1.3218
19875SOL     OW64471   2.164   8.278   4.162 -0.2023  0.2716  0.3950
19875SOL    HW164472   2.075   8.247   4.144 -0.0250 -0.7787  1.2257
19875SOL    HW264473   2.220   8.204   4.138  0.4435  0.8733  0.0163
19876SOL     OW64474   5.762   6.088   4.286  0.7026 -0.6954  0.1268
19876SOL    HW164475   5.698   6.148   4.324  1.4540 -0.3194  0.8271
19876SOL    HW264476   5.801   6.043   4.361  1.0579 -1.1395 -0.3123
19877SOL     OW64477   3.544   4.757   5.116  0.7537 -0.4785  0.0020
19877SOL    HW164478   3.526   4.750   5.210  0.5485 -1.2926 -0.0902
19877SOL    HW264479   3.506   4.678   5.078 -2.2017  1.3366 -1.2390
19878SOL     OW64480   5.588   1.043   9.648  0.0340 -0.4942 -0.2159
19878SOL    HW164481   5.551   0.960   9.678  1.1678 -1.9156 -2.4358
19878SOL    HW264482   5.650   1.018   9.579 -0.2555  2.2617 -1.6341
19879SOL     OW64483   0.218   3.997   1.390 -0.1517  0.0587  0.4560
19879SOL    HW164484   0.309   4.010   1.363 -0.4274  1.2760  0.0387
19879SOL    HW264485   0.213   4.039   1.476 -0.3713  0.2034  0.3723
19880SOL     OW64486   0.060   9.437   5.282  0.4075  0.1109 -0.1730
19880SOL    HW164487  -0.022   9.479   5.307  0.4872  0.4837 -0.5292
19880SOL    HW264488   0.062   9.443   5.187  2.3434  3.0364 -0.0799
19881SOL     OW64489   6.653   1.565   2.265 -0.1394 -0.2915  0.1842
19881SOL    HW164490   6.640   1.643   2.319 -1.2926 -1.0139  1.0090
19881SOL    HW264491   6.609   1.585   2.183  0.3466  0.2593  0.0543
19882SOL     OW64492   8.040   9.414   8.668 -0.5599  0.2814 -1.5222
19882SOL    HW164493   7.980   9.488   8.676 -0.4976  0.2237 -0.2900
19882SOL    HW264494   8.116   9.449   8.621 -0.1395  1.2770 -0.1660
19883SOL     OW64495   4.379   4.837   5.729  0.0420 -0.1973  0.1996
19883SOL    HW164496   4.350   4.918   5.686 -1.0458  0.0547  1.3523
19883SOL    HW264497   4.374   4.856   5.823  0.0398 -1.5126  0.4883
19884SOL     OW64498   0.068   1.574   1.845  0.0100 -0.6983 -0.2096
19884SOL    HW164499   0.088   1.541   1.757  1.9319 -0.3559  0.0569
19884SOL    HW264500   0.020   1.502   1.886 -3.2495  0.0915 -2.3060
19885SOL     OW64501   8.005   4.391   1.475  0.4080  0.3536  0.9612
19885SOL    HW164502   8.059   4.452   1.425 -0.9490 -1.6191 -3.5451
19885SOL    HW264503   8.062   4.316   1.490  0.9283  1.0939  2.9201
19886SOL     OW64504   4.077   3.449   0.217 -0.7015  0.1374  0.0094
19886SOL    HW164505   4.162   3.489   0.196  0.0191 -1.8876 -1.2713
19886SOL    HW264506   4.015   3.521   0.216  1.0339  1.7372  1.3292
19887SOL     OW64507   6.793   4.819   0.008 -0.2670  0.7592  0.1614
19887SOL    HW164508   6.736   4.853   0.077  0.6876  1.9785  0.3829
19887SOL    HW264509   6.733   4.786  -0.059 -1.2125 -0.3902  1.5157
19888SOL     OW64510   1.699   0.102   0.133  0.3427 -0.2028 -0.2738
19888SOL    HW164511   1.657   0.184   0.160 -1.5836 -0.9106 -0.9298
19888SOL    HW264512   1.698   0.106   0.037  2.2248 -0.0715 -0.3240
19889SOL     OW64513   2.722   8.063   8.058 -0.4322 -0.5073 -0.4480
19889SOL    HW164514   2.752   8.076   8.148 -2.4852 -0.7741  0.3268
19889SOL    HW264515   2.763   8.135   8.009  2.3460 -1.4949  0.2166
19890SOL     OW64516   1.617   6.516   3.575 -0.2236 -0.2276  0.1347
19890SOL    HW164517   1.684   6.552   3.517 -0.4507 -1.4541 -0.9630
19890SOL    HW264518   1.666   6.468   3.642  0.0266  0.1850  0.2465
19891SOL     OW64519   6.504   8.243   9.640  0.2334 -0.1604  0.1407
19891SOL    HW164520   6.517   8.204   9.554  2.4279  1.0943 -0.1737
19891SOL    HW264521   6.445   8.317   9.623 -0.0722 -0.4530 -0.1016
19892SOL     OW64522   2.828   2.995   1.305  0.0095  0.4334  0.2553
19892SOL    HW164523   2.794   3.082   1.324  1.6208  1.2232 -0.2815
19892SOL    HW264524   2.761   2.955   1.249 -1.1198  0.9857  1.1538
19893SOL     OW64525   2.124   4.635   0.173  0.2724 -0.8561 -0.2106
19893SOL    HW164526   2.112   4.729   0.187 -0.0625 -0.8485 -0.5421
19893SOL    HW264527   2.104   4.595   0.258  0.1087 -0.6566 -0.1558
19894SOL     OW64528   9.182   0.728   4.971 -0.1145  0.4550 -0.9512
19894SOL    HW164529   9.227   0.801   4.927  1.6969  0.4124  0.7104
19894SOL    HW264530   9.178   0.660   4.905 -2.6018  2.2432 -2.8368
19895SOL     OW64531   6.650   5.027   2.191 -0.0998 -0.0746  0.9777
19895SOL    HW164532   6.642   5.053   2.099 -1.1128  0.6150  1.2412
19895SOL    HW264533   6.632   5.107   2.240 -2.1040 -0.9741  1.8080
19896SOL     OW64534   0.603   7.611   0.966  0.0089 -0.0968  0.0419
19896SOL    HW164535   0.591   7.705   0.979 -0.1899 -0.3037  1.5285
19896SOL    HW264536   0.622   7.577   1.053  2.3293 -1.1264 -0.7744
19897SOL     OW64537   0.100   0.591   9.159  0.1945 -0.3067  0.0672
19897SOL    HW164538   0.014   0.565   9.191  0.0831  0.0755  0.0780
19897SOL    HW264539   0.100   0.687   9.165  0.4645 -0.2812 -0.3304
19898SOL     OW64540   7.669   9.659   1.892  0.0578  0.1606  0.0225
19898SOL    HW164541   7.619   9.736   1.864 -0.8729 -0.3369  0.2787
19898SOL    HW264542   7.741   9.695   1.945  0.2094  0.9092 -0.6717
19899SOL     OW64543   5.894   4.612   7.354 -0.5684 -0.5080 -0.0824
19899SOL    HW164544   5.944   4.688   7.324 -1.3614 -0.1861 -0.6081
19899SOL    HW264545   5.918   4.604   7.447  2.0669 -1.6561 -0.7614
19900SOL     OW64546   7.088   4.381   7.928  0.2532 -0.1134  0.0793
19900SOL    HW164547   7.176   4.394   7.964  0.0860  2.7478 -0.3366
19900SOL    HW264548   7.040   4.335   7.997  1.4471  0.3097  1.2323
19901SOL     OW64549   2.780   8.235   4.005  0.0619  0.6251  0.2807
19901SOL    HW164550   2.830   8.169   3.956 -2.4997  0.6207 -2.5894
19901SOL    HW264551   2.815   8.319   3.975 -3.2752  0.7743 -4.1993
19902SOL     OW64552   8.071   8.362   0.968  0.2383 -0.1465 -0.0885
19902SOL    HW164553   8.095   8.441   0.920  0.2809  0.0543  0.2564
19902SOL    HW264554   8.110   8.290   0.917  0.1223  0.0460 -0.4494
19903SOL     OW64555   1.514   8.036   3.891  0.3073 -0.2764  0.2239
19903SOL    HW164556   1.534   8.087   3.970  1.9237 -0.0965 -0.2710
19903SOL    HW264557   1.502   7.947   3.923  1.3715 -0.2838  0.6417
19904SOL     OW64558   4.763   7.819   2.901  1.0820 -0.1628  0.0571
19904SOL    HW164559   4.684   7.766   2.911  0.1003  1.2658  0.1888
19904SOL    HW264560   4.750   7.866   2.818  1.6279  0.3557  0.2581
19905SOL     OW64561   1.466   2.665   0.899 -0.3288 -0.2392 -0.3757
19905SOL    HW164562   1.507   2.660   0.986 -0.1997 -1.1760 -0.4849
19905SOL    HW264563   1.462   2.759   0.880 -0.1878 -0.0319  0.5630
19906SOL     OW64564   3.428   3.922   7.194  0.2644 -0.0890 -0.4356
19906SOL    HW164565   3.485   3.918   7.118 -0.9519  1.4377 -1.4815
19906SOL    HW264566   3.473   3.982   7.254  0.7293 -0.5027 -0.3588
19907SOL     OW64567   5.635   0.817   0.901  0.0923 -0.1902 -0.0482
19907SOL    HW164568   5.553   0.866   0.912  0.0556  0.2722 -2.1030
19907SOL    HW264569   5.638   0.793   0.809  1.5878 -1.4901  0.2810
19908SOL     OW64570   2.759   4.740   5.974  0.2386 -0.2669  0.4483
19908SOL    HW164571   2.841   4.742   5.923 -0.2601 -1.0798 -0.4180
19908SOL    HW264572   2.695   4.782   5.916 -0.0137  0.1779  1.0442
19909SOL     OW64573   3.860   7.543   0.478  0.4392  1.1255 -1.0416
19909SOL    HW164574   3.848   7.561   0.385 -1.3876 -1.7592 -1.5216
19909SOL    HW264575   3.843   7.449   0.486  4.4307  0.3769  1.6359
19910SOL     OW64576   8.127   7.796   9.686 -0.1784  0.0889  0.0065
19910SOL    HW164577   8.126   7.801   9.590  0.1096  1.1917  0.0486
19910SOL    HW264578   8.040   7.766   9.710 -0.6282  0.8992 -0.5641
19911SOL     OW64579   9.585   6.209   9.499 -0.2375  0.4042 -0.8178
19911SOL    HW164580   9.643   6.134   9.487 -0.1348  0.5765 -1.4136
19911SOL    HW264581   9.595   6.261   9.419 -2.8804 -0.6931 -1.9883
19912SOL     OW64582   7.966   7.264   1.535  0.3565 -0.4269  0.2617
19912SOL    HW164583   7.916   7.232   1.460 -0.3626 -1.4671  1.1562
19912SOL    HW264584   8.021   7.190   1.560  3.1967  0.9751 -1.2977
19913SOL     OW64585   8.932   3.638   8.806  0.3872 -0.2602 -0.5337
19913SOL    HW164586   8.949   3.658   8.898  1.4077  0.7495 -0.9200
19913SOL    HW264587   9.001   3.576   8.782  0.6480  0.1551 -0.8534
19914SOL     OW64588   3.228   5.477   5.050 -0.5985 -0.5136  0.3911
19914SOL    HW164589   3.246   5.544   4.984  0.3414 -2.0971 -1.0515
19914SOL    HW264590   3.291   5.407   5.031 -1.5140 -1.8087  1.8445
19915SOL     OW64591   0.178   0.650   9.480 -0.1056  0.4912 -0.0468
19915SOL    HW164592   0.226   0.670   9.399 -0.3700 -1.7279 -0.8343
19915SOL    HW264593   0.120   0.725   9.493  0.8339  1.4596 -1.2236
19916SOL     OW64594   9.299   2.706   7.773 -0.5801  0.5094 -0.1840
19916SOL    HW164595   9.235   2.724   7.703 -1.9268  0.8585  1.0863
19916SOL    HW264596   9.383   2.732   7.735 -0.9645 -1.0759 -2.3580
19917SOL     OW64597   2.830   5.835   2.006  0.0530 -0.1151 -0.2720
19917SOL    HW164598   2.915   5.877   2.017 -0.3301  0.8307 -0.8684
19917SOL    HW264599   2.836   5.789   1.922 -0.7280  1.7674 -1.4303
19918SOL     OW64600   4.360   7.953   4.027 -0.7346  0.0691  0.5015
19918SOL    HW164601   4.394   7.999   3.951 -0.5196  0.9767  1.1297
19918SOL    HW264602   4.379   8.011   4.101 -2.0666 -0.2141  1.0941
19919SOL     OW64603   1.147   7.287   7.447 -0.4175 -0.2708 -0.6115
19919SOL    HW164604   1.242   7.289   7.438 -0.2694 -1.3929  0.4413
19919SOL    HW264605   1.118   7.228   7.377 -0.2510 -0.6853 -0.3305
19920SOL     OW64606   3.182   9.426   7.346 -0.0053  0.1307 -0.0440
19920SOL    HW164607   3.177   9.491   7.277  0.1973  0.2876  0.0870
19920SOL    HW264608   3.127   9.460   7.416  0.6931  0.5352  0.3239
19921SOL     OW64609   9.706   4.709   9.370  0.0497 -0.6520  0.3070
19921SOL    HW164610   9.646   4.696   9.296 -0.9228  1.3342  0.6844
19921SOL    HW264611   9.746   4.794   9.353  0.5870 -0.6436  1.5565
19922SOL     OW64612   6.391   2.613   1.942 -0.1601 -0.0634  0.2621
19922SOL    HW164613   6.411   2.605   2.036  1.7613 -0.9663 -0.1953
19922SOL    HW264614   6.432   2.537   1.902  0.3411  1.1042 -1.5294
19923SOL     OW64615   7.380   6.319   5.075 -0.0501 -0.2470  0.4730
19923SOL    HW164616   7.322   6.395   5.067  0.0887 -0.1933 -0.0706
19923SOL    HW264617   7.458   6.344   5.025  1.1876  0.3963  2.6273
19924SOL     OW64618   3.402   1.855   0.804  0.1119  0.1621  0.1213
19924SOL    HW164619   3.411   1.829   0.712  0.3884 -1.3045  0.5313
19924SOL    HW264620   3.490   1.843   0.840 -0.3131 -0.6738  0.9042
19925SOL     OW64621   7.076   0.167   7.740  0.0092 -0.0532  0.4110
19925SOL    HW164622   7.164   0.174   7.703 -0.5859 -4.3490 -2.5297
19925SOL    HW264623   7.043   0.257   7.741  3.4064  1.3793 -1.0680
19926SOL     OW64624   1.587   9.348   1.514  0.9305  0.0299  0.3338
19926SOL    HW164625   1.654   9.354   1.445  3.1859  0.0433  2.3983
19926SOL    HW264626   1.606   9.265   1.558 -0.5919 -0.0667  0.8412
19927SOL     OW64627   4.943   4.506   4.401  0.3113 -0.4190  0.2906
19927SOL    HW164628   4.864   4.551   4.433  1.5067  3.1396 -1.2602
19927SOL    HW264629   4.999   4.499   4.478  1.3361  3.9253  0.2227
19928SOL     OW64630   0.349   1.909   2.877 -0.1347 -0.0221 -0.0288
19928SOL    HW164631   0.440   1.898   2.905  0.5478 -0.3478 -2.1877
19928SOL    HW264632   0.339   2.003   2.863 -0.6745  0.2266  1.7708
19929SOL     OW64633   8.190   9.531   3.768 -0.8530 -0.4629  0.0868
19929SOL    HW164634   8.261   9.491   3.819  0.1290 -0.9356 -1.5634
19929SOL    HW264635   8.110   9.508   3.815 -0.2212 -3.3759 -0.0808
19930SOL     OW64636   6.762   6.264   5.525  0.0971 -0.5493  0.3819
19930SOL    HW164637   6.759   6.356   5.551  1.8439 -0.4610  0.3845
19930SOL    HW264638   6.836   6.227   5.574  0.2466 -1.6206 -0.5919
19931SOL     OW64639   2.404   1.328   9.003 -0.1835  0.4424  0.1519
19931SOL    HW164640   2.362   1.364   8.925 -0.5624  0.5758  0.4163
19931SOL    HW264641   2.333   1.285   9.051 -0.1338  1.1360  0.8761
19932SOL     OW64642   7.443   5.328   4.548  0.0106 -0.2955 -0.4435
19932SOL    HW164643   7.425   5.357   4.459  1.0029  0.2067 -0.4894
19932SOL    HW264644   7.367   5.357   4.598 -0.7942 -1.0211 -1.2020
19933SOL     OW64645   4.009   0.293   2.594 -0.3767 -0.4539  0.1207
19933SOL    HW164646   3.979   0.376   2.556 -1.8245 -0.4224  1.2118
19933SOL    HW264647   3.960   0.226   2.547 -0.4054 -0.5665  0.3078
19934SOL     OW64648   9.440   1.162   6.686  1.0377  1.0198 -0.1326
19934SOL    HW164649   9.437   1.253   6.717  0.9545  0.9039  0.2089
19934SOL    HW264650   9.531   1.135   6.698  1.2562  1.3314 -1.0456
19935SOL     OW64651   6.128   5.310   1.013  0.1452  0.1694 -0.0326
19935SOL    HW164652   6.199   5.369   1.039 -0.4744  0.9017  0.0513
19935SOL    HW264653   6.064   5.319   1.083  0.3417 -1.1647  0.3474
19936SOL     OW64654   3.537   4.273   8.654  0.3035 -0.2983 -0.1302
19936SOL    HW164655   3.482   4.314   8.586  2.3435  1.7322 -0.6804
19936SOL    HW264656   3.505   4.310   8.736  0.8688  0.9168 -0.4473
19937SOL     OW64657   2.860   0.975   6.780  0.2800  0.1741  0.1833
19937SOL    HW164658   2.951   0.946   6.784  0.0101 -0.9714 -1.3203
19937SOL    HW264659   2.830   0.973   6.871  1.8536  0.9514  0.7507
19938SOL     OW64660   8.065   4.957   7.744 -0.1660  0.2185 -0.5601
19938SOL    HW164661   8.091   4.944   7.653  1.9998  2.0551 -0.2696
19938SOL    HW264662   8.123   4.900   7.795  2.3247  2.9573 -0.0512
19939SOL     OW64663   0.442   3.752   9.280  0.6611 -0.3150 -0.4088
19939SOL    HW164664   0.456   3.658   9.291 -2.9229 -1.2385 -2.2570
19939SOL    HW264665   0.474   3.771   9.191  0.5552  0.0316 -0.3743
19940SOL     OW64666   5.088   0.486   2.795 -0.0877 -0.0669 -0.7197
19940SOL    HW164667   5.164   0.492   2.737  0.9948  2.2872  0.8145
19940SOL    HW264668   5.014   0.475   2.735  0.9237  2.5887 -2.6523
19941SOL     OW64669   5.956   7.825   0.343  0.3291  0.1183  0.4402
19941SOL    HW164670   5.933   7.747   0.293  0.6137  1.0614 -1.2092
19941SOL    HW264671   6.051   7.828   0.343  0.3213  1.0545 -0.5022
19942SOL     OW64672   3.424   7.554   7.850 -0.4482 -0.0408 -1.2660
19942SOL    HW164673   3.413   7.511   7.935  0.4822  2.4057  0.1901
19942SOL    HW264674   3.517   7.576   7.847 -0.7758  1.2873 -2.2070
19943SOL     OW64675   8.706   7.249   6.230  0.5564 -0.3001 -0.1719
19943SOL    HW164676   8.773   7.221   6.167  0.1698 -0.8757 -0.3391
19943SOL    HW264677   8.626   7.204   6.202  0.5339 -1.1547  1.1379
19944SOL     OW64678   7.123   8.144   4.340 -0.0391  0.1459  0.5545
19944SOL    HW164679   7.079   8.073   4.293 -0.4262  2.1788 -2.5013
19944SOL    HW264680   7.052   8.206   4.361  0.8681  2.6995 -2.9880
19945SOL     OW64681   1.383   8.786   7.770  0.0875  0.3242 -0.0019
19945SOL    HW164682   1.332   8.752   7.696 -0.6829  0.0192  0.6542
19945SOL    HW264683   1.474   8.770   7.745 -0.1927 -0.6895 -0.4551
19946SOL     OW64684   9.095   5.875   1.916  0.2153  0.3267  0.0329
19946SOL    HW164685   9.146   5.804   1.955  1.9432  1.4717 -0.0273
19946SOL    HW264686   9.089   5.940   1.986  0.0988  0.8096 -0.4247
19947SOL     OW64687   6.221   5.887   0.397  0.4920 -0.4946 -0.4958
19947SOL    HW164688   6.203   5.919   0.485  0.9957  0.0138 -0.5722
19947SOL    HW264689   6.207   5.963   0.340  1.3520 -0.4825 -0.7170
19948SOL     OW64690   0.152   4.651   9.110 -0.1735 -0.0332  0.4864
19948SOL    HW164691   0.106   4.730   9.083  0.0369 -0.6071 -1.7657
19948SOL    HW264692   0.085   4.596   9.150 -0.6220  0.6576  0.6929
19949SOL     OW64693   6.895   2.528   4.414  0.5152 -0.2910 -0.0179
19949SOL    HW164694   6.872   2.479   4.335  0.1119  0.7326 -0.5541
19949SOL    HW264695   6.859   2.615   4.399  0.5086 -0.0551  1.2623
19950SOL     OW64696   8.660   5.751   5.834  0.1227  0.1042  0.1353
19950SOL    HW164697   8.716   5.785   5.765  1.1645 -0.7827  0.5118
19950SOL    HW264698   8.692   5.794   5.914  0.7487 -0.8974  0.4522
19951SOL     OW64699   6.994   9.718   0.103  0.3566  0.4732 -0.3169
19951SOL    HW164700   7.043   9.655   0.155 -1.2093  0.0176  0.6929
19951SOL    HW264701   6.924   9.667   0.063  0.4671  1.1524 -1.4159
19952SOL     OW64702   1.327   0.814   6.873  0.3383  0.5378  0.0203
19952SOL    HW164703   1.373   0.743   6.919  2.0442  1.7091  0.2163
19952SOL    HW264704   1.371   0.894   6.903 -0.2186  1.5304 -1.6965
19953SOL     OW64705   7.962   8.454   9.485  0.0628 -0.1459 -0.0359
19953SOL    HW164706   7.990   8.505   9.561  1.1722  1.3437 -1.3618
19953SOL    HW264707   8.005   8.497   9.411 -0.5162 -1.8929 -1.4479
19954SOL     OW64708   8.309   4.912   1.682 -0.3544  0.1587 -0.0497
19954SOL    HW164709   8.308   4.981   1.748  1.0445 -0.5393  0.7539
19954SOL    HW264710   8.360   4.948   1.610  1.5103 -0.4311  0.9003
19955SOL     OW64711   2.030   6.163   9.489  0.2455 -0.3844  0.6380
19955SOL    HW164712   2.005   6.199   9.404 -2.1322 -0.9426  1.0477
19955SOL    HW264713   2.092   6.227   9.524  0.7456  0.2022 -1.1965
19956SOL     OW64714   7.850   5.178   5.890  0.3876  0.3928  0.3236
19956SOL    HW164715   7.836   5.087   5.862 -0.0991  0.2099  1.1179
19956SOL    HW264716   7.945   5.188   5.891  0.4529 -0.1667  0.3895
19957SOL     OW64717   0.677   6.156   5.229 -0.4657 -0.1785 -0.3503
19957SOL    HW164718   0.772   6.161   5.219 -0.5079  0.4779 -0.4620
19957SOL    HW264719   0.653   6.239   5.270 -0.7049 -1.2987  1.9942
19958SOL     OW64720   1.843   8.591   0.054 -0.1519 -0.1657  0.0245
19958SOL    HW164721   1.865   8.683   0.072  0.7646 -0.2277 -0.7347
19958SOL    HW264722   1.762   8.576   0.104 -0.7548  1.2830 -0.4596
19959SOL     OW64723   0.768   7.392   8.720  0.0366 -0.4947  0.3801
19959SOL    HW164724   0.736   7.424   8.635 -0.3833 -1.6114  0.1078
19959SOL    HW264725   0.796   7.302   8.703  1.2569 -0.2801  1.1224
19960SOL     OW64726   6.149   3.692   8.485  0.2345 -0.0948  0.0490
19960SOL    HW164727   6.221   3.668   8.427 -0.5997  0.6093 -1.3393
19960SOL    HW264728   6.162   3.639   8.564  3.2349  1.2097  0.5701
19961SOL     OW64729   6.602   6.238   0.913  0.2932 -0.4228 -0.4533
19961SOL    HW164730   6.609   6.155   0.866  0.0522 -0.7614  0.0997
19961SOL    HW264731   6.530   6.284   0.870 -1.1596 -1.5060  0.7219
19962SOL     OW64732   4.733   0.222   8.414 -0.0923  0.4094  0.2563
19962SOL    HW164733   4.666   0.290   8.415 -0.9952 -0.4567 -0.2696
19962SOL    HW264734   4.686   0.141   8.396  1.3009  0.0185 -2.0315
19963SOL     OW64735   7.149   1.610   4.004 -0.5092  0.3144  0.2017
19963SOL    HW164736   7.152   1.657   3.920  0.5669 -1.9675 -1.1314
19963SOL    HW264737   7.215   1.654   4.058 -0.7660  1.4164 -0.3354
19964SOL     OW64738   2.085   4.299   3.481  0.1886 -0.2574 -0.0279
19964SOL    HW164739   2.081   4.336   3.570  0.6849 -2.6902  1.0888
19964SOL    HW264740   2.108   4.374   3.425 -1.9675  1.7503  1.5756
19965SOL     OW64741   4.042   9.388   3.087 -0.4284 -0.2618  0.0745
19965SOL    HW164742   4.042   9.404   2.992  1.0489  0.7229  0.2044
19965SOL    HW264743   4.020   9.295   3.095  0.0833 -0.5361 -1.2833
19966SOL     OW64744   3.042   5.278   9.200  0.6028 -0.4150  0.6274
19966SOL    HW164745   3.086   5.198   9.225  0.6201 -0.4116  0.6072
19966SOL    HW264746   3.089   5.309   9.123  0.8468 -0.1741  0.8693
19967SOL     OW64747   9.280   1.588   9.205  0.3773  0.3736 -0.4227
19967SOL    HW164748   9.310   1.577   9.296  2.4625  0.6632 -1.0112
19967SOL    HW264749   9.211   1.654   9.210  1.0427  1.0032  0.8713
19968SOL     OW64750   2.136   4.853   1.558  0.7980 -0.0098  0.0382
19968SOL    HW164751   2.087   4.860   1.640  1.8021 -0.5972  0.7159
19968SOL    HW264752   2.220   4.895   1.577  1.1780 -0.4764 -0.5766
19969SOL     OW64753   0.976   8.047   4.285 -0.5281 -0.1795 -0.5911
19969SOL    HW164754   0.993   8.133   4.324 -1.8602 -0.6493  1.1640
19969SOL    HW264755   0.885   8.051   4.257 -0.0187 -0.3762 -2.3572
19970SOL     OW64756   7.556   6.107   4.473 -0.2776 -0.1091 -0.2532
19970SOL    HW164757   7.582   6.101   4.381 -0.0450  2.5605 -0.4258
19970SOL    HW264758   7.461   6.107   4.471 -0.2815 -0.7471 -0.4041
19971SOL     OW64759   2.841   7.087   8.838  0.0908 -0.6531 -0.1051
19971SOL    HW164760   2.792   7.056   8.762 -0.9045 -0.3606  0.4096
19971SOL    HW264761   2.852   7.181   8.823  1.2026 -0.8384 -0.5955
19972SOL     OW64762   0.717   2.605   3.292 -0.3101  0.3683  0.2403
19972SOL    HW164763   0.775   2.574   3.362  1.3381  2.7412  0.0258
19972SOL    HW264764   0.771   2.664   3.241 -3.0990  3.3674  0.4694
19973SOL     OW64765   3.519   6.800   2.772 -0.1225 -0.1722  0.2860
19973SOL    HW164766   3.441   6.849   2.748  0.1683 -0.1064 -0.5701
19973SOL    HW264767   3.564   6.784   2.689  0.3266 -0.9726  0.6671
19974SOL     OW64768   3.047   7.056   2.065 -0.1461 -0.4171  0.6692
19974SOL    HW164769   3.065   7.000   1.989  0.2641  0.9919 -0.3285
19974SOL    HW264770   2.968   7.104   2.040  1.0444  1.4386  0.2797
19975SOL     OW64771   6.226   8.449   0.073 -0.0525  0.2593 -0.3380
19975SOL    HW164772   6.215   8.357   0.048 -1.2155  0.4838 -0.7323
19975SOL    HW264773   6.320   8.461   0.082  0.0924 -1.0929  0.1911
19976SOL     OW64774   7.782   5.205   1.749 -0.2918  0.5631  0.5623
19976SOL    HW164775   7.707   5.146   1.740  0.3808  0.0648 -2.6034
19976SOL    HW264776   7.756   5.264   1.820 -2.2294 -1.6385  1.8414
19977SOL     OW64777   2.110   7.626   8.118 -0.0215  0.4545 -0.1498
19977SOL    HW164778   2.150   7.649   8.034  0.1553 -2.5423 -1.0011
19977SOL    HW264779   2.017   7.640   8.105 -0.0119 -0.1521 -0.9454
19978SOL     OW64780   6.363   4.021   9.756  0.2616 -0.3349 -0.2899
19978SOL    HW164781   6.350   3.927   9.767 -1.1425 -0.2847 -1.3106
19978SOL    HW264782   6.289   4.062   9.799  1.3402  0.3787  0.9636
19979SOL     OW64783   0.827   7.219   0.022  0.1323  0.1134  0.3145
19979SOL    HW164784   0.846   7.138   0.070  0.9459  0.6716  0.9609
19979SOL    HW264785   0.758   7.195  -0.040  1.2739 -1.4014 -0.4268
19980SOL     OW64786   4.515   2.365   5.940 -0.0970  0.5348 -0.4009
19980SOL    HW164787   4.495   2.411   6.022 -0.7356  0.6803 -0.6367
19980SOL    HW264788   4.607   2.386   5.923  0.4326 -0.5374  0.9479
19981SOL     OW64789   2.528   3.483   9.580 -0.0868 -0.0158 -0.4876
19981SOL    HW164790   2.525   3.517   9.670  0.4618  1.3636 -0.9605
19981SOL    HW264791   2.507   3.559   9.525  0.4992 -0.6104 -1.5687
19982SOL     OW64792   3.035   3.651   0.188  1.0728 -0.1316  0.0697
19982SOL    HW164793   3.100   3.720   0.187  0.9003  0.0313 -0.8441
19982SOL    HW264794   3.062   3.591   0.118  0.8705 -0.6513  0.4287
19983SOL     OW64795   8.180   3.781   9.528  0.3472 -0.2328 -0.0613
19983SOL    HW164796   8.270   3.751   9.532  0.2242 -0.5070  1.2916
19983SOL    HW264797   8.167   3.829   9.610 -0.6121  0.1835 -0.4366
19984SOL     OW64798   1.632   5.424   3.472 -0.4384  0.6690  0.4274
19984SOL    HW164799   1.562   5.394   3.414  0.2008  0.3375 -0.1844
19984SOL    HW264800   1.694   5.468   3.414  0.7806 -0.6499  0.6597
19985SOL     OW64801   8.116   5.593   6.944  0.8732 -1.2200  0.4888
19985SOL    HW164802   8.101   5.681   6.907 -0.5245 -1.4723  0.4092
19985SOL    HW264803   8.113   5.535   6.868 -1.2415 -1.6546  0.8542
19986SOL     OW64804   7.544   6.347   2.703  0.6542 -0.3822  0.6542
19986SOL    HW164805   7.451   6.362   2.715  0.1578 -1.9225 -0.7955
19986SOL    HW264806   7.572   6.415   2.641  0.6347  0.4189  1.5152
19987SOL     OW64807   7.386   9.380   0.558 -0.0007 -0.1676  0.4216
19987SOL    HW164808   7.293   9.384   0.578  0.0943 -0.4922  0.9697
19987SOL    HW264809   7.397   9.300   0.507 -0.2144  0.5634 -0.8103
19988SOL     OW64810   1.164   7.835   9.179  0.4281  0.2007 -0.6115
19988SOL    HW164811   1.143   7.742   9.171  0.5935  0.1813 -0.8153
19988SOL    HW264812   1.208   7.857   9.098  0.2915  0.4862 -0.6100
19989SOL     OW64813   3.670   6.492   7.602 -0.1348 -0.5008 -0.9069
19989SOL    HW164814   3.727   6.567   7.589 -0.6402 -0.2856 -1.9341
19989SOL    HW264815   3.721   6.417   7.570  0.8064 -0.8116  1.1095
19990SOL     OW64816   2.138   6.430   8.300  0.0623 -0.0464  0.5020
19990SOL    HW164817   2.142   6.361   8.233 -2.1868 -0.7708  1.0383
19990SOL    HW264818   2.110   6.508   8.252  0.3613 -0.0725  0.2810
19991SOL     OW64819   1.911   6.356   4.346  0.6958  0.5461 -0.0828
19991SOL    HW164820   1.859   6.314   4.278  0.1899  2.0753 -0.6580
19991SOL    HW264821   1.993   6.307   4.347 -0.1388 -0.9237 -0.2068
19992SOL     OW64822   9.239   5.676   0.702  0.5797 -0.0933 -0.3133
19992SOL    HW164823   9.331   5.702   0.697  0.4561  0.6879  0.9807
19992SOL    HW264824   9.227   5.616   0.628  2.0366  0.0391 -0.6916
19993SOL     OW64825   1.045   7.620   6.551  0.8889  0.3644  0.2997
19993SOL    HW164826   1.100   7.697   6.562  2.0400 -0.5329  1.1921
19993SOL    HW264827   1.085   7.554   6.609 -0.8685 -0.4644  0.6421
19994SOL     OW64828   4.358   1.211   2.431 -0.3152 -0.0447 -0.2755
19994SOL    HW164829   4.418   1.177   2.364 -0.5980 -2.2515  0.5171
19994SOL    HW264830   4.413   1.227   2.507 -0.5542 -1.1337  0.1390
19995SOL     OW64831   6.546   9.645   4.497 -0.5365  0.1532  0.0894
19995SOL    HW164832   6.635   9.609   4.503  0.1536  1.3618 -1.8479
19995SOL    HW264833   6.503   9.615   4.576  1.2194 -1.5022  0.5050
19996SOL     OW64834   0.297   8.489   2.553  0.2640 -0.0941 -0.8859
19996SOL    HW164835   0.323   8.563   2.499 -1.0455  0.3734 -0.9166
19996SOL    HW264836   0.239   8.437   2.496 -1.3305  0.5360  0.1133
19997SOL     OW64837   5.924   6.142   8.678 -0.2351  0.6966  0.3490
19997SOL    HW164838   5.869   6.214   8.709 -1.9428  0.8401 -2.6170
19997SOL    HW264839   5.925   6.080   8.751 -1.0984  2.4123  1.9232
19998SOL     OW64840   4.771   9.749   9.030 -0.4180 -0.0821  0.2698
19998SOL    HW164841   4.810   9.813   8.970  0.0146  0.5045  1.1501
19998SOL    HW264842   4.686   9.728   8.991 -0.2412  0.4645 -0.4270
19999SOL     OW64843   8.120   6.076   1.535 -0.7069  0.1241 -1.0076
19999SOL    HW164844   8.140   5.986   1.511 -3.0359 -0.0783 -2.4812
19999SOL    HW264845   8.161   6.129   1.467 -1.6862 -0.0363 -1.7441
20000SOL     OW64846   9.586   7.457   0.951  0.7209  0.3905 -0.8536
20000SOL    HW164847   9.605   7.494   0.865  0.9101  0.3185 -0.8433
20000SOL    HW264848   9.651   7.497   1.009 -1.2710  2.8398 -0.1190
20001SOL     OW64849   2.750   7.426   6.492  0.0916  0.3009  0.0549
20001SOL    HW164850   2.656   7.445   6.486  0.5045  2.6281 -0.1941
20001SOL    HW264851   2.781   7.484   6.561  1.1293 -1.5693  1.2158
20002SOL     OW64852   0.783   5.342   2.014 -0.1436  0.7391  0.2159
20002SOL    HW164853   0.753   5.287   2.086  0.5397 -0.8176 -0.6497
20002SOL    HW264854   0.732   5.314   1.939  0.9843  0.5089 -0.4835
20003SOL     OW64855   4.524   7.166   8.923 -0.2007 -0.3668 -0.0561
20003SOL    HW164856   4.560   7.153   8.835 -0.2878  2.2017 -0.5719
20003SOL    HW264857   4.601   7.167   8.980  0.0463 -0.2741 -0.3836
20004SOL     OW64858   3.089   3.863   9.438  0.4130 -0.3501 -0.3672
20004SOL    HW164859   3.018   3.871   9.376  1.7857 -0.0131 -1.9749
20004SOL    HW264860   3.046   3.847   9.522 -1.5596  0.7009 -1.1121
20005SOL     OW64861   3.554   5.794   7.203  0.8439  0.2177  0.0062
20005SOL    HW164862   3.567   5.708   7.163 -0.2744 -0.0945  0.2805
20005SOL    HW264863   3.460   5.798   7.219  0.9409  1.3537  0.3237
20006SOL     OW64864   7.828   5.567   5.710 -0.2172 -0.6551 -0.8106
20006SOL    HW164865   7.814   5.643   5.767 -3.5469  0.0871 -2.3803
20006SOL    HW264866   7.780   5.496   5.752 -2.0518 -0.2953 -2.1497
20007SOL     OW64867   5.752   1.555   7.735 -0.2477 -0.4787 -0.0848
20007SOL    HW164868   5.734   1.464   7.712 -2.3639 -0.4221  1.1241
20007SOL    HW264869   5.676   1.604   7.703  0.6429  0.8225 -0.3107
20008SOL     OW64870   4.822   3.363   2.823 -0.1426 -0.3366  0.0742
20008SOL    HW164871   4.877   3.387   2.897 -0.5237  0.2532  0.1651
20008SOL    HW264872   4.733   3.373   2.854 -0.3774  2.3258 -1.1725
20009SOL     OW64873   1.278   1.479   0.494 -0.4503 -0.2037  0.1360
20009SOL    HW164874   1.249   1.390   0.513 -2.3769  0.0497 -1.3516
20009SOL    HW264875   1.345   1.468   0.427 -1.9126 -0.4974 -1.3354
20010SOL     OW64876   0.414   7.829   0.284  0.2337  0.3257 -0.1594
20010SOL    HW164877   0.504   7.800   0.273  0.4657  0.7623  0.5072
20010SOL    HW264878   0.403   7.836   0.379 -0.5259  0.2021 -0.2337
20011SOL     OW64879   6.784   9.567   7.101  0.1537 -0.0284  0.4372
20011SOL    HW164880   6.706   9.514   7.113  0.4499 -0.3855  0.8181
20011SOL    HW264881   6.857   9.506   7.112  0.4837  0.1555 -0.6503
20012SOL     OW64882   5.977   5.080   4.552  0.1638 -0.2191 -0.2066
20012SOL    HW164883   5.974   5.163   4.505  0.8848 -0.2279 -0.2742
20012SOL    HW264884   6.015   5.019   4.489 -0.0166 -0.5198 -0.0288
20013SOL     OW64885   2.313   5.504   0.651 -0.0310  0.1559  0.0186
20013SOL    HW164886   2.395   5.479   0.694  1.1498  2.9196 -0.4348
20013SOL    HW264887   2.308   5.447   0.574  1.8366  0.4174 -0.3337
20014SOL     OW64888   0.229   7.485   8.018  0.6554 -0.1944  0.2831
20014SOL    HW164889   0.320   7.460   8.001  0.5621  0.4876 -1.4258
20014SOL    HW264890   0.235   7.555   8.082  1.2885 -0.6069  0.6823
20015SOL     OW64891   9.569   8.459   2.208 -0.1667  0.0457  0.1310
20015SOL    HW164892   9.523   8.377   2.223  0.2711 -0.1580  0.3849
20015SOL    HW264893   9.617   8.475   2.290 -0.4878  0.7088  0.1993
20016SOL     OW64894   5.137   2.426   4.054  0.1618 -0.3245  0.0166
20016SOL    HW164895   5.208   2.463   4.106  0.8813 -1.2410 -0.2819
20016SOL    HW264896   5.080   2.383   4.118  0.4224 -0.4581  0.1614
20017SOL     OW64897   2.635   3.769   2.143 -0.3724 -0.6710 -0.4395
20017SOL    HW164898   2.586   3.771   2.061 -0.7068  1.1725 -0.2366
20017SOL    HW264899   2.694   3.844   2.138 -0.5207 -0.4257  1.0697
20018SOL     OW64900   3.097   7.115   9.658 -0.5721 -0.5241  0.5150
20018SOL    HW164901   3.055   7.065   9.587  0.7299 -1.4383  0.3564
20018SOL    HW264902   3.191   7.101   9.644 -0.1354  2.0471  0.4303
20019SOL     OW64903   1.511   0.022   0.894  0.9234  0.1539 -0.2884
20019SOL    HW164904   1.586   0.077   0.918  0.9897  0.2336 -0.6811
20019SOL    HW264905   1.456   0.077   0.839 -0.3809  0.7247  1.4918
20020SOL     OW64906   4.242   2.967   5.961  0.6286  0.2917 -0.1055
20020SOL    HW164907   4.162   2.915   5.959  0.8739 -0.1854  1.2359
20020SOL    HW264908   4.267   2.977   5.869 -1.4993  1.3288 -0.6098
20021SOL     OW64909   1.813   7.113   7.439 -0.2730 -0.3277  0.2244
20021SOL    HW164910   1.823   7.188   7.379  1.3488 -2.2046 -2.0553
20021SOL    HW264911   1.720   7.113   7.462 -1.4349 -0.3836 -3.6711
20022SOL     OW64912   0.067   5.140   5.806 -0.2642  0.0643  0.0182
20022SOL    HW164913   0.144   5.194   5.826 -0.8128  0.8137  0.1507
20022SOL    HW264914  -0.007   5.200   5.816 -0.7768 -0.3002 -1.3530
20023SOL     OW64915   0.446   5.613   9.070 -0.1725  0.1899  0.0229
20023SOL    HW164916   0.395   5.561   9.009  0.4814  0.3652 -0.6829
20023SOL    HW264917   0.536   5.582   9.059 -0.0030  0.4169  0.6922
20024SOL     OW64918   3.382   1.591   5.230  0.0209  0.2563 -0.5561
20024SOL    HW164919   3.383   1.646   5.152 -1.6002  0.1443 -0.6820
20024SOL    HW264920   3.348   1.648   5.299 -3.4460 -0.9292 -1.0653
20025SOL     OW64921   2.929   3.501   6.656 -0.1247 -0.0167 -0.1258
20025SOL    HW164922   2.894   3.561   6.722 -1.4137 -0.6617 -0.1830
20025SOL    HW264923   2.956   3.424   6.707  2.2444  0.8263  0.0492
20026SOL     OW64924   2.998   7.156   3.147  0.5576 -0.1415  0.4483
20026SOL    HW164925   2.935   7.085   3.156  1.1522 -0.5921  1.1630
20026SOL    HW264926   3.054   7.149   3.224  0.2261  1.5265  0.8774
20027SOL     OW64927   7.634   8.996   7.294  0.6619  0.2391 -0.1588
20027SOL    HW164928   7.690   9.064   7.257 -0.8501  1.3707 -0.4605
20027SOL    HW264929   7.694   8.923   7.314  2.0353  0.9352 -1.5467
20028SOL     OW64930   6.139   6.899   5.324 -0.2396 -0.1406 -0.3831
20028SOL    HW164931   6.215   6.937   5.281  0.9999 -0.4792  1.4127
20028SOL    HW264932   6.074   6.969   5.324  1.3205  1.4158  1.1418
20029SOL     OW64933   6.579   5.781   1.265  0.0773  0.2098  0.0707
20029SOL    HW164934   6.654   5.838   1.283 -0.7915  1.0440  1.1877
20029SOL    HW264935   6.509   5.817   1.319 -0.5070 -1.9293  0.8108
20030SOL     OW64936   0.594   0.099   8.183  0.6177  0.4083  0.2572
20030SOL    HW164937   0.540   0.142   8.117 -0.4877  2.1541  2.1922
20030SOL    HW264938   0.599   0.162   8.255  0.7989 -1.8295  2.3351
20031SOL     OW64939   3.184   7.364   1.707 -0.7555 -0.1961 -0.3802
20031SOL    HW164940   3.117   7.296   1.716  0.4689 -1.2555  1.5208
20031SOL    HW264941   3.266   7.319   1.727  1.0973  0.3035 -5.3152
20032SOL     OW64942   1.372   4.301   5.005 -0.6305  0.5341  0.2329
20032SOL    HW164943   1.399   4.232   5.066 -0.3911 -0.4978 -0.9887
20032SOL    HW264944   1.294   4.338   5.044 -0.1675  0.2703  1.4385
20033SOL     OW64945   8.273   5.685   1.880 -0.5012 -0.2881  0.1389
20033SOL    HW164946   8.293   5.627   1.954 -0.7063  0.5214  0.8372
20033SOL    HW264947   8.192   5.650   1.843  0.7206 -2.0046 -1.0750
20034SOL     OW64948   0.658   7.151   8.599  0.3949  0.3047  0.9207
20034SOL    HW164949   0.708   7.074   8.625 -0.4808 -0.3667  0.6760
20034SOL    HW264950   0.567   7.126   8.614  0.0029  0.7228 -0.5661
20035SOL     OW64951   8.917   5.423   3.081  0.2407 -0.4285  0.6118
20035SOL    HW164952   9.009   5.404   3.098  0.5124  1.1852  1.0761
20035SOL    HW264953   8.906   5.514   3.107 -1.3897 -0.4614  0.1367
20036SOL     OW64954   0.625   9.265   4.066  0.4776 -0.1164 -0.0015
20036SOL    HW164955   0.538   9.299   4.045  0.2773 -1.5520 -1.7283
20036SOL    HW264956   0.685   9.319   4.016  0.7382  1.5381  1.9721
20037SOL     OW64957   2.785   0.376   3.352  0.1503 -0.2488  0.1974
20037SOL    HW164958   2.858   0.431   3.324 -0.5885  0.5438 -0.2113
20037SOL    HW264959   2.741   0.427   3.420  0.3457 -1.0036  0.9133
20038SOL     OW64960   6.402   0.609   7.454  0.3264 -0.3148  0.0081
20038SOL    HW164961   6.487   0.607   7.497  0.4593  0.4491 -0.2094
20038SOL    HW264962   6.422   0.606   7.361  0.0865 -0.7087 -0.0345
20039SOL     OW64963   1.893   6.837   0.920 -0.7283  0.2509  0.4687
20039SOL    HW164964   1.838   6.760   0.911 -0.4539  0.2083 -1.2780
20039SOL    HW264965   1.912   6.843   1.013 -1.8945 -0.9765  0.8092
20040SOL     OW64966   5.888   8.776   5.007  0.3770 -0.6236 -0.1130
20040SOL    HW164967   5.874   8.825   5.088  0.9016  0.2401 -0.5336
20040SOL    HW264968   5.848   8.690   5.024  1.1187 -0.7176  1.3171
20041SOL     OW64969   3.885   7.796   9.065  1.0280 -0.1502  0.2040
20041SOL    HW164970   3.919   7.707   9.057  1.0969 -0.0083 -1.3988
20041SOL    HW264971   3.867   7.824   8.975  0.0317  1.0864  0.7372
20042SOL     OW64972   8.936   7.263   7.886  0.5068 -0.0215  0.2135
20042SOL    HW164973   8.957   7.322   7.813  1.4689  0.5150  0.9026
20042SOL    HW264974   8.927   7.321   7.962 -2.0587 -0.3908  0.2631
20043SOL     OW64975   4.346   8.474   5.331 -0.0722 -0.3944 -0.2653
20043SOL    HW164976   4.340   8.460   5.425  0.1555 -1.0869 -0.3484
20043SOL    HW264977   4.280   8.541   5.312 -1.7735 -1.9186  0.0260
20044SOL     OW64978   0.400   6.381   6.557  0.1086 -0.1871 -0.1959
20044SOL    HW164979   0.370   6.428   6.479 -0.0934 -2.8493 -1.8542
20044SOL    HW264980   0.351   6.299   6.556  3.7566 -2.5886 -0.2239
20045SOL     OW64981   0.740   1.683   3.029  0.2326 -0.2694 -0.2903
20045SOL    HW164982   0.797   1.698   3.105  0.6204 -0.4036 -0.5567
20045SOL    HW264983   0.764   1.751   2.967  0.3060 -0.5046 -0.5213
20046SOL     OW64984   4.904   5.806   1.230  0.8385  0.1932  0.0538
20046SOL    HW164985   4.972   5.866   1.261  0.5386 -0.3506  1.8634
20046SOL    HW264986   4.929   5.721   1.265 -0.5371 -0.0963  0.3969
20047SOL     OW64987   6.173   4.832   0.355 -0.6858  0.1314 -0.6327
20047SOL    HW164988   6.087   4.869   0.335 -0.4325  0.8359 -0.4524
20047SOL    HW264989   6.235   4.894   0.317 -0.2642 -0.7451 -1.3833
20048SOL     OW64990   2.019   5.999   6.202 -0.1953 -0.0346 -0.4824
20048SOL    HW164991   1.927   5.987   6.180 -0.1532 -0.3361 -0.4870
20048SOL    HW264992   2.024   6.091   6.230 -1.0059 -0.6400  1.9568
20049SOL     OW64993   7.820   3.054   8.853  0.0249  0.1461  0.1088
20049SOL    HW164994   7.848   2.964   8.869 -0.3088 -0.0797 -0.5343
20049SOL    HW264995   7.890   3.091   8.799  0.6744  0.6045  1.2440
20050SOL     OW64996   8.748   4.980   5.442 -0.1762 -0.1173  0.2603
20050SOL    HW164997   8.766   4.960   5.534  0.3460 -0.7576  0.0256
20050SOL    HW264998   8.661   4.944   5.426 -0.5609  0.5929  0.6723
20051SOL     OW64999   6.179   9.401   0.278  0.3251 -0.1025  0.3732
20051SOL    HW165000   6.214   9.372   0.362  0.2568 -0.1250  0.3943
20051SOL    HW265001   6.138   9.322   0.241 -0.2879  0.0799  0.6494
20052SOL     OW65002   4.698   2.631   3.190  0.3501 -0.6286 -0.1846
20052SOL    HW165003   4.755   2.662   3.260  0.0369 -1.5197  0.4829
20052SOL    HW265004   4.655   2.710   3.157 -1.8282 -0.4514  2.7033
20053SOL     OW65005   9.069   3.610   2.410 -0.4115  0.1247  0.3969
20053SOL    HW165006   9.163   3.591   2.412 -0.8368 -2.7741  4.4579
20053SOL    HW265007   9.036   3.560   2.335  1.1519  0.6048 -0.6503
20054SOL     OW65008   3.023   7.378   8.308  0.0861 -0.5171 -0.2652
20054SOL    HW165009   2.955   7.358   8.244  1.6072 -0.2897 -2.0514
20054SOL    HW265010   3.065   7.457   8.274  1.2411 -0.6579  0.7630
20055SOL     OW65011   7.961   2.345   6.351 -0.4498  0.1761 -0.5219
20055SOL    HW165012   7.904   2.337   6.427  1.7511  0.6143  1.3034
20055SOL    HW265013   8.036   2.289   6.370  0.4631  0.7690 -2.0897
20056SOL     OW65014   2.230   5.466   3.838  0.0765 -1.0042 -0.4557
20056SOL    HW165015   2.316   5.440   3.871  0.4441 -1.0099 -1.3855
20056SOL    HW265016   2.226   5.560   3.852 -0.0042 -1.0944  0.1228
20057SOL     OW65017   5.625   9.613   3.961  0.3899  0.3332 -0.9939
20057SOL    HW165018   5.564   9.629   3.890 -1.5792  0.7763  0.7242
20057SOL    HW265019   5.642   9.699   3.999 -0.4977 -0.1244  0.5414
20058SOL     OW65020   0.765   4.608   8.634  0.3377 -0.3096 -0.3350
20058SOL    HW165021   0.739   4.645   8.718  0.7686  0.2749 -0.4518
20058SOL    HW265022   0.797   4.683   8.584 -2.0831 -0.1920 -1.8880
20059SOL     OW65023   7.343   3.788   7.212  0.1264 -0.0780 -0.3148
20059SOL    HW165024   7.267   3.737   7.239  1.0946 -1.5179 -0.1996
20059SOL    HW265025   7.355   3.851   7.283 -1.5747  0.9107 -0.8457
20060SOL     OW65026   6.217   8.344   3.311  0.0905 -0.0703  0.1105
20060SOL    HW165027   6.187   8.366   3.223 -0.1142  0.3888  0.2916
20060SOL    HW265028   6.312   8.353   3.307  0.3426 -2.3074 -0.6854
20061SOL     OW65029   5.483   2.114   5.487 -0.4403  0.1573 -0.0940
20061SOL    HW165030   5.416   2.115   5.418 -0.6053 -3.6495 -0.1983
20061SOL    HW265031   5.433   2.125   5.568 -0.7595  0.5873 -0.3426
20062SOL     OW65032   0.911   5.508   1.847 -0.4353 -0.1630 -0.3740
20062SOL    HW165033   0.881   5.433   1.898  0.3839 -0.6098 -0.5272
20062SOL    HW265034   1.005   5.494   1.837 -0.7574 -0.9629 -3.3795
20063SOL     OW65035   0.708   5.687   6.135 -0.0770  0.2177 -0.0717
20063SOL    HW165036   0.701   5.781   6.117 -3.1746 -0.0098 -0.5048
20063SOL    HW265037   0.716   5.681   6.230  0.4567  0.8949 -0.0649
20064SOL     OW65038   7.183   4.497   8.533 -0.1075 -0.8461  0.6235
20064SOL    HW165039   7.096   4.513   8.571 -0.3742 -2.2574  0.6847
20064SOL    HW265040   7.173   4.517   8.440 -0.3982 -0.6383  0.6980
20065SOL     OW65041   5.643   6.578   8.653 -0.0671 -0.3577 -0.1112
20065SOL    HW165042   5.698   6.502   8.669 -1.4849 -1.5630 -0.7294
20065SOL    HW265043   5.557   6.542   8.629 -0.9638  1.4378  0.1897
20066SOL     OW65044   1.662   2.256   8.396  0.0745 -0.0050 -0.0907
20066SOL    HW165045   1.637   2.241   8.305 -0.5600 -2.4358  0.4173
20066SOL    HW265046   1.580   2.258   8.444  0.4563  0.0799  0.5721
20067SOL     OW65047   3.997   1.903   2.650  0.2749 -0.1153  0.3534
20067SOL    HW165048   3.907   1.895   2.619 -0.0492 -0.0374  1.2490
20067SOL    HW265049   4.024   1.813   2.668 -0.1686 -0.0210  1.5627
20068SOL     OW65050   0.579   3.608   0.921 -0.1546 -0.8089 -0.7887
20068SOL    HW165051   0.507   3.657   0.961  0.0554 -0.9982 -0.1594
20068SOL    HW265052   0.657   3.641   0.964 -0.2311 -4.6677  3.0586
20069SOL     OW65053   6.096   2.198   9.591 -0.2240  0.2473  0.2108
20069SOL    HW165054   6.107   2.292   9.585  0.5468  0.1161 -0.6185
20069SOL    HW265055   6.184   2.163   9.603 -0.6259 -0.2955  1.7986
20070SOL     OW65056   0.380   3.677   6.943 -0.5321  0.5494 -0.3346
20070SOL    HW165057   0.416   3.707   6.859  1.1027 -0.8292 -0.1672
20070SOL    HW265058   0.352   3.757   6.987  2.0516  1.7303 -0.6484
20071SOL     OW65059   5.923   1.782   3.994 -0.1710  0.4325 -0.0728
20071SOL    HW165060   5.860   1.719   4.027 -1.4888  0.0301 -2.9980
20071SOL    HW265061   6.000   1.730   3.969 -2.0171 -0.6391 -4.4393
20072SOL     OW65062   8.798   8.821   2.854  0.1942  0.4073  0.2470
20072SOL    HW165063   8.817   8.911   2.882  2.3572  0.3991 -0.9827
20072SOL    HW265064   8.880   8.790   2.815 -0.7310 -1.8485 -0.0682
20073SOL     OW65065   3.938   4.356   6.674  0.4929  0.6509 -0.6940
20073SOL    HW165066   3.997   4.281   6.660 -0.5312 -0.3072 -0.0834
20073SOL    HW265067   3.955   4.414   6.600  0.3658 -0.8284 -1.9393
20074SOL     OW65068   9.056   6.714   1.340 -0.0343  0.6424 -0.0794
20074SOL    HW165069   9.052   6.779   1.410  1.1464  1.5104 -0.7709
20074SOL    HW265070   9.102   6.759   1.268  2.4723 -1.4773  0.0424
20075SOL     OW65071   2.212   7.437   7.057 -0.5288 -0.3874  0.3912
20075SOL    HW165072   2.261   7.388   6.991  0.7478 -0.2194  1.1789
20075SOL    HW265073   2.192   7.520   7.014 -1.4928 -1.0401 -0.4676
20076SOL     OW65074   4.408   4.757   3.505  0.4384  0.1027  0.2816
20076SOL    HW165075   4.481   4.764   3.567  1.2471 -0.1946 -0.5893
20076SOL    HW265076   4.357   4.836   3.518  0.2324 -0.2389  1.7413
20077SOL     OW65077   6.431   5.129   3.481  0.0686 -0.0064 -0.0969
20077SOL    HW165078   6.390   5.154   3.398  2.7173  0.2531 -1.4457
20077SOL    HW265079   6.427   5.033   3.482 -1.3826  0.0415  0.2892
20078SOL     OW65080   8.602   2.165   3.106 -0.0901 -0.1643  0.5493
20078SOL    HW165081   8.648   2.149   3.188 -0.7585 -0.5267  0.8655
20078SOL    HW265082   8.509   2.149   3.127 -0.2408 -0.5299 -0.3383
20079SOL     OW65083   3.535   1.286   5.615  0.3902  0.2466 -0.3728
20079SOL    HW165084   3.598   1.328   5.674  0.1691 -1.5646  1.2429
20079SOL    HW265085   3.502   1.358   5.561 -0.1402  2.2748  2.3765
20080SOL     OW65086   1.436   3.085   4.858  0.2481 -0.5025  0.0180
20080SOL    HW165087   1.502   3.114   4.921  0.6239 -1.3035  0.0009
20080SOL    HW265088   1.481   3.087   4.773  0.6537 -2.2640  0.1689
20081SOL     OW65089   7.224   2.403   8.033  0.0305  0.0643  0.1117
20081SOL    HW165090   7.172   2.481   8.054  0.6603  1.3110 -2.4950
20081SOL    HW265091   7.267   2.380   8.115 -0.0006  2.6126  0.9468
20082SOL     OW65092   1.089   6.978   3.453  0.4235 -0.2749 -0.3355
20082SOL    HW165093   1.152   6.991   3.523  1.0353 -2.1884 -0.4723
20082SOL    HW265094   1.066   7.066   3.424 -1.6208  0.7743  3.7367
20083SOL     OW65095   8.549   0.851   9.463  0.1492 -0.1306  0.4578
20083SOL    HW165096   8.555   0.861   9.368 -0.4449 -2.0473  0.1815
20083SOL    HW265097   8.502   0.768   9.476  2.2755 -1.1286  2.4080
20084SOL     OW65098   1.274   1.909   6.860 -0.1126 -0.2973 -0.6735
20084SOL    HW165099   1.225   1.990   6.878 -1.0820 -1.3415  1.8209
20084SOL    HW265100   1.208   1.847   6.830  0.1432 -0.8761 -0.0803
20085SOL     OW65101   6.523   6.886   3.792  0.3190 -0.2499 -0.0755
20085SOL    HW165102   6.453   6.821   3.800 -0.4238  0.5694  0.2107
20085SOL    HW265103   6.579   6.870   3.868  1.2219 -1.7782 -1.0029
20086SOL     OW65104   5.854   2.270   0.215  0.7139  0.1491  0.2908
20086SOL    HW165105   5.839   2.176   0.223 -0.1110  0.2857  0.4962
20086SOL    HW265106   5.892   2.296   0.299  1.1227 -0.0317  0.1625
20087SOL     OW65107   4.140   1.822   5.693 -0.2673  0.5856 -0.0828
20087SOL    HW165108   4.147   1.867   5.777 -2.6995  0.9305 -0.0011
20087SOL    HW265109   4.138   1.729   5.715 -0.2933  0.6488  0.1856
20088SOL     OW65110   8.005   8.383   9.143  0.2862 -0.4832  0.5428
20088SOL    HW165111   7.988   8.475   9.120  0.1185 -1.0749 -1.8854
20088SOL    HW265112   7.918   8.344   9.149  0.4062 -0.8651 -0.1682
20089SOL     OW65113   5.358   4.668   3.806  0.3007 -0.2145  0.0396
20089SOL    HW165114   5.338   4.755   3.841 -0.8704 -0.5178  0.1667
20089SOL    HW265115   5.453   4.661   3.811  0.2723  0.2802  1.9012
20090SOL     OW65116   2.223   4.939   2.705 -0.2088 -0.7234 -0.4802
20090SOL    HW165117   2.132   4.961   2.684 -0.0458  0.8888  0.3138
20090SOL    HW265118   2.217   4.863   2.763 -1.1671  0.3269  0.8535
20091SOL     OW65119   2.950   0.753   3.925  0.5912 -0.4249 -0.1806
20091SOL    HW165120   3.036   0.777   3.961  0.0968 -0.2118  0.8967
20091SOL    HW265121   2.969   0.725   3.836  1.8283 -0.6559  0.1282
20092SOL     OW65122   0.440   7.849   0.592  0.9113  1.1663 -0.7461
20092SOL    HW165123   0.521   7.849   0.643  0.0620 -0.1933  0.7326
20092SOL    HW265124   0.415   7.942   0.586  2.1901  1.5355 -0.6156
20093SOL     OW65125   3.453   6.645   0.316  0.0113 -0.1720  0.5410
20093SOL    HW165126   3.379   6.665   0.374 -1.0537 -0.9171 -0.5115
20093SOL    HW265127   3.461   6.721   0.260  0.2754  0.0563  0.8858
20094SOL     OW65128   7.666   9.700   9.231 -0.0384 -0.2063 -0.7423
20094SOL    HW165129   7.634   9.695   9.141 -1.5237  0.7442 -0.3057
20094SOL    HW265130   7.761   9.707   9.223 -0.2733  2.0717 -2.3394
20095SOL     OW65131   0.128   7.655   0.617 -0.1407 -0.3804 -0.0253
20095SOL    HW165132   0.213   7.614   0.603  0.2042  0.1028  0.5774
20095SOL    HW265133   0.146   7.726   0.679 -0.3248  1.9723 -2.4789
20096SOL     OW65134   5.125   5.708   1.676  0.2409  0.2754  0.2302
20096SOL    HW165135   5.146   5.652   1.601  1.2206 -0.6424  1.1546
20096SOL    HW265136   5.208   5.747   1.702  0.1132 -0.1994  1.4314
20097SOL     OW65137   5.285   6.584   4.058 -0.0837  0.1213 -0.0264
20097SOL    HW165138   5.231   6.589   3.979  1.1306  1.5652 -0.8163
20097SOL    HW265139   5.370   6.552   4.026  0.5436  1.1047  0.6084
20098SOL     OW65140   9.647   3.754   3.891  0.5062 -0.1100 -0.4865
20098SOL    HW165141   9.554   3.731   3.900 -0.0463  1.4810 -1.7019
20098SOL    HW265142   9.688   3.675   3.856 -0.4955 -0.6320 -0.5186
20099SOL     OW65143   7.449   2.061   0.007 -0.4834 -0.0484 -0.2301
20099SOL    HW165144   7.406   2.045  -0.078 -3.5215 -0.3440  1.2170
20099SOL    HW265145   7.403   2.003   0.068 -0.8243  2.5982  2.2288
20100SOL     OW65146   0.982   8.411   0.987  0.1545 -0.5333 -0.0805
20100SOL    HW165147   0.965   8.430   0.894  0.0194 -0.1368  0.0211
20100SOL    HW265148   1.069   8.372   0.989  1.1075  1.4747 -0.1513
20101SOL     OW65149   9.395   7.628   7.927 -0.1832 -0.8297  0.5496
20101SOL    HW165150   9.369   7.537   7.919 -0.1880 -1.3869  4.6683
20101SOL    HW265151   9.490   7.628   7.916 -0.4140 -0.8851 -1.7475
20102SOL     OW65152   1.030   1.690   1.324 -0.1832  0.1406  0.0046
20102SOL    HW165153   1.099   1.748   1.356  1.1687 -1.5789  0.3454
20102SOL    HW265154   0.950   1.722   1.366  0.3730  2.1816 -0.4074
20103SOL     OW65155   1.968   4.596   3.263 -0.6677  0.4768  0.2124
20103SOL    HW165156   2.041   4.534   3.270  0.3730  1.7942  1.5524
20103SOL    HW265157   2.008   4.682   3.275 -2.2331  1.3640 -0.6210
20104SOL     OW65158   3.637   1.006   8.093 -1.0140  0.1402 -0.1689
20104SOL    HW165159   3.578   1.060   8.146 -0.4030  0.6939 -0.0405
20104SOL    HW265160   3.720   1.007   8.142 -0.5867  0.2510 -0.8817
20105SOL     OW65161   9.466   6.105   5.705  0.9321 -0.2299 -0.6182
20105SOL    HW165162   9.522   6.041   5.751  1.3379  0.0944 -0.6550
20105SOL    HW265163   9.408   6.052   5.651 -0.1165 -0.6734  0.8767
20106SOL     OW65164   8.585   7.091   8.485 -0.2311  0.2420  0.5923
20106SOL    HW165165   8.501   7.074   8.528 -0.4840  0.3887  0.1600
20106SOL    HW265166   8.595   7.019   8.423  0.2159 -0.0629  1.0111
20107SOL     OW65167   3.587   7.046   7.037  0.1256  0.8303  0.4098
20107SOL    HW165168   3.503   7.086   7.013 -0.8672 -0.2789  1.8332
20107SOL    HW265169   3.646   7.121   7.047 -1.1767  1.8225  1.1415
20108SOL     OW65170   7.457   8.494   9.444 -0.5055 -0.4549 -0.2659
20108SOL    HW165171   7.409   8.575   9.427 -0.2070 -0.4486 -1.1386
20108SOL    HW265172   7.437   8.472   9.535 -0.9590  0.3485 -0.1677
20109SOL     OW65173   2.064   0.660   2.554 -0.5416 -0.5083 -0.2952
20109SOL    HW165174   2.013   0.738   2.576  0.3402 -0.0359  0.1191
20109SOL    HW265175   2.006   0.587   2.574 -1.1192  0.0175 -0.0122
20110SOL     OW65176   5.211   7.931   4.377  0.0825 -0.4334  0.1576
20110SOL    HW165177   5.200   7.929   4.282  0.5773 -1.6911  0.1059
20110SOL    HW265178   5.275   7.862   4.395 -0.0529 -0.2529  1.4155
20111SOL     OW65179   6.316   7.890   7.206 -0.2487  0.2966 -0.0217
20111SOL    HW165180   6.300   7.963   7.266 -0.3322  0.7914 -0.6349
20111SOL    HW265181   6.303   7.812   7.259  0.5672  0.7254  0.8432
20112SOL     OW65182   1.643   6.154   0.030  0.0607 -0.7081  0.2364
20112SOL    HW165183   1.617   6.179   0.118  0.2264 -0.5929  0.2549
20112SOL    HW265184   1.738   6.164   0.030  0.0570 -0.6688  0.0343
20113SOL     OW65185   3.644   8.204   6.958 -0.0116 -0.0590 -0.5587
20113SOL    HW165186   3.571   8.250   7.001 -0.1906 -0.3051 -0.5976
20113SOL    HW265187   3.603   8.151   6.890  0.1746 -0.4095 -0.4029
20114SOL     OW65188   3.734   6.060   7.684  0.3291 -0.3696  0.2382
20114SOL    HW165189   3.711   5.990   7.623 -1.5472 -0.0174  0.4861
20114SOL    HW265190   3.754   6.135   7.628 -2.1737  0.1944 -0.0333
20115SOL     OW65191   6.143   5.005   9.335  0.1584  0.4357  0.5026
20115SOL    HW165192   6.238   5.017   9.341  0.2173  0.0135  0.4729
20115SOL    HW265193   6.122   5.021   9.243  0.7028 -2.6853 -0.2938
20116SOL     OW65194   3.884   3.275   7.235 -0.5058 -0.0173 -0.0165
20116SOL    HW165195   3.905   3.367   7.216  1.0019  0.0565  1.7880
20116SOL    HW265196   3.878   3.234   7.149  1.7992  1.1478 -0.8140
20117SOL     OW65197   8.218   8.097   4.340 -0.0346  0.6457 -0.6654
20117SOL    HW165198   8.285   8.154   4.302  0.2203 -0.0835 -1.3380
20117SOL    HW265199   8.227   8.014   4.293  0.5977 -0.4576  1.2795
20118SOL     OW65200   6.384   3.742   9.521 -0.0556  0.1413 -0.3851
20118SOL    HW165201   6.300   3.698   9.523  0.1339 -0.2011  0.7406
20118SOL    HW265202   6.442   3.682   9.475  0.0040 -0.4528  0.4407
20119SOL     OW65203   2.400   2.543   1.741  0.1144  0.1411 -0.1947
20119SOL    HW165204   2.346   2.465   1.756 -1.2729  1.1614  0.3518
20119SOL    HW265205   2.424   2.539   1.649 -1.0607 -0.2676 -0.5008
20120SOL     OW65206   1.425   5.578   6.669  0.2520  0.2511  0.0959
20120SOL    HW165207   1.376   5.584   6.587  1.8104  1.5717 -0.7941
20120SOL    HW265208   1.464   5.490   6.666 -2.1982 -0.9495  0.9714
20121SOL     OW65209   5.096   5.164   3.947 -0.8342 -0.3306  0.3549
20121SOL    HW165210   5.059   5.200   4.028  2.5317 -2.1676  2.9612
20121SOL    HW265211   5.052   5.079   3.936 -0.9557 -0.2898  0.5279
20122SOL     OW65212   7.877   8.429   6.695  0.0906 -0.0029 -0.0788
20122SOL    HW165213   7.911   8.429   6.784  0.1357 -1.0662 -0.0878
20122SOL    HW265214   7.954   8.433   6.639  0.0268  2.1495 -0.0937
20123SOL     OW65215   5.999   2.592   9.152  0.0514 -0.0681  0.1230
20123SOL    HW165216   6.068   2.649   9.186 -0.6481 -0.0561  1.6216
20123SOL    HW265217   5.981   2.625   9.064  2.1249 -0.2496 -0.4338
20124SOL     OW65218   7.547   5.679   3.469 -0.4530 -0.2385  0.1070
20124SOL    HW165219   7.527   5.732   3.392 -0.0415  1.3683  1.0468
20124SOL    HW265220   7.609   5.732   3.519  0.5319 -1.9415  0.7846
20125SOL     OW65221   9.393   8.209   2.288  0.1814  0.0965 -0.0733
20125SOL    HW165222   9.299   8.211   2.270 -0.6787 -0.8620  3.4547
20125SOL    HW265223   9.413   8.116   2.300  1.3668  0.3720  0.2331
20126SOL     OW65224   6.259   0.823   9.682 -0.2930  0.6531  0.4188
20126SOL    HW165225   6.346   0.787   9.696 -0.2247  0.4292 -0.5638
20126SOL    HW265226   6.273   0.900   9.628 -0.2531  3.1900  3.6993
20127SOL     OW65227   3.394   3.322   1.490 -0.0447  0.3864 -0.2027
20127SOL    HW165228   3.344   3.242   1.476 -0.9751  0.7420  0.9380
20127SOL    HW265229   3.330   3.387   1.517  1.0732  0.6454  2.0809
20128SOL     OW65230   3.628   1.618   7.026  0.1226 -0.3313 -0.0200
20128SOL    HW165231   3.584   1.702   7.021  0.4478 -0.2211 -1.6401
20128SOL    HW265232   3.717   1.635   6.996 -0.3268 -1.5601 -2.2779
20129SOL     OW65233   1.628   0.679   1.226  0.0842  0.3515  0.0146
20129SOL    HW165234   1.721   0.698   1.217  0.1166 -0.4484 -1.7230
20129SOL    HW265235   1.607   0.706   1.315  1.4470  2.6708 -0.2797
20130SOL     OW65236   5.703   2.769   5.067  0.2705  0.0485  0.0677
20130SOL    HW165237   5.692   2.685   5.023  2.7674 -0.7280  0.7195
20130SOL    HW265238   5.617   2.788   5.105 -0.3161 -2.3585  0.1307
20131SOL     OW65239   4.037   5.423   7.909  0.1294  0.0809 -0.2117
20131SOL    HW165240   4.002   5.390   7.826 -0.7420  1.1636 -0.3027
20131SOL    HW265241   3.973   5.489   7.937  0.6098 -0.0058  1.1341
20132SOL     OW65242   5.820   8.270   4.282  0.7488  0.3638 -0.3138
20132SOL    HW165243   5.854   8.200   4.226 -0.9597  1.0670 -2.4221
20132SOL    HW265244   5.727   8.250   4.291 -0.5416  3.6892 -3.4866
20133SOL     OW65245   2.627   7.382   0.152 -0.0831  0.0102 -0.0976
20133SOL    HW165246   2.567   7.385   0.227  1.2624  0.0423  1.0212
20133SOL    HW265247   2.591   7.445   0.090  0.0661  1.7874  1.5485
20134SOL     OW65248   0.203   9.079   2.659  0.7121  0.5498  0.0825
20134SOL    HW165249   0.224   9.152   2.599 -0.3159 -0.4833 -1.6340
20134SOL    HW265250   0.201   9.119   2.746  4.4111  1.7261 -0.1985
20135SOL     OW65251   1.811   9.390   5.340  0.4416  0.0245 -0.3355
20135SOL    HW165252   1.758   9.371   5.262 -1.7386 -0.5036  1.1919
20135SOL    HW265253   1.817   9.307   5.386  0.3478  0.6551  0.8464
20136SOL     OW65254   5.515   9.377   0.050 -0.1895 -0.5037  0.5922
20136SOL    HW165255   5.599   9.340   0.022  0.4427  0.1893  1.5449
20136SOL    HW265256   5.537   9.462   0.088 -1.7566  1.8666 -3.2150
20137SOL     OW65257   1.504   7.074   6.447 -0.0934 -0.0653 -0.2203
20137SOL    HW165258   1.411   7.088   6.461 -0.4669 -1.6640 -0.8838
20137SOL    HW265259   1.546   7.112   6.524 -1.4204 -0.9287  0.9710
20138SOL     OW65260   9.625   3.681   6.867  0.2497  0.0422  0.4819
20138SOL    HW165261   9.614   3.610   6.931  0.8980 -0.6219 -0.1272
20138SOL    HW265262   9.707   3.724   6.893  1.1848 -1.0081 -0.6038
20139SOL     OW65263   2.747   5.300   8.891  0.2212 -0.2681  0.0097
20139SOL    HW165264   2.734   5.227   8.830 -0.7377  0.5204 -0.7639
20139SOL    HW265265   2.684   5.284   8.962 -0.2972  0.0142 -0.3761
20140SOL     OW65266   8.043   3.672   0.451  0.5075 -0.4625 -0.2131
20140SOL    HW165267   8.038   3.657   0.545 -1.5511  2.1542  0.2116
20140SOL    HW265268   8.136   3.686   0.434  0.8045  0.0220  1.6296
20141SOL     OW65269   7.844   4.150   2.169 -0.6353  0.6241 -0.5050
20141SOL    HW165270   7.925   4.160   2.118  0.7040 -0.5891  1.2394
20141SOL    HW265271   7.851   4.062   2.207 -2.8686  0.4358 -0.3924
20142SOL     OW65272   3.916   4.543   5.574 -0.1128 -0.5278  0.1852
20142SOL    HW165273   3.867   4.521   5.654 -1.4722  0.1734 -0.4142
20142SOL    HW265274   3.865   4.614   5.534  1.1171 -0.1524 -0.7686
20143SOL     OW65275   4.772   6.419   1.020  0.2921 -0.4723  0.1959
20143SOL    HW165276   4.808   6.437   1.107 -0.4691  1.0185  0.2435
20143SOL    HW265277   4.794   6.328   1.003  1.6164 -0.4160  1.3904
20144SOL     OW65278   1.857   6.454   8.001 -0.2040 -0.4681 -0.2898
20144SOL    HW165279   1.783   6.515   8.008  0.0274 -0.1178 -0.8326
20144SOL    HW265280   1.892   6.469   7.913 -0.9055 -2.2652 -0.9092
20145SOL     OW65281   9.220   6.844   5.649 -0.2223  0.1251 -0.0477
20145SOL    HW165282   9.189   6.778   5.712  0.6929  0.3576  0.6842
20145SOL    HW265283   9.308   6.814   5.625  0.3988  1.2989  0.6528
20146SOL     OW65284   1.495   2.222   8.994 -0.5184 -0.0173 -0.5667
20146SOL    HW165285   1.416   2.277   8.998 -0.4072  0.2781 -1.9742
20146SOL    HW265286   1.537   2.247   8.912  0.5216 -0.8981 -0.3182
20147SOL     OW65287   6.850   3.350   3.822 -0.1282  0.4941 -0.7343
20147SOL    HW165288   6.872   3.419   3.885 -0.6401 -0.4945  0.5679
20147SOL    HW265289   6.755   3.345   3.824 -0.0516 -1.1914  0.2668
20148SOL     OW65290   5.106   4.662   6.835 -0.2861  0.2417 -0.2094
20148SOL    HW165291   5.035   4.690   6.777  0.8715  0.4792 -1.5624
20148SOL    HW265292   5.093   4.712   6.916 -0.7562  1.4471 -1.0109
20149SOL     OW65293   0.854   3.443   1.633 -0.4219  0.1171  0.0639
20149SOL    HW165294   0.798   3.512   1.669 -2.3974 -2.0473  1.4928
20149SOL    HW265295   0.834   3.442   1.540 -0.6045  1.2589  0.0761
20150SOL     OW65296   8.590   1.731   3.357 -0.2488  0.6532  0.1250
20150SOL    HW165297   8.524   1.673   3.394  0.7182  1.0806  2.6762
20150SOL    HW265298   8.576   1.815   3.401  1.1939  1.1038 -0.2259
20151SOL     OW65299   0.611   1.676   1.609 -0.2334  0.4313 -0.0051
20151SOL    HW165300   0.650   1.763   1.602  2.0024 -0.6357 -2.5055
20151SOL    HW265301   0.678   1.622   1.650 -1.2180 -0.3579  0.6192
20152SOL     OW65302   6.968   3.101   8.997  0.4485  0.3613  0.0303
20152SOL    HW165303   7.044   3.110   8.940 -0.3444  0.0001 -1.1121
20152SOL    HW265304   6.893   3.101   8.938 -0.4409  0.5466  1.1182
20153SOL     OW65305   0.561   3.988   3.733  0.2039 -0.3186 -0.0449
20153SOL    HW165306   0.539   4.077   3.706  2.0730  0.2191  0.0345
20153SOL    HW265307   0.547   3.934   3.655 -4.3306 -0.7196  0.7542
20154SOL     OW65308   2.696   1.252   6.059 -0.2975 -0.3847 -0.3230
20154SOL    HW165309   2.612   1.291   6.086 -0.2009 -1.0508  0.9937
20154SOL    HW265310   2.700   1.168   6.105  0.7542 -0.7088 -0.9692
20155SOL     OW65311   4.003   0.048   1.447  0.6620 -0.4480  0.5259
20155SOL    HW165312   4.034   0.103   1.375  0.8520 -0.9191  0.2341
20155SOL    HW265313   4.009  -0.041   1.412 -0.9915 -0.5759  0.4774
20156SOL     OW65314   4.050   5.552   7.536  0.4904 -0.2096  0.0768
20156SOL    HW165315   4.066   5.588   7.448  0.2487 -0.7159 -0.1767
20156SOL    HW265316   4.085   5.618   7.595 -2.6389  1.9939 -0.2481
20157SOL     OW65317   0.398   3.955   4.053 -0.5586 -0.1542 -0.3555
20157SOL    HW165318   0.357   4.009   4.121 -0.8270 -1.7677  0.8160
20157SOL    HW265319   0.470   4.009   4.020 -0.6871  0.8406  0.8972
20158SOL     OW65320   5.370   6.774   8.232 -0.0824 -1.0396 -0.0595
20158SOL    HW165321   5.394   6.860   8.199  0.1145 -0.7716  0.7773
20158SOL    HW265322   5.337   6.789   8.320  0.5380 -1.8788  0.3435
20159SOL     OW65323   4.254   7.783   5.146  0.5410 -0.4994  0.2067
20159SOL    HW165324   4.325   7.756   5.089 -1.0040  1.0058 -2.6391
20159SOL    HW265325   4.175   7.751   5.103 -0.7914  1.9092  0.6598
20160SOL     OW65326   8.701   7.412   6.456  0.4282 -0.4667  0.1238
20160SOL    HW165327   8.690   7.360   6.376 -1.5466  1.1179 -0.7109
20160SOL    HW265328   8.644   7.371   6.521  0.6077 -0.6650  0.1555
20161SOL     OW65329   9.377   2.052   5.727  0.3327 -0.6783  0.3604
20161SOL    HW165330   9.281   2.061   5.731  0.4412  0.0071  2.5671
20161SOL    HW265331   9.391   1.970   5.680 -1.2716  0.0278 -1.4871
20162SOL     OW65332   2.309   6.412   9.297  0.2801  0.1265 -0.1847
20162SOL    HW165333   2.256   6.400   9.375  0.1110  1.6761 -0.0326
20162SOL    HW265334   2.310   6.325   9.255 -2.1353 -0.0479 -0.0504
20163SOL     OW65335   4.814   6.113   6.069 -0.0279 -0.1834  0.2881
20163SOL    HW165336   4.730   6.068   6.056 -0.3298 -0.0472  1.5815
20163SOL    HW265337   4.851   6.122   5.981 -1.4710 -0.0461 -0.3243
20164SOL     OW65338   8.016   4.121   2.488 -0.4127  0.2904  0.5375
20164SOL    HW165339   8.088   4.169   2.529 -0.7240  0.8513  0.4358
20164SOL    HW265340   8.052   4.033   2.473  0.1040  0.4346  0.8863
20165SOL     OW65341   6.705   2.861   9.177  0.2976 -0.1537 -0.2287
20165SOL    HW165342   6.625   2.840   9.225 -0.0168 -2.3007 -1.5801
20165SOL    HW265343   6.733   2.779   9.138  2.3184  0.8614 -1.1035
20166SOL     OW65344   7.482   6.231   2.148 -0.3102 -0.0248  0.2754
20166SOL    HW165345   7.499   6.280   2.067 -1.4827 -0.6291 -0.3697
20166SOL    HW265346   7.568   6.220   2.188  0.1581  1.2452 -0.3232
20167SOL     OW65347   2.991   2.770   6.664  0.3393 -0.5449  0.0390
20167SOL    HW165348   2.913   2.788   6.716 -1.5072 -0.8015 -2.4528
20167SOL    HW265349   3.037   2.853   6.659 -0.2706 -0.1543  0.7765
20168SOL     OW65350   2.717   5.087   7.078  0.0336 -0.0782  0.2796
20168SOL    HW165351   2.670   5.155   7.126 -1.5559 -0.0068 -1.2866
20168SOL    HW265352   2.805   5.122   7.066 -0.5757  1.4378  0.0652
20169SOL     OW65353   2.025   9.428   0.150 -0.1608 -0.2602  0.0034
20169SOL    HW165354   2.110   9.397   0.182 -0.7820 -0.1924  1.7799
20169SOL    HW265355   2.043   9.515   0.113  0.3574  0.2505  1.4158
20170SOL     OW65356   5.092   3.353   0.552  0.9498  0.0095 -0.3532
20170SOL    HW165357   5.089   3.397   0.637 -0.1522  1.2669 -1.0098
20170SOL    HW265358   5.148   3.277   0.566  3.2231  1.7804  0.7531
20171SOL     OW65359   7.830   5.404   4.959 -0.6692  0.3544  0.1770
20171SOL    HW165360   7.822   5.313   4.930  3.4577 -1.1207  2.8163
20171SOL    HW265361   7.844   5.453   4.878 -2.5758 -1.3234 -1.2933
20172SOL     OW65362   1.668   6.017   8.969 -0.3925  0.0924 -0.7024
20172SOL    HW165363   1.633   6.102   8.942  0.7440  0.1956 -2.0254
20172SOL    HW265364   1.760   6.020   8.941  0.1227 -0.9364  0.7566
20173SOL     OW65365   5.098   5.843   9.694 -0.1033 -0.2151  0.0787
20173SOL    HW165366   5.158   5.904   9.652 -0.2824 -1.0580 -1.4809
20173SOL    HW265367   5.022   5.840   9.636 -0.2394 -1.6507  0.2834
20174SOL     OW65368   8.899   6.591   7.379 -0.3000  0.1045  0.3908
20174SOL    HW165369   8.943   6.538   7.312 -1.3666  0.1690 -0.3714
20174SOL    HW265370   8.952   6.671   7.384  0.4759 -0.3982  0.5108
20175SOL     OW65371   2.712   1.504   9.643  0.3291  0.0227  1.3948
20175SOL    HW165372   2.630   1.454   9.641 -0.0176  0.5978  0.9077
20175SOL    HW265373   2.733   1.512   9.736 -1.5954  2.1376  1.7520
20176SOL     OW65374   0.468   9.136   4.870 -0.3153  0.2304 -0.3209
20176SOL    HW165375   0.558   9.159   4.850 -0.5678  0.2980 -1.4599
20176SOL    HW265376   0.467   9.040   4.869 -0.2037  0.2248 -0.0193
20177SOL     OW65377   5.616   0.465   9.497 -0.2001  0.6967  0.3419
20177SOL    HW165378   5.585   0.497   9.581  0.4923 -0.0001  0.8736
20177SOL    HW265379   5.661   0.383   9.517  0.0673  0.5688 -0.6914
20178SOL     OW65380   0.108   2.071   7.738 -0.1677 -0.3352  0.1027
20178SOL    HW165381   0.202   2.086   7.726  0.0856 -1.0564  1.0198
20178SOL    HW265382   0.082   2.135   7.805  0.2145 -1.6880  1.6140
20179SOL     OW65383   9.686   8.434   2.841 -0.4442  0.3950  0.0110
20179SOL    HW165384   9.679   8.340   2.860 -3.1266  0.9311  2.0863
20179SOL    HW265385   9.781   8.449   2.834  0.0911 -2.3289  0.1905
20180SOL     OW65386   2.308   5.363   8.147  0.0462  0.0503 -0.5349
20180SOL    HW165387   2.241   5.396   8.087 -1.8593 -0.1836  1.3413
20180SOL    HW265388   2.390   5.401   8.115 -1.5017  3.7946 -0.5536
20181SOL     OW65389   1.019   3.949   7.696 -1.0050  0.0095 -0.4386
20181SOL    HW165390   0.952   3.947   7.627 -0.8957 -0.6328 -0.5307
20181SOL    HW265391   0.969   3.954   7.777 -1.1888 -0.9937 -0.4800
20182SOL     OW65392   2.208   3.100   8.048 -0.4875  0.6070 -0.1126
20182SOL    HW165393   2.198   3.058   8.134 -1.6319  2.7098  0.8673
20182SOL    HW265394   2.231   3.191   8.068  0.2068  0.9106 -2.0731
20183SOL     OW65395   0.812   4.163   3.442 -0.3456 -0.1618 -0.3626
20183SOL    HW165396   0.826   4.193   3.532  0.9682 -0.0689 -0.5803
20183SOL    HW265397   0.858   4.227   3.388 -1.4461  0.0006 -1.1445
20184SOL     OW65398   3.907   9.693   8.401 -0.0058 -0.7924 -0.0034
20184SOL    HW165399   3.946   9.686   8.488 -0.0766 -0.3288  0.0656
20184SOL    HW265400   3.851   9.616   8.393  0.4104 -1.1147  0.1555
20185SOL     OW65401   5.685   1.382   4.261 -0.0853 -0.3144  0.1632
20185SOL    HW165402   5.668   1.327   4.184 -2.7355  0.6186 -0.0228
20185SOL    HW265403   5.599   1.417   4.285  1.1655  2.1007  1.5195
20186SOL     OW65404   5.695   6.558   9.692  0.1403 -0.1371  0.7839
20186SOL    HW165405   5.674   6.641   9.651  1.4483 -0.1995 -0.1127
20186SOL    HW265406   5.784   6.570   9.725  0.1233 -0.9887  1.1634
20187SOL     OW65407   9.285   7.700   3.605 -0.4380 -0.8379 -0.3383
20187SOL    HW165408   9.368   7.730   3.570 -0.6076  0.6509  0.4294
20187SOL    HW265409   9.237   7.666   3.530  0.4239 -0.6550 -0.9783
20188SOL     OW65410   9.623   2.229   2.515 -0.4555 -0.3231 -0.2108
20188SOL    HW165411   9.696   2.176   2.548  2.3864  3.6444  0.6173
20188SOL    HW265412   9.574   2.255   2.593  0.3886  1.0995 -0.1111
20189SOL     OW65413   9.394   1.204   9.024  0.0370  0.6924  0.0062
20189SOL    HW165414   9.477   1.188   8.979  0.0265  0.8023 -0.0543
20189SOL    HW265415   9.411   1.179   9.115 -0.1777 -0.2773 -0.2113
20190SOL     OW65416   5.751   3.155   7.235 -0.2427 -0.2112 -0.8304
20190SOL    HW165417   5.682   3.173   7.171 -0.5177  5.8083  0.5213
20190SOL    HW265418   5.824   3.211   7.207  0.7577  0.2694  2.3445
20191SOL     OW65419   5.392   4.930   2.144  0.0935  0.6960 -0.4469
20191SOL    HW165420   5.314   4.885   2.113 -0.7855  1.5703  0.4598
20191SOL    HW265421   5.465   4.880   2.105 -0.8976  0.0787 -1.5783
20192SOL     OW65422   6.152   9.374   3.156  0.1073  0.0249 -0.1282
20192SOL    HW165423   6.141   9.468   3.161  0.2241  0.0214  0.2085
20192SOL    HW265424   6.247   9.361   3.146  0.2428 -0.1086  1.2571
20193SOL     OW65425   1.342   9.068   1.261 -0.1533 -0.1664  0.6273
20193SOL    HW165426   1.369   9.149   1.303  0.3159  0.6434 -1.1443
20193SOL    HW265427   1.279   9.095   1.195  0.8194 -1.0835 -0.7360
20194SOL     OW65428   6.422   4.168   8.244  0.2070  0.0680  0.4139
20194SOL    HW165429   6.406   4.206   8.158 -1.7910  1.8690  1.4488
20194SOL    HW265430   6.493   4.220   8.281  0.8121 -0.4639  0.0206
20195SOL     OW65431   2.480   5.026   8.016 -0.2162  0.4801 -0.1082
20195SOL    HW165432   2.552   5.089   8.025 -0.2027  0.6889 -1.4361
20195SOL    HW265433   2.503   4.976   7.937 -0.3535 -1.0260  0.7703
20196SOL     OW65434   8.246   9.183   5.771  0.5385 -0.3457 -0.0321
20196SOL    HW165435   8.159   9.150   5.750  0.0685 -0.3045  1.6814
20196SOL    HW265436   8.272   9.234   5.695 -0.8735 -0.4816 -0.6323
20197SOL     OW65437   8.387   8.945   3.845  0.5159 -0.1064  0.0994
20197SOL    HW165438   8.300   8.919   3.812 -0.2767  0.2532  1.7758
20197SOL    HW265439   8.395   8.899   3.928  1.3534  0.9209  0.6043
20198SOL     OW65440   0.586   2.236   4.139  0.1778  0.3221 -0.4403
20198SOL    HW165441   0.598   2.157   4.192 -0.6449  0.2844 -0.2878
20198SOL    HW265442   0.656   2.233   4.074  0.7326 -0.0314  0.1645
20199SOL     OW65443   3.773   3.897   9.587  0.5891 -0.2378  0.3389
20199SOL    HW165444   3.813   3.931   9.667  1.7026 -0.2486 -0.1857
20199SOL    HW265445   3.690   3.944   9.579 -0.0312 -0.9804  2.0228
20200SOL     OW65446   4.228   1.371   7.275 -0.3343  0.3165  0.2361
20200SOL    HW165447   4.278   1.351   7.196 -0.0731  3.3194 -0.4694
20200SOL    HW265448   4.281   1.334   7.346  1.1715  0.4790 -0.7498
20201SOL     OW65449   8.900   7.601   7.440 -0.0194 -0.0935 -0.0514
20201SOL    HW165450   8.983   7.567   7.472 -0.8571 -2.4566 -0.1414
20201SOL    HW265451   8.856   7.634   7.518 -0.1477 -1.5394  0.5290
20202SOL     OW65452   6.829   4.360   5.385  0.4357 -0.1349  0.2665
20202SOL    HW165453   6.901   4.323   5.436 -0.4387 -1.1501  0.7951
20202SOL    HW265454   6.829   4.309   5.304  0.1473 -0.3125  0.3785
20203SOL     OW65455   5.096   8.054   2.795  0.5079  0.1163  0.4987
20203SOL    HW165456   5.061   8.143   2.789  2.0872  0.9163  2.0520
20203SOL    HW265457   5.116   8.030   2.704 -1.5573  0.6167 -0.1299
20204SOL     OW65458   3.996   9.612   0.059  0.4364  0.3807  0.0599
20204SOL    HW165459   3.911   9.623   0.103 -0.3550  0.7274 -1.4954
20204SOL    HW265460   3.995   9.521   0.028 -0.4050  1.0486 -1.9912
20205SOL     OW65461   5.559   9.049   4.560 -0.3275 -0.0644 -0.4432
20205SOL    HW165462   5.607   9.021   4.638 -1.3673  1.2849  0.7442
20205SOL    HW265463   5.467   9.037   4.584 -0.7461  2.2881 -0.6266
20206SOL     OW65464   8.913   3.436   7.098  0.0570  0.0138  0.2804
20206SOL    HW165465   8.913   3.486   7.017 -0.7334  0.8855  0.7987
20206SOL    HW265466   8.858   3.487   7.158  0.8028 -0.4990  1.4361
20207SOL     OW65467   8.918   2.280   1.378 -0.1027  0.2680 -0.1499
20207SOL    HW165468   8.964   2.227   1.313  0.1959  0.4160 -0.0606
20207SOL    HW265469   8.906   2.365   1.335  1.8399  1.0136  0.6769
20208SOL     OW65470   7.094   0.845   0.954  1.4243 -0.0762  0.2088
20208SOL    HW165471   7.145   0.835   0.875 -0.4946 -0.5256 -1.0453
20208SOL    HW265472   7.016   0.792   0.940 -0.4000  2.1521  1.0979
20209SOL     OW65473   8.918   7.350   5.796 -0.2279  0.7422  0.3773
20209SOL    HW165474   8.962   7.416   5.742  2.6673 -2.5538 -1.6855
20209SOL    HW265475   8.830   7.345   5.759 -0.5612  3.3365  0.6109
20210SOL     OW65476   7.161   6.475   6.822  0.0255  0.1813  0.0267
20210SOL    HW165477   7.143   6.551   6.878 -0.7047  0.6348 -0.8100
20210SOL    HW265478   7.253   6.455   6.838  0.6249  2.1033 -0.7689
20211SOL     OW65479   6.206   6.092   1.161 -0.1812 -0.2765 -0.8696
20211SOL    HW165480   6.258   6.066   1.085  0.3357 -0.8114 -0.3497
20211SOL    HW265481   6.123   6.121   1.125  0.2419 -0.0428 -1.6709
20212SOL     OW65482   4.368   3.006   6.885  0.6987 -1.1292 -0.5369
20212SOL    HW165483   4.280   3.035   6.911  1.2550  1.3837 -1.1874
20212SOL    HW265484   4.385   2.930   6.940 -0.9022 -0.1799  1.4327
20213SOL     OW65485   4.799   7.667   3.639  0.4010 -0.1774 -0.4387
20213SOL    HW165486   4.873   7.717   3.672  1.1537 -0.6062 -1.4119
20213SOL    HW265487   4.749   7.644   3.717  3.1151 -2.8199  0.7094
20214SOL     OW65488   0.432   4.169   8.208 -0.1062 -0.2170 -0.7858
20214SOL    HW165489   0.522   4.180   8.178 -0.4364  2.1524 -1.1302
20214SOL    HW265490   0.393   4.256   8.198 -1.5138 -0.3538  2.3287
20215SOL     OW65491   7.267   1.482   2.356 -0.0964 -0.2203  0.1323
20215SOL    HW165492   7.284   1.574   2.337  1.6810 -0.9379 -2.3970
20215SOL    HW265493   7.345   1.437   2.324 -0.9365 -2.6280  1.2619
20216SOL     OW65494   0.983   9.303   4.173 -0.9854  0.2225 -0.0661
20216SOL    HW165495   0.934   9.354   4.109  0.9542  1.1420 -0.9058
20216SOL    HW265496   1.036   9.367   4.219 -0.0797 -0.7827  0.3422
20217SOL     OW65497   3.219   3.699   5.484  0.1748  0.2382 -0.0134
20217SOL    HW165498   3.175   3.619   5.455 -0.3050  0.2611  0.6296
20217SOL    HW265499   3.300   3.701   5.433  0.7794 -1.3025  0.8000
20218SOL     OW65500   8.844   4.817   8.061  0.3115 -0.6750 -0.2074
20218SOL    HW165501   8.823   4.734   8.018  2.1349 -0.3476 -1.8915
20218SOL    HW265502   8.936   4.808   8.087 -0.0642  0.0638  1.4946
20219SOL     OW65503   9.124   1.662   7.290 -0.4675 -0.1530  0.2818
20219SOL    HW165504   9.185   1.724   7.251 -1.0896  0.4109  0.1835
20219SOL    HW265505   9.145   1.662   7.383 -0.4727  0.2182  0.2848
20220SOL     OW65506   7.474   5.370   1.865  0.3409  0.2173 -0.0101
20220SOL    HW165507   7.435   5.450   1.901  0.3166 -0.3158  1.2240
20220SOL    HW265508   7.465   5.379   1.770 -0.4948  1.2559  0.1440
20221SOL     OW65509   5.110   5.318   1.130 -0.0926 -0.2159  0.8145
20221SOL    HW165510   5.103   5.227   1.103 -0.1864  0.0046  0.0625
20221SOL    HW265511   5.171   5.357   1.068  1.3827 -0.1763  2.2342
20222SOL     OW65512   1.544   6.965   2.703  0.4660  0.3791  0.0431
20222SOL    HW165513   1.560   6.981   2.610 -0.7818 -0.2796 -0.2994
20222SOL    HW265514   1.632   6.963   2.742  0.9848  1.0460 -1.0419
20223SOL     OW65515   1.135   8.452   0.617  0.1387  0.2873  0.3143
20223SOL    HW165516   1.104   8.449   0.527  2.9068  0.8360 -0.7716
20223SOL    HW265517   1.059   8.430   0.670 -1.4261 -0.6935 -2.1794
20224SOL     OW65518   5.637   8.027   0.309  0.0987 -0.0287  0.1250
20224SOL    HW165519   5.632   7.937   0.340  1.3823 -0.3499 -0.5204
20224SOL    HW265520   5.724   8.057   0.333 -0.8284  1.6195  1.7268
20225SOL     OW65521   6.792   2.633   1.875 -0.2160  0.3769  0.4884
20225SOL    HW165522   6.729   2.561   1.869 -0.0962  0.3182 -0.0475
20225SOL    HW265523   6.873   2.592   1.906 -0.5250  0.5080  1.5289
20226SOL     OW65524   8.178   2.574   6.152 -0.1968  0.1975 -0.1429
20226SOL    HW165525   8.252   2.608   6.102  0.1088  0.2576  0.3468
20226SOL    HW265526   8.109   2.561   6.086  0.8543 -1.7055 -0.9610
20227SOL     OW65527   7.551   1.560   2.533  0.0762 -0.4347 -0.0715
20227SOL    HW165528   7.646   1.548   2.542  0.0784 -0.2516  0.1786
20227SOL    HW265529   7.531   1.531   2.444  0.9478  2.9541 -1.5435
20228SOL     OW65530   9.493   5.739   0.750  0.4050  0.5783 -0.3193
20228SOL    HW165531   9.577   5.771   0.719  1.9281 -0.2346  2.6387
20228SOL    HW265532   9.487   5.769   0.840 -1.8238 -0.6247  0.0048
20229SOL     OW65533   3.835   0.253   3.713 -0.1485 -0.3254 -0.8861
20229SOL    HW165534   3.862   0.168   3.750 -2.2624 -0.9364 -0.6242
20229SOL    HW265535   3.784   0.294   3.782  1.4402  1.5583 -0.7385
20230SOL     OW65536   6.612   6.981   1.933  0.3729 -0.1625 -0.3672
20230SOL    HW165537   6.554   7.009   2.004  0.7688 -2.4178  0.9008
20230SOL    HW265538   6.646   6.897   1.960 -0.1467 -1.5915 -3.6158
20231SOL     OW65539   6.412   3.403   1.812  0.2358  0.1648 -0.2443
20231SOL    HW165540   6.329   3.446   1.831  0.1474  0.6954 -1.6886
20231SOL    HW265541   6.422   3.410   1.717  2.3030  0.8434 -0.0413
20232SOL     OW65542   1.455   9.034   2.839  0.0977  0.4238  0.1754
20232SOL    HW165543   1.462   9.128   2.858  0.7929  0.7791 -1.5463
20232SOL    HW265544   1.546   9.007   2.823 -0.0308 -0.7077  1.2888
20233SOL     OW65545   8.113   5.323   5.630 -0.2181 -0.1231  0.1627
20233SOL    HW165546   8.078   5.242   5.592 -1.0163 -0.3234  1.2775
20233SOL    HW265547   8.091   5.391   5.567  0.9988 -0.8357 -1.0967
20234SOL     OW65548   4.069   5.264   4.904  0.1763  0.2846  0.2112
20234SOL    HW165549   4.017   5.186   4.921 -3.3859  2.3879 -0.0406
20234SOL    HW265550   4.039   5.328   4.969  0.8922  2.2823 -1.3150
20235SOL     OW65551   9.717   4.953   3.813 -0.1094  0.0467  0.1983
20235SOL    HW165552   9.722   4.950   3.909 -0.2335 -2.1781  0.1902
20235SOL    HW265553   9.656   4.883   3.790  0.1970  0.3091 -1.5299
20236SOL     OW65554   6.612   3.513   2.872  0.5817 -0.1084  0.0797
20236SOL    HW165555   6.588   3.501   2.964 -4.0252  0.3761 -0.8393
20236SOL    HW265556   6.559   3.587   2.843  1.5041 -0.5845 -3.1223
20237SOL     OW65557   2.654   1.159   0.057  0.0098 -0.0666 -0.7922
20237SOL    HW165558   2.741   1.197   0.042  0.5038 -0.3301  1.2060
20237SOL    HW265559   2.639   1.170   0.150 -1.4006 -1.5304 -0.8167
20238SOL     OW65560   6.655   6.800   1.140 -0.5087  0.4216 -0.2424
20238SOL    HW165561   6.563   6.822   1.122 -0.4222  1.7146  0.7436
20238SOL    HW265562   6.667   6.819   1.233  1.8167  4.5153 -1.1504
20239SOL     OW65563   6.126   0.241   5.190  0.4422  0.0490 -0.2004
20239SOL    HW165564   6.172   0.217   5.271 -0.0719 -0.7690 -0.1404
20239SOL    HW265565   6.055   0.177   5.183 -2.3239  2.7242  1.0650
20240SOL     OW65566   3.565   9.212   0.104 -0.7359  0.2966  0.2347
20240SOL    HW165567   3.533   9.173   0.186  0.1872 -2.0924 -0.4495
20240SOL    HW265568   3.496   9.191   0.041 -0.3438 -0.0292 -0.0883
20241SOL     OW65569   1.933   1.775   5.046 -0.3340  0.7392 -0.0367
20241SOL    HW165570   1.894   1.745   5.128  0.7452  1.0026  0.5838
20241SOL    HW265571   2.003   1.712   5.028  2.3374  3.0351  1.5643
20242SOL     OW65572   3.651   1.795   8.671  0.8427  0.4166 -0.1801
20242SOL    HW165573   3.663   1.875   8.722  1.4689  0.1630  0.0828
20242SOL    HW265574   3.580   1.815   8.610 -1.2285  0.1388  1.9813
20243SOL     OW65575   1.332   2.401   8.574 -0.2073  0.1286 -0.1209
20243SOL    HW165576   1.277   2.396   8.651 -1.8889 -1.4476 -1.3414
20243SOL    HW265577   1.285   2.460   8.514  0.1171 -0.1492 -0.6590
20244SOL     OW65578   3.085   8.220   5.713  0.3905  0.5436 -0.3667
20244SOL    HW165579   3.152   8.239   5.778  1.3925 -0.9807 -0.8906
20244SOL    HW265580   3.101   8.129   5.687 -2.8896 -0.4832  0.6521
20245SOL     OW65581   1.389   1.957   9.323  0.1768  0.2076  0.7525
20245SOL    HW165582   1.339   2.031   9.291  1.4989  0.3595 -1.1300
20245SOL    HW265583   1.449   1.995   9.387 -1.1829  0.2162  2.0816
20246SOL     OW65584   4.935   3.811   9.623 -0.6398 -0.0593 -0.0786
20246SOL    HW165585   4.885   3.851   9.552 -0.4991  0.3209  0.0368
20246SOL    HW265586   4.892   3.840   9.703  0.7105  1.6081  0.0924
20247SOL     OW65587   7.246   9.306   4.974 -0.0887 -0.1788  0.1393
20247SOL    HW165588   7.297   9.226   4.986  1.0855  0.1587 -1.9630
20247SOL    HW265589   7.300   9.374   5.015  0.3995 -0.0586 -0.6776
20248SOL     OW65590   3.095   5.869   2.019 -0.6283 -0.1216  0.1237
20248SOL    HW165591   3.133   5.785   2.047 -1.2801 -0.5527 -0.2755
20248SOL    HW265592   3.171   5.928   2.012 -0.1654 -0.6743  0.4025
20249SOL     OW65593   0.131   0.710   0.165 -0.0757 -0.0646 -0.5148
20249SOL    HW165594   0.187   0.787   0.162 -2.1510  1.5926  0.3514
20249SOL    HW265595   0.075   0.724   0.242 -2.1128 -1.2328 -1.6806
20250SOL     OW65596   2.802   9.676   2.085  0.0157  0.1983 -0.4668
20250SOL    HW165597   2.746   9.689   2.009  0.1550  2.2375 -0.2828
20250SOL    HW265598   2.859   9.753   2.086 -0.8831  0.9561  2.4549
20251SOL     OW65599   5.093   1.984   1.799  0.2157 -0.2254 -0.2196
20251SOL    HW165600   5.157   1.914   1.813 -0.9096 -1.2229 -0.0111
20251SOL    HW265601   5.117   2.051   1.864  0.5897 -0.9180  0.3742
20252SOL     OW65602   5.178   4.770   6.518 -0.2140  0.3668 -0.0774
20252SOL    HW165603   5.149   4.834   6.583 -1.1101  1.4863 -1.5215
20252SOL    HW265604   5.099   4.750   6.467  0.6480  0.2324 -1.4076
20253SOL     OW65605   5.606   0.780   2.051  0.3240 -0.6331  0.0595
20253SOL    HW165606   5.688   0.809   2.091  0.8988 -1.8839 -0.1431
20253SOL    HW265607   5.616   0.685   2.044 -1.7693 -1.0111  1.4318
20254SOL     OW65608   6.061   8.590   4.180  0.0415 -0.2544 -0.1741
20254SOL    HW165609   6.084   8.508   4.137  1.0659  0.9371 -2.0562
20254SOL    HW265610   6.145   8.626   4.209 -0.3903  0.1836  0.5754
20255SOL     OW65611   5.608   3.140   6.762 -0.0429 -0.8162 -0.4109
20255SOL    HW165612   5.679   3.202   6.781 -1.1187 -0.3917  2.8034
20255SOL    HW265613   5.563   3.178   6.687  1.1013  0.6931 -0.3880
20256SOL     OW65614   0.234   5.248   7.562  0.4110 -0.1203  0.0603
20256SOL    HW165615   0.297   5.303   7.514 -0.4060  0.3126 -0.5447
20256SOL    HW265616   0.280   5.166   7.576  0.8633 -0.0651 -1.0183
20257SOL     OW65617   7.572   6.949   3.395 -0.1556  0.1026  0.9489
20257SOL    HW165618   7.603   6.889   3.463 -1.4520  0.8752  2.2862
20257SOL    HW265619   7.643   7.013   3.385  0.3780 -0.4737  0.9909
20258SOL     OW65620   4.660   9.161   0.989 -0.7060  0.1559 -0.1424
20258SOL    HW165621   4.579   9.210   0.979 -1.3907 -1.2217 -1.9005
20258SOL    HW265622   4.636   9.070   0.969  1.0071 -0.5026  0.5592
20259SOL     OW65623   5.098   9.149   8.023  0.2762  0.4699 -0.1363
20259SOL    HW165624   5.136   9.162   8.109 -2.9806  0.0808  1.5024
20259SOL    HW265625   5.147   9.076   7.985  0.9990 -0.1377  1.8700
20260SOL     OW65626   3.966   2.928   1.413  0.2967  0.3685  0.6040
20260SOL    HW165627   4.005   3.009   1.447  1.8127 -0.7937  1.7748
20260SOL    HW265628   4.041   2.877   1.382 -0.6983 -0.3353 -0.7447
20261SOL     OW65629   3.489   9.696   4.606  0.2583  0.3544  0.2630
20261SOL    HW165630   3.520   9.658   4.524  1.2709  2.4463 -0.4002
20261SOL    HW265631   3.394   9.697   4.598  0.3651  1.3587 -1.3395
20262SOL     OW65632   6.433   2.747   0.672 -0.2606 -0.4951 -0.0931
20262SOL    HW165633   6.413   2.833   0.709  0.8500 -0.5668  0.7152
20262SOL    HW265634   6.426   2.759   0.577 -1.2405  0.1877  0.0542
20263SOL     OW65635   1.439   5.276   5.170 -0.0505 -0.1934  0.7980
20263SOL    HW165636   1.416   5.197   5.123 -0.6752 -0.2917  1.2497
20263SOL    HW265637   1.500   5.322   5.113 -0.5781 -0.4421  0.0260
20264SOL     OW65638   4.978   3.608   6.369  0.0766 -0.5744  0.2178
20264SOL    HW165639   5.067   3.642   6.381 -0.8080  1.9832  0.1326
20264SOL    HW265640   4.984   3.516   6.394  2.6558 -0.3760  0.5934
20265SOL     OW65641   5.014   1.552   9.702 -0.1966  0.5213 -0.1509
20265SOL    HW165642   5.009   1.592   9.789 -1.3123  1.3702 -0.5875
20265SOL    HW265643   5.108   1.545   9.684  0.1890 -1.8742  2.0890
20266SOL     OW65644   9.377   4.626   0.530  0.6918 -0.2311 -0.5219
20266SOL    HW165645   9.300   4.581   0.495 -0.4465  1.4691 -0.2769
20266SOL    HW265646   9.369   4.617   0.625 -0.5449  1.9738 -0.3608
20267SOL     OW65647   2.347   7.954   6.273  0.0876  0.2483 -0.1138
20267SOL    HW165648   2.358   7.991   6.361 -1.0414 -0.3853  0.3234
20267SOL    HW265649   2.396   8.012   6.216  2.0363 -0.0988  1.1010
20268SOL     OW65650   5.820   1.774   7.429  1.0068 -0.1348  0.4592
20268SOL    HW165651   5.868   1.715   7.370 -1.1594  0.4804 -2.1403
20268SOL    HW265652   5.822   1.859   7.385 -1.7746  0.0599  0.4931
20269SOL     OW65653   5.668   8.597   4.914  0.1702  0.0410 -0.0769
20269SOL    HW165654   5.632   8.557   4.835 -1.2081 -1.6487  1.3307
20269SOL    HW265655   5.631   8.686   4.915  0.0997  0.0390 -1.2267
20270SOL     OW65656   7.093   5.235   3.959 -0.8099  0.5495  0.1892
20270SOL    HW165657   7.078   5.264   4.049 -1.5672  1.7531 -0.2965
20270SOL    HW265658   7.006   5.213   3.926 -1.3459  4.6489 -1.6885
20271SOL     OW65659   2.338   1.004   3.666 -0.4930  0.0778 -0.3454
20271SOL    HW165660   2.318   0.913   3.643 -0.3051 -0.6778  2.2525
20271SOL    HW265661   2.255   1.040   3.697 -0.7257  1.0688 -1.9586
20272SOL     OW65662   3.987   6.956   7.879  0.3232  0.1851  0.1716
20272SOL    HW165663   3.896   6.932   7.863  0.2988 -1.1022  1.9786
20272SOL    HW265664   3.983   7.045   7.914 -0.2573  0.0454  0.4637
20273SOL     OW65665   9.188   9.188   5.436  0.2710 -0.2151 -0.4664
20273SOL    HW165666   9.207   9.224   5.523  0.3729  0.1178 -0.6214
20273SOL    HW265667   9.156   9.100   5.452  1.4548 -0.6097 -0.1523
20274SOL     OW65668   8.276   3.435   9.432 -0.1201 -0.0784 -0.0508
20274SOL    HW165669   8.257   3.445   9.525 -0.2412  0.7498 -0.1571
20274SOL    HW265670   8.356   3.485   9.418 -1.2104  1.5769 -0.7682
20275SOL     OW65671   9.032   2.422   4.124  0.1163  0.1577 -0.6081
20275SOL    HW165672   8.971   2.354   4.096  1.3300 -0.6603 -1.3362
20275SOL    HW265673   8.977   2.484   4.173 -1.2507 -0.6493 -1.0502
20276SOL     OW65674   4.033   6.451   2.304  0.1189 -0.4008  0.4057
20276SOL    HW165675   4.096   6.424   2.371 -0.0253 -2.2965 -0.1787
20276SOL    HW265676   4.036   6.547   2.306  1.4051 -0.4352  1.8930
20277SOL     OW65677   0.186   7.842   5.815 -0.1494 -0.0408  0.4079
20277SOL    HW165678   0.145   7.775   5.760 -1.5213 -0.5046  1.9086
20277SOL    HW265679   0.257   7.796   5.859  1.7257  0.6081 -1.7107
20278SOL     OW65680   0.852   1.013   5.599 -0.9012  0.5427  0.0891
20278SOL    HW165681   0.854   0.950   5.672  0.8272 -0.8218 -1.0434
20278SOL    HW265682   0.812   0.964   5.527  1.4248  0.2763 -1.1225
20279SOL     OW65683   2.507   6.643   5.296 -0.3759  0.3392 -0.1045
20279SOL    HW165684   2.524   6.682   5.382  2.7670 -0.1897 -0.3762
20279SOL    HW265685   2.561   6.564   5.294 -0.0850  0.5190 -2.7098
20280SOL     OW65686   7.423   2.978   1.566 -0.0269 -0.4408  0.0707
20280SOL    HW165687   7.411   2.964   1.660 -2.8804 -1.2191 -0.3038
20280SOL    HW265688   7.459   2.895   1.535  1.2749 -0.0544  0.4988
20281SOL     OW65689   4.291   4.545   1.579 -0.3778 -0.3570 -0.5107
20281SOL    HW165690   4.198   4.560   1.594 -0.7581 -1.9177 -1.1381
20281SOL    HW265691   4.295   4.492   1.499  1.1040  0.4388 -1.0104
20282SOL     OW65692   3.583   6.555   9.423 -0.2630  0.0834  0.1236
20282SOL    HW165693   3.522   6.550   9.496 -0.7843 -0.5876 -0.3450
20282SOL    HW265694   3.665   6.586   9.462  0.1051 -2.2579  1.4098
20283SOL     OW65695   5.089   6.011   7.198 -0.7722  0.1296  0.9001
20283SOL    HW165696   5.083   5.969   7.112 -0.3992  0.5332  0.6749
20283SOL    HW265697   5.145   6.086   7.184 -1.4907  0.7523  1.2891
20284SOL     OW65698   0.533   2.540   1.061  0.5970 -0.1384 -0.8250
20284SOL    HW165699   0.469   2.611   1.055  0.6307 -0.1659 -1.6919
20284SOL    HW265700   0.516   2.498   1.146  0.2993  0.6356 -0.5000
20285SOL     OW65701   3.990   4.864   5.545  0.1201 -0.0647 -0.3022
20285SOL    HW165702   4.023   4.954   5.550  3.3783 -1.0883 -0.8155
20285SOL    HW265703   4.008   4.827   5.631  3.6718 -1.5594 -1.4859
20286SOL     OW65704   3.884   5.723   8.863  0.3798  1.1024  0.5397
20286SOL    HW165705   3.907   5.749   8.774  1.3828 -0.1658  0.3899
20286SOL    HW265706   3.957   5.668   8.891 -0.8850 -0.2122  1.3896
20287SOL     OW65707   4.930   1.139   3.611  0.1026 -0.0328 -0.4624
20287SOL    HW165708   4.876   1.214   3.635  0.1738 -0.6160  1.6798
20287SOL    HW265709   5.020   1.171   3.619  0.1246 -0.1778 -0.1250
20288SOL     OW65710   1.281   4.385   5.584  0.5089 -0.7086 -0.1963
20288SOL    HW165711   1.291   4.470   5.626 -1.4966  0.9096 -2.6954
20288SOL    HW265712   1.360   4.376   5.530 -0.3971  0.8634 -1.8854
20289SOL     OW65713   7.013   3.100   1.059 -0.2345 -0.4003 -0.5664
20289SOL    HW165714   7.022   3.159   1.134  1.0491  0.8234 -1.6411
20289SOL    HW265715   7.053   3.018   1.088  0.4108  0.1107  0.0152
20290SOL     OW65716   2.764   7.014   9.231 -0.8139  0.0826  0.0612
20290SOL    HW165717   2.723   7.073   9.169 -0.2480 -1.2983 -1.7209
20290SOL    HW265718   2.743   6.926   9.198  0.6485 -0.6871  1.0504
20291SOL     OW65719   4.906   0.095   1.079  0.9698 -0.6238  0.4847
20291SOL    HW165720   4.888   0.019   1.134 -0.2341  0.1268  1.1848
20291SOL    HW265721   4.997   0.118   1.098  0.4221  0.0067  2.7191
20292SOL     OW65722   2.089   9.102   7.023  0.1166 -0.3182 -0.2305
20292SOL    HW165723   2.118   9.027   7.075  1.2580  0.0217 -0.3463
20292SOL    HW265724   2.098   9.073   6.932  0.5913 -0.0510 -0.2764
20293SOL     OW65725   4.658   4.306   2.886 -0.1587 -0.1035 -0.2822
20293SOL    HW165726   4.721   4.291   2.957  0.2456  0.2971 -0.5520
20293SOL    HW265727   4.687   4.387   2.844  0.3665 -1.0060 -1.7256
20294SOL     OW65728   2.674   4.870   3.086  0.0580 -0.8950 -0.4691
20294SOL    HW165729   2.714   4.801   3.033  0.7782 -1.0274  0.2365
20294SOL    HW265730   2.747   4.919   3.122 -0.4428 -0.1402 -0.4566
20295SOL     OW65731   6.335   7.187   4.181  0.1513 -0.8559 -0.0176
20295SOL    HW165732   6.357   7.242   4.106  1.1195 -0.0457  0.8265
20295SOL    HW265733   6.329   7.248   4.255 -4.0821 -1.1389  0.0744
20296SOL     OW65734   3.387   4.852   0.469  0.2322 -0.1033  0.9191
20296SOL    HW165735   3.301   4.809   0.476 -0.0264  0.0784 -0.7157
20296SOL    HW265736   3.445   4.784   0.435  0.5376  0.0171  1.1952
20297SOL     OW65737   2.051   2.602   2.918  0.2031 -0.3588 -0.4728
20297SOL    HW165738   2.037   2.576   2.827 -1.1587  0.8943 -0.6679
20297SOL    HW265739   2.108   2.679   2.912 -0.1459 -0.0828 -0.3043
20298SOL     OW65740   7.806   4.019   1.055  0.2682 -0.3428  0.1981
20298SOL    HW165741   7.803   3.930   1.018 -1.0338  0.0191 -0.6305
20298SOL    HW265742   7.720   4.056   1.036  0.3593  0.6932  1.6033
20299SOL     OW65743   5.788   0.153   5.894  0.0776  1.1335  0.0316
20299SOL    HW165744   5.788   0.079   5.955  1.3238  0.3953 -0.8398
20299SOL    HW265745   5.802   0.230   5.950  1.8765  0.4112  0.6314
20300SOL     OW65746   7.795   4.661   7.646 -0.2805 -0.5425 -0.0208
20300SOL    HW165747   7.746   4.658   7.728  1.9051 -1.1537  1.3623
20300SOL    HW265748   7.809   4.754   7.629 -0.3979 -0.4198  0.5399
20301SOL     OW65749   1.708   6.738   8.677 -0.0087 -0.5390  0.8284
20301SOL    HW165750   1.739   6.760   8.765  0.5942 -0.5427  0.6249
20301SOL    HW265751   1.773   6.778   8.618 -0.7041 -0.0763  0.3685
20302SOL     OW65752   6.187   5.353   5.107 -0.1754  0.3483  0.5452
20302SOL    HW165753   6.098   5.338   5.138 -0.5852  2.6143  0.6301
20302SOL    HW265754   6.240   5.363   5.186  0.2250 -1.1670  0.4979
20303SOL     OW65755   3.679   9.111   6.573  0.1142 -0.0800  0.3855
20303SOL    HW165756   3.658   9.086   6.483 -1.5429 -1.9352  1.2149
20303SOL    HW265757   3.748   9.051   6.600 -0.6763 -0.7728  0.9154
20304SOL     OW65758   5.908   2.017   4.142  0.2182 -0.5040 -0.1004
20304SOL    HW165759   5.996   1.995   4.171  0.1744 -1.2119 -0.4855
20304SOL    HW265760   5.883   1.945   4.084 -1.1046 -0.9858  1.0275
20305SOL     OW65761   4.782   7.737   1.656 -0.2187  0.0648 -0.0128
20305SOL    HW165762   4.750   7.672   1.593 -0.3607  1.3358 -1.3159
20305SOL    HW265763   4.869   7.706   1.680  0.2498  0.0360 -1.6306
20306SOL     OW65764   2.517   0.725   7.984 -0.2773  0.0736 -0.3889
20306SOL    HW165765   2.543   0.693   7.897  0.1621 -0.6812  0.0069
20306SOL    HW265766   2.600   0.735   8.032 -0.4363  1.4520 -0.3607
20307SOL     OW65767   3.523   9.166   4.265  0.1178 -0.1754  0.6183
20307SOL    HW165768   3.480   9.102   4.207  0.8218 -0.3221  0.2531
20307SOL    HW265769   3.604   9.123   4.292 -0.3796 -0.2668  2.0336
20308SOL     OW65770   8.332   3.668   6.323 -0.7592  0.1033 -0.5729
20308SOL    HW165771   8.387   3.746   6.311 -1.6823  0.7974 -0.3488
20308SOL    HW265772   8.317   3.636   6.234  0.1391 -0.1975 -0.6283
20309SOL     OW65773   8.759   2.771   1.730  0.0255 -0.8823 -0.4693
20309SOL    HW165774   8.841   2.733   1.698  1.0194  1.0354 -0.3551
20309SOL    HW265775   8.735   2.835   1.662  1.5625  2.4407  1.8341
20310SOL     OW65776   4.969   1.130   4.840 -0.0573  0.6675  0.0860
20310SOL    HW165777   4.975   1.186   4.917  3.7263  0.0538  0.3978
20310SOL    HW265778   5.045   1.154   4.787 -1.3902 -0.4067 -2.4782
20311SOL     OW65779   2.750   5.584   9.246 -0.1681 -0.0838 -0.0190
20311SOL    HW165780   2.714   5.660   9.202  0.2659 -0.2568 -0.6965
20311SOL    HW265781   2.689   5.513   9.226  1.7990 -1.0687 -3.5569
20312SOL     OW65782   4.287   3.002   0.889  0.9956  0.1894  0.1830
20312SOL    HW165783   4.238   2.936   0.840  0.5449  0.0782  0.7710
20312SOL    HW265784   4.230   3.024   0.963  0.8989  1.6251 -0.2952
20313SOL     OW65785   8.910   3.855   9.631 -0.5858  0.0337  0.2375
20313SOL    HW165786   8.885   3.888   9.718 -2.1205  0.1438 -0.2027
20313SOL    HW265787   8.989   3.804   9.646 -0.2908  0.8409  1.5470
20314SOL     OW65788   3.515   9.559   4.912  0.1140 -0.8663 -0.6969
20314SOL    HW165789   3.545   9.500   4.981 -0.1858 -1.5992 -1.1728
20314SOL    HW265790   3.593   9.608   4.887 -0.3435  1.5803  2.1669
20315SOL     OW65791   6.816   0.211   1.539  0.4467 -0.4196 -0.4744
20315SOL    HW165792   6.845   0.302   1.551  0.4940 -0.3983 -0.7537
20315SOL    HW265793   6.770   0.211   1.455  2.0340 -1.0413 -1.3854
20316SOL     OW65794   7.031   0.092   1.699  0.4476  0.8397  0.0733
20316SOL    HW165795   7.091   0.157   1.663  0.2977  0.3742 -1.0862
20316SOL    HW265796   6.947   0.110   1.655  0.3570  0.0005 -0.1150
20317SOL     OW65797   6.039   2.360   6.753  0.2100  0.1120  0.0801
20317SOL    HW165798   6.055   2.422   6.823 -1.0035  1.5991 -0.9089
20317SOL    HW265799   6.080   2.399   6.676  0.3841 -0.8550 -0.3348
20318SOL     OW65800   5.200   2.194   6.677 -0.0700  0.0750 -0.2130
20318SOL    HW165801   5.221   2.268   6.734  1.0339  0.5305 -1.1872
20318SOL    HW265802   5.142   2.139   6.730 -0.6228  1.4455  0.6591
20319SOL     OW65803   8.889   9.407   2.725 -0.0410 -0.2076 -0.2422
20319SOL    HW165804   8.951   9.359   2.670  0.6493 -2.6198  2.3726
20319SOL    HW265805   8.932   9.490   2.743  0.9608 -0.5272 -1.1010
20320SOL     OW65806   2.774   7.425   6.191 -0.3469 -0.0766 -0.6592
20320SOL    HW165807   2.798   7.335   6.168 -1.4250  0.1363 -2.8586
20320SOL    HW265808   2.766   7.424   6.287 -1.3282 -2.5925 -0.6942
20321SOL     OW65809   3.457   4.771   1.867  0.2370 -0.7173 -0.9362
20321SOL    HW165810   3.438   4.714   1.792 -3.2232 -0.5435 -0.3528
20321SOL    HW265811   3.389   4.839   1.863  0.3923 -0.2903  1.9470
20322SOL     OW65812   5.984   9.370   7.104  0.4520  0.1589  0.0627
20322SOL    HW165813   5.926   9.372   7.028 -1.4216 -0.1306  1.4149
20322SOL    HW265814   5.927   9.393   7.178  2.5867  2.2840  1.1847
20323SOL     OW65815   1.236   1.330   5.605  0.4413 -0.2382 -1.1854
20323SOL    HW165816   1.178   1.261   5.572  0.5683 -0.6411 -0.5775
20323SOL    HW265817   1.220   1.404   5.546 -0.5086 -0.4228 -1.1874
20324SOL     OW65818   9.722   6.819   1.774 -0.6094 -0.1544 -0.3416
20324SOL    HW165819   9.733   6.884   1.843  1.9422 -0.5374 -0.2641
20324SOL    HW265820   9.785   6.847   1.706  0.7075 -2.5681 -0.2240
20325SOL     OW65821   7.618   4.699   5.150  0.2014  0.8118 -0.1746
20325SOL    HW165822   7.576   4.637   5.210  1.9765  0.4668  0.8060
20325SOL    HW265823   7.665   4.759   5.208  2.2868  0.2463 -1.1760
20326SOL     OW65824   7.064   9.721   1.290  0.1921 -0.0062  0.7453
20326SOL    HW165825   7.001   9.695   1.357  0.7477  0.4714  1.4579
20326SOL    HW265826   7.118   9.788   1.332 -0.5764  1.6108 -0.7287
20327SOL     OW65827   6.041   2.174   3.147 -0.6736  0.1982 -0.3535
20327SOL    HW165828   5.982   2.246   3.169  0.3799  1.3379 -1.1153
20327SOL    HW265829   6.052   2.126   3.229 -0.8341  1.3286  0.3492
20328SOL     OW65830   3.417   6.811   7.447  0.2000  0.2833  0.5602
20328SOL    HW165831   3.427   6.794   7.354 -0.3540  0.1533  0.5211
20328SOL    HW265832   3.350   6.879   7.453  1.1507  1.2032  0.8049
20329SOL     OW65833   3.683   2.839   8.582  0.3188 -0.0794  0.3235
20329SOL    HW165834   3.677   2.842   8.487  3.1333 -0.5618  0.0378
20329SOL    HW265835   3.671   2.930   8.610 -2.3935 -0.1898 -0.2564
20330SOL     OW65836   3.356   6.479   7.564  0.0393  0.0061 -0.0945
20330SOL    HW165837   3.348   6.497   7.658 -0.1130  0.4401 -0.1864
20330SOL    HW265838   3.376   6.564   7.525 -0.3488 -0.0901 -0.5092
20331SOL     OW65839   5.105   6.172   5.024  0.0593  0.0096 -0.5897
20331SOL    HW165840   5.029   6.227   5.006  1.2846  2.5474  1.2718
20331SOL    HW265841   5.069   6.093   5.063 -1.6505  1.1093  0.1625
20332SOL     OW65842   4.407   2.658   1.084  0.4650 -0.2504 -0.0835
20332SOL    HW165843   4.434   2.678   0.995 -2.1180  0.5023 -0.7954
20332SOL    HW265844   4.381   2.743   1.121  1.2414 -0.5854  1.3196
20333SOL     OW65845   0.609   4.117   7.098  0.1685 -0.1654  0.4951
20333SOL    HW165846   0.523   4.124   7.057  0.5430 -0.7897 -0.4329
20333SOL    HW265847   0.669   4.157   7.034  0.6952 -0.6746  0.6649
20334SOL     OW65848   5.286   2.337   2.726 -0.0103  0.6909  0.5447
20334SOL    HW165849   5.244   2.335   2.812 -1.1670  3.3807  0.1426
20334SOL    HW265850   5.261   2.254   2.685 -1.0132  0.1792  2.1109
20335SOL     OW65851   4.429   6.889   8.773  0.3311 -0.0655 -0.7089
20335SOL    HW165852   4.456   6.828   8.705 -0.2877 -0.1154 -0.9161
20335SOL    HW265853   4.485   6.965   8.762 -1.2519  0.9026 -2.7568
20336SOL     OW65854   4.909   6.717   9.185 -0.4299 -0.3803  0.0437
20336SOL    HW165855   4.869   6.757   9.108  0.7038  2.3962  0.7692
20336SOL    HW265856   4.997   6.695   9.158 -0.9610 -2.2539 -0.2656
20337SOL     OW65857   0.022   0.636   2.852  0.2136 -0.4089 -0.2317
20337SOL    HW165858   0.052   0.726   2.864 -1.9989  0.2008  1.1862
20337SOL    HW265859   0.064   0.587   2.922 -0.9136  0.1596  0.8761
20338SOL     OW65860   8.694   1.197   3.608 -0.0062  0.2344  0.5029
20338SOL    HW165861   8.727   1.160   3.690  1.3345  0.1117 -0.0666
20338SOL    HW265862   8.749   1.274   3.592 -1.2115  1.1221  0.4534
20339SOL     OW65863   6.922   2.986   5.027 -1.0550  0.2543 -0.0335
20339SOL    HW165864   6.896   2.895   5.038 -1.0068  0.4908  2.7615
20339SOL    HW265865   7.012   2.982   4.997 -1.4112 -0.5786 -1.0590
20340SOL     OW65866   0.877   1.575   2.260  0.0824  0.6120  0.0103
20340SOL    HW165867   0.866   1.598   2.352 -4.4762 -0.1167 -0.1205
20340SOL    HW265868   0.824   1.497   2.248  0.7737  0.4797 -3.2128
20341SOL     OW65869   2.806   1.038   5.505 -0.1712 -0.4517  0.2046
20341SOL    HW165870   2.776   1.127   5.485 -0.7456 -0.2304  1.8645
20341SOL    HW265871   2.877   1.052   5.568  0.0208 -1.1631  0.1463
20342SOL     OW65872   9.567   9.331   6.705 -1.0813  0.1303 -0.2454
20342SOL    HW165873   9.619   9.275   6.762 -0.8236 -1.8248 -2.2735
20342SOL    HW265874   9.486   9.346   6.753 -0.4027 -0.3938  1.1305
20343SOL     OW65875   5.426   2.881   2.536 -0.1820 -0.1500 -0.1567
20343SOL    HW165876   5.332   2.881   2.552 -0.1713 -0.4067 -0.0934
20343SOL    HW265877   5.458   2.959   2.582 -0.1531 -0.8535  1.0564
20344SOL     OW65878   2.495   7.704   7.741  0.2164 -0.7455 -0.2863
20344SOL    HW165879   2.513   7.783   7.793  0.5778 -0.7964 -0.3269
20344SOL    HW265880   2.552   7.713   7.664 -1.1750 -0.0924 -1.2805
20345SOL     OW65881   9.609   2.036   4.720 -0.0183  0.3434 -0.0919
20345SOL    HW165882   9.618   2.051   4.814  1.0014  1.1889 -0.2987
20345SOL    HW265883   9.569   1.950   4.712  0.2674  0.0936  1.1089
20346SOL     OW65884   7.883   9.049   0.595  0.0443  0.0129 -0.1718
20346SOL    HW165885   7.864   9.068   0.686  0.9279  1.3065 -0.2357
20346SOL    HW265886   7.978   9.041   0.591 -0.0973 -1.7832 -0.6753
20347SOL     OW65887   8.116   7.479   5.859  0.2795 -0.4574  0.5636
20347SOL    HW165888   8.187   7.424   5.827  0.7590 -0.8693  2.2409
20347SOL    HW265889   8.072   7.509   5.780  2.8842  0.6166 -0.5803
20348SOL     OW65890   9.481   1.389   0.478 -0.5267  0.4483 -0.5408
20348SOL    HW165891   9.467   1.393   0.573  0.8791 -3.3606 -0.0070
20348SOL    HW265892   9.403   1.430   0.440 -1.3726  1.6068  2.1919
20349SOL     OW65893   7.119   6.000   6.319  0.0573 -0.1405  0.7238
20349SOL    HW165894   7.043   5.954   6.284  0.0652  0.2658  0.1822
20349SOL    HW265895   7.094   6.023   6.409 -1.1792  1.6232 -0.0278
20350SOL     OW65896   3.049   7.760   3.804 -0.4938  0.3124  0.3540
20350SOL    HW165897   2.958   7.764   3.774 -0.1246  0.0003 -0.8850
20350SOL    HW265898   3.098   7.802   3.733  0.3981 -0.1887  0.6676
20351SOL     OW65899   7.001   4.638   9.667 -0.1363  0.2298  0.2810
20351SOL    HW165900   7.088   4.661   9.635  0.1719 -1.4141 -0.1863
20351SOL    HW265901   6.963   4.721   9.696  1.4809  1.0141  0.2686
20352SOL     OW65902   2.056   3.441   2.583 -0.2262 -0.2555 -0.6462
20352SOL    HW165903   2.003   3.380   2.531  0.7247 -1.6890 -0.0184
20352SOL    HW265904   1.993   3.494   2.630 -1.2650 -3.2142  1.6356
20353SOL     OW65905   0.042   3.990   6.095  0.1571 -0.5425  0.1293
20353SOL    HW165906   0.029   4.084   6.108  1.4293 -0.0702 -1.5612
20353SOL    HW265907  -0.042   3.958   6.062 -0.3465 -0.0530  0.9040
20354SOL     OW65908   7.525   8.784   9.573 -0.3526 -0.5567  0.0181
20354SOL    HW165909   7.599   8.837   9.600 -1.6314  0.8692  0.9247
20354SOL    HW265910   7.561   8.697   9.559  1.3052 -0.1350  1.3748
20355SOL     OW65911   8.178   5.118   7.134 -0.3115  0.0508 -0.0910
20355SOL    HW165912   8.259   5.159   7.164  0.2206 -0.7287 -0.4334
20355SOL    HW265913   8.194   5.096   7.042 -1.6986  1.8379 -0.8160
20356SOL     OW65914   8.871   4.756   2.063  0.5288 -1.0241 -0.0531
20356SOL    HW165915   8.790   4.712   2.089  0.3334 -0.7342 -0.1644
20356SOL    HW265916   8.913   4.780   2.145 -0.8465  1.2894  0.0546
20357SOL     OW65917   9.005   9.487   4.609 -0.5699  0.2752 -0.3840
20357SOL    HW165918   8.988   9.448   4.694  0.3227  2.0137  0.6557
20357SOL    HW265919   9.092   9.455   4.584 -1.8842 -2.4074 -2.0245
20358SOL     OW65920   9.468   9.222   5.055 -0.1497  0.3066 -0.1824
20358SOL    HW165921   9.441   9.278   4.983 -0.9135 -2.3785 -2.1266
20358SOL    HW265922   9.560   9.201   5.036  0.0000  0.5162  0.2910
20359SOL     OW65923   9.068   8.308   9.252  0.3542  0.1643  0.7491
20359SOL    HW165924   9.060   8.238   9.188  0.5175  0.4980  0.3627
20359SOL    HW265925   9.029   8.272   9.332 -0.1599 -0.1326  0.3690
20360SOL     OW65926   0.337   3.887   8.070 -0.1554 -0.0005  0.3677
20360SOL    HW165927   0.395   3.813   8.087  1.4734  1.5094  1.8341
20360SOL    HW265928   0.396   3.958   8.044 -1.5480  1.0666  0.0125
20361SOL     OW65929   0.771   8.418   5.825  0.2967 -0.6756 -0.2590
20361SOL    HW165930   0.753   8.478   5.753 -0.6942 -2.2670 -1.4113
20361SOL    HW265931   0.706   8.440   5.891  0.4615  0.0278 -0.3212
20362SOL     OW65932   4.746   2.223   6.237 -0.1950 -0.6361  0.0269
20362SOL    HW165933   4.712   2.244   6.324 -1.6890 -0.8700 -0.4670
20362SOL    HW265934   4.676   2.171   6.196  0.9303 -1.4462 -0.9291
20363SOL     OW65935   3.975   5.931   1.034  0.1055  0.7083 -0.1552
20363SOL    HW165936   3.880   5.935   1.030 -0.0620 -0.7486  1.1052
20363SOL    HW265937   3.995   5.837   1.027  1.2944  0.7911  1.5629
20364SOL     OW65938   3.378   0.203   8.549  0.4740 -0.2570 -0.0330
20364SOL    HW165939   3.362   0.213   8.456  0.5723 -0.0860 -0.0333
20364SOL    HW265940   3.368   0.291   8.585 -0.5264 -0.4885  0.2694
20365SOL     OW65941   6.953   3.098   7.583 -0.9100 -0.4845  0.2894
20365SOL    HW165942   6.951   3.010   7.620  0.3487 -1.2905 -1.4395
20365SOL    HW265943   6.879   3.102   7.524 -1.7698  0.1297  1.3661
20366SOL     OW65944   6.620   0.786   1.594 -0.1488 -0.2826  0.8667
20366SOL    HW165945   6.674   0.865   1.586  0.5494 -0.8548 -0.3727
20366SOL    HW265946   6.537   0.809   1.552  0.3703 -0.4594 -0.3030
20367SOL     OW65947   2.643   8.422   6.146  0.0215 -0.1236  0.1588
20367SOL    HW165948   2.667   8.459   6.061 -0.9410 -0.0270 -0.0830
20367SOL    HW265949   2.598   8.493   6.191 -0.0208 -0.3649  0.5032
20368SOL     OW65950   8.070   0.695   2.446  0.6676 -0.7905  0.8335
20368SOL    HW165951   8.085   0.600   2.448  0.4059 -0.8516  0.0727
20368SOL    HW265952   7.977   0.705   2.465 -0.5661 -1.0511 -3.7978
20369SOL     OW65953   7.471   7.603   4.153  0.5015  0.3641  0.4968
20369SOL    HW165954   7.556   7.581   4.115  0.1342  0.6747 -0.5443
20369SOL    HW265955   7.416   7.622   4.077 -0.1823  1.2759  1.2135
20370SOL     OW65956   4.806   8.435   3.450 -0.2038 -0.0018  0.1159
20370SOL    HW165957   4.815   8.390   3.534 -0.4755 -0.4920 -0.1166
20370SOL    HW265958   4.876   8.399   3.396 -1.0039 -0.8407 -0.3746
20371SOL     OW65959   7.384   1.755   7.794  0.2880  0.3615  0.6354
20371SOL    HW165960   7.360   1.848   7.802  0.0925  0.3260  0.4596
20371SOL    HW265961   7.380   1.738   7.700 -0.0830  0.0659  0.7050
20372SOL     OW65962   7.313   1.370   3.993  0.7161 -0.1820 -0.4286
20372SOL    HW165963   7.306   1.389   3.900  0.3188  0.0275 -0.3565
20372SOL    HW265964   7.298   1.454   4.036  1.8439 -0.0799 -0.1981
20373SOL     OW65965   7.328   3.660   0.849 -0.1635  0.6394  0.2584
20373SOL    HW165966   7.393   3.696   0.909 -0.3362 -0.4127  1.1161
20373SOL    HW265967   7.368   3.667   0.762  2.0776 -1.9132  0.9546
20374SOL     OW65968   8.900   5.079   0.344 -0.2226 -0.4375 -0.2640
20374SOL    HW165969   8.961   5.055   0.414 -0.0320  0.4675 -0.1055
20374SOL    HW265970   8.855   4.998   0.322 -0.5760 -0.6536  1.1885
20375SOL     OW65971   8.662   1.732   2.014 -0.1813 -0.3658 -0.2293
20375SOL    HW165972   8.690   1.651   2.055 -1.8732 -1.1168 -0.4857
20375SOL    HW265973   8.657   1.712   1.920  2.5138  0.9996 -0.7589
20376SOL     OW65974   4.665   5.083   4.492 -0.7117 -0.3545 -0.5379
20376SOL    HW165975   4.617   5.161   4.464 -1.3098 -0.3622  0.4348
20376SOL    HW265976   4.658   5.083   4.587 -0.2612 -1.3065 -0.4916
20377SOL     OW65977   0.545   1.305   9.393 -0.0759  0.2011  0.9246
20377SOL    HW165978   0.508   1.365   9.328 -0.3276  1.5495  2.2684
20377SOL    HW265979   0.632   1.282   9.358 -1.3716 -1.6404 -1.4111
20378SOL     OW65980   3.704   8.997   6.280  0.0592  0.1515  0.1541
20378SOL    HW165981   3.727   8.919   6.330 -1.4033 -0.3850  0.0263
20378SOL    HW265982   3.788   9.029   6.247  0.6654 -1.5767 -0.1099
20379SOL     OW65983   0.818   3.577   4.302  0.0443 -0.1485  0.3267
20379SOL    HW165984   0.762   3.503   4.277  0.4807 -0.1042 -0.8332
20379SOL    HW265985   0.890   3.575   4.239  0.6441  0.6047  0.9733
20380SOL     OW65986   5.919   9.275   6.846 -0.1208  0.2630  0.3193
20380SOL    HW165987   5.868   9.203   6.884  1.3521  0.3099  2.6615
20380SOL    HW265988   5.864   9.310   6.777 -2.5672 -0.6482  1.6600
20381SOL     OW65989   9.511   3.909   6.633 -0.0843  0.2653 -0.8282
20381SOL    HW165990   9.518   3.820   6.601 -1.1192 -0.7383  1.4940
20381SOL    HW265991   9.595   3.925   6.678 -0.7498 -0.4401  0.7311
20382SOL     OW65992   4.046   2.469   2.836  0.0314  0.0940 -0.1340
20382SOL    HW165993   4.070   2.379   2.817  0.5894 -0.0963  1.3389
20382SOL    HW265994   3.958   2.479   2.801 -0.7934 -1.6056  1.3181
20383SOL     OW65995   2.342   9.421   5.493  0.6074 -0.3565  0.0741
20383SOL    HW165996   2.424   9.416   5.541 -0.0779 -0.6980  1.2713
20383SOL    HW265997   2.326   9.514   5.481  1.3533 -0.2970 -0.5238
20384SOL     OW65998   2.910   7.014   5.496  0.1973  0.7590 -0.2888
20384SOL    HW165999   2.818   7.042   5.490 -0.6520 -1.7572 -0.3745
20384SOL    HW266000   2.938   7.042   5.583 -0.9486  0.7604  0.0937
20385SOL     OW66001   8.389   0.862   4.769 -0.2572 -0.0979  0.0287
20385SOL    HW166002   8.466   0.871   4.713 -1.3079 -0.2325 -1.5087
20385SOL    HW266003   8.418   0.891   4.855  0.7680  2.6888 -1.1309
20386SOL     OW66004   8.220   9.196   4.346 -0.4974 -0.0047 -0.9758
20386SOL    HW166005   8.161   9.225   4.276  0.6669  0.5935 -1.7348
20386SOL    HW266006   8.303   9.177   4.301  0.3755  0.7312  0.2918
20387SOL     OW66007   2.849   2.805   7.249 -0.1183  0.0937  1.0343
20387SOL    HW166008   2.851   2.779   7.157 -1.9440  1.1608  0.6508
20387SOL    HW266009   2.897   2.887   7.252 -0.5326  0.3419  0.9254
20388SOL     OW66010   6.235   9.188   7.190  0.5234  0.1081  0.3446
20388SOL    HW166011   6.287   9.263   7.217 -0.4673  0.4828  1.2816
20388SOL    HW266012   6.171   9.224   7.128  1.0952 -0.2793 -0.4968
20389SOL     OW66013   8.938   4.230   4.954 -0.2192 -0.3379  0.5122
20389SOL    HW166014   8.983   4.303   4.911  0.2872 -0.5004  0.7546
20389SOL    HW266015   8.853   4.225   4.911 -0.1967  0.2972  0.3874
20390SOL     OW66016   9.384   5.180   9.690 -0.7366  0.5171  0.2126
20390SOL    HW166017   9.385   5.096   9.738  0.2865  0.4498  0.0952
20390SOL    HW266018   9.370   5.246   9.758  1.0524  0.4483  0.6764
20391SOL     OW66019   5.162   8.087   9.413 -0.1023 -0.1217  0.4772
20391SOL    HW166020   5.150   8.171   9.369 -0.4979 -1.1717 -1.5292
20391SOL    HW266021   5.237   8.101   9.471  0.1079  1.4854 -0.1282
20392SOL     OW66022   0.737   7.326   3.533 -0.6932 -0.3028 -0.4655
20392SOL    HW166023   0.798   7.282   3.593 -0.0634 -1.5148 -1.9587
20392SOL    HW266024   0.729   7.268   3.458 -2.0613  0.8323 -1.2588
20393SOL     OW66025   7.256   0.653   7.356 -0.2369 -0.4078  0.1493
20393SOL    HW166026   7.317   0.587   7.322 -0.6261  0.5374 -2.6211
20393SOL    HW266027   7.305   0.735   7.353 -1.0984  0.1066 -0.6296
20394SOL     OW66028   9.541   9.031   4.061 -0.0359 -0.8092 -0.5567
20394SOL    HW166029   9.565   8.941   4.042 -0.3133 -0.8363 -0.7880
20394SOL    HW266030   9.587   9.083   3.996  1.6151 -0.6069  0.7040
20395SOL     OW66031   3.486   8.558   5.316  0.2872 -0.7937  0.3551
20395SOL    HW166032   3.506   8.646   5.348 -0.6934 -0.5594  0.3297
20395SOL    HW266033   3.541   8.501   5.370  2.9945 -0.0506 -1.3743
20396SOL     OW66034   7.566   8.357   8.827  0.3815 -0.7375 -0.1314
20396SOL    HW166035   7.543   8.435   8.877 -0.4700 -1.0914  0.0507
20396SOL    HW266036   7.585   8.389   8.739 -0.8981 -0.4141 -0.3082
20397SOL     OW66037   3.126   7.409   2.586  0.1886  0.7085 -0.7162
20397SOL    HW166038   3.182   7.470   2.538 -0.7823  1.9145 -0.3942
20397SOL    HW266039   3.043   7.410   2.538 -0.4793  1.1885  0.3853
20398SOL     OW66040   0.801   2.036   0.778  0.3989 -0.3290 -0.1717
20398SOL    HW166041   0.884   2.035   0.826  0.4354 -0.4858 -0.2376
20398SOL    HW266042   0.821   2.081   0.696  0.7413 -1.5050 -0.7595
20399SOL     OW66043   0.818   1.311   1.728 -0.2531 -0.1302  0.5167
20399SOL    HW166044   0.862   1.256   1.663 -0.8765  0.0001 -0.0271
20399SOL    HW266045   0.739   1.342   1.683  0.4841  1.8657  0.5344
20400SOL     OW66046   2.180   5.258   3.413  0.0360  0.0364  0.1911
20400SOL    HW166047   2.090   5.240   3.387 -0.3865 -0.0561  1.6210
20400SOL    HW266048   2.184   5.229   3.504  1.5179  0.0392  0.1421
20401SOL     OW66049   1.543   3.264   6.533  0.2624  0.2142  0.5502
20401SOL    HW166050   1.600   3.228   6.601  1.7511  1.5016  0.0261
20401SOL    HW266051   1.462   3.287   6.580 -0.4879 -2.9592  1.0392
20402SOL     OW66052   0.448   4.208   6.340 -0.4459 -0.0696  0.6693
20402SOL    HW166053   0.507   4.279   6.314 -0.6472 -0.8840 -2.4017
20402SOL    HW266054   0.361   4.239   6.316 -0.7169 -0.6837  0.8398
20403SOL     OW66055   9.662   8.098   1.565  0.2925  0.0430  0.1722
20403SOL    HW166056   9.649   8.193   1.564  2.7899  0.4858 -2.3076
20403SOL    HW266057   9.733   8.084   1.628 -0.8221 -0.3816  1.3830
20404SOL     OW66058   8.059   1.246   9.003  0.4397  0.1069 -0.4351
20404SOL    HW166059   8.119   1.309   8.963 -0.6971  1.0637 -0.7119
20404SOL    HW266060   8.112   1.199   9.067  1.0904  2.2587  0.7364
20405SOL     OW66061   6.689   1.920   2.138 -0.1076 -0.4505 -0.2110
20405SOL    HW166062   6.641   2.003   2.145  1.5344  0.5285 -0.1537
20405SOL    HW266063   6.648   1.864   2.204 -1.2193  0.3083 -0.2179
20406SOL     OW66064   7.246   0.107   1.441  0.0043  0.2663 -0.8049
20406SOL    HW166065   7.334   0.074   1.425 -0.6662 -1.2999 -1.4332
20406SOL    HW266066   7.259   0.187   1.492  1.6819 -1.8328  2.3376
20407SOL     OW66067   5.881   8.882   8.513 -0.1769 -0.7045 -0.2875
20407SOL    HW166068   5.802   8.828   8.524 -0.5046 -0.3857 -1.0095
20407SOL    HW266069   5.860   8.940   8.440  0.6713 -0.5049 -0.3784
20408SOL     OW66070   3.335   3.407   2.143 -0.0129  0.0447  0.0213
20408SOL    HW166071   3.368   3.318   2.156 -0.7443  0.0152  2.0160
20408SOL    HW266072   3.335   3.446   2.230 -1.1626  1.4823 -0.5757
20409SOL     OW66073   2.866   5.319   2.362  0.2188  0.5089 -0.1154
20409SOL    HW166074   2.902   5.260   2.428  1.1564  0.4884 -0.6226
20409SOL    HW266075   2.862   5.266   2.283 -0.4247  0.6790 -0.1981
20410SOL     OW66076   4.851   0.560   8.137 -0.5569 -0.4212  0.3753
20410SOL    HW166077   4.938   0.575   8.101 -0.6770 -0.9786 -0.1619
20410SOL    HW266078   4.792   0.583   8.065 -0.7687 -3.3794 -0.5500
20411SOL     OW66079   8.827   2.725   7.582 -0.4765 -0.3121  0.2074
20411SOL    HW166080   8.784   2.801   7.621 -0.9082 -0.1893 -0.4968
20411SOL    HW266081   8.763   2.654   7.590 -0.5744 -0.2834 -0.2736
20412SOL     OW66082   8.163   1.009   0.929 -0.3432  0.5161  0.1630
20412SOL    HW166083   8.096   0.985   0.994 -1.4168 -0.4863 -1.2483
20412SOL    HW266084   8.117   1.068   0.869  1.0700  2.7505  1.1351
20413SOL     OW66085   9.312   1.888   3.598 -0.2475  0.1170 -0.0404
20413SOL    HW166086   9.256   1.964   3.611 -1.4973 -0.8109  0.1793
20413SOL    HW266087   9.301   1.865   3.506 -0.6073 -0.3373  0.1093
20414SOL     OW66088   3.155   2.640   8.950 -0.0712 -0.4922 -0.3337
20414SOL    HW166089   3.111   2.715   8.908 -0.9684 -0.5034  0.5453
20414SOL    HW266090   3.102   2.564   8.924  0.4154 -0.7294 -0.6365
20415SOL     OW66091   1.468   6.218   3.146 -0.1197 -0.4032  0.2794
20415SOL    HW166092   1.377   6.221   3.118  0.1834  0.1198 -0.6713
20415SOL    HW266093   1.468   6.261   3.231 -0.6403  0.2452 -0.0412
20416SOL     OW66094   0.446   6.054   8.528  0.0457 -0.7469 -0.5462
20416SOL    HW166095   0.372   6.084   8.476  0.3683  0.8186 -0.1373
20416SOL    HW266096   0.414   5.975   8.571 -0.8931 -0.9142 -1.5059
20417SOL     OW66097   0.950   1.878   0.161 -0.3866  0.2235  0.0960
20417SOL    HW166098   1.030   1.930   0.164 -1.6096  2.2103  0.6879
20417SOL    HW266099   0.951   1.837   0.075  0.9439  0.7223 -0.1566
20418SOL     OW66100   6.867   9.311   0.273  0.0176 -0.0886  0.2595
20418SOL    HW166101   6.832   9.366   0.342  0.4754  1.4331 -0.6834
20418SOL    HW266102   6.953   9.349   0.253  0.1302 -0.8293 -0.7589
20419SOL     OW66103   4.622   1.704   2.235 -0.3686 -0.5701 -0.0404
20419SOL    HW166104   4.661   1.758   2.304 -1.7171  0.1729  0.1813
20419SOL    HW266105   4.561   1.647   2.281 -0.8557 -0.4690 -0.5457
20420SOL     OW66106   2.224   6.883   4.943 -0.5624  0.4500  0.0450
20420SOL    HW166107   2.283   6.886   5.019  0.7498  1.4978 -0.9753
20420SOL    HW266108   2.137   6.868   4.981  0.2028 -0.1812  1.6615
20421SOL     OW66109   1.795   2.797   5.326 -0.2224  0.2139 -0.0179
20421SOL    HW166110   1.885   2.770   5.344 -0.5547 -0.2266  1.0560
20421SOL    HW266111   1.745   2.762   5.400 -1.3841 -0.1366 -0.9584
20422SOL     OW66112   8.355   3.532   6.069  0.3103  0.1542 -0.0608
20422SOL    HW166113   8.354   3.587   5.991 -0.3235  0.4090  0.1230
20422SOL    HW266114   8.326   3.446   6.039 -0.9333  0.5104  0.0749
20423SOL     OW66115   8.340   1.839   4.706  0.4390  0.2334 -0.5856
20423SOL    HW166116   8.428   1.862   4.676  0.6198 -0.8853 -0.9349
20423SOL    HW266117   8.352   1.806   4.795  0.1424  1.6502  0.0218
20424SOL     OW66118   6.511   6.583   8.485 -0.3016  0.6999  0.5826
20424SOL    HW166119   6.598   6.602   8.449  0.3206 -2.3520  0.1604
20424SOL    HW266120   6.471   6.669   8.498  1.4392  2.1729 -2.4738
20425SOL     OW66121   1.516   0.230   2.745  0.1122 -0.0870  0.8404
20425SOL    HW166122   1.545   0.312   2.704 -1.0724  0.1848  0.5188
20425SOL    HW266123   1.476   0.181   2.673  0.5024 -0.8145  1.1066
20426SOL     OW66124   8.604   9.631   0.810  0.9602 -0.1061 -0.1527
20426SOL    HW166125   8.614   9.613   0.716  1.2064 -0.0077 -0.1467
20426SOL    HW266126   8.569   9.720   0.813  0.4559 -0.3019 -0.1634
20427SOL     OW66127   4.001   8.614   2.874 -0.4911  0.4998  0.3843
20427SOL    HW166128   4.045   8.697   2.855 -1.7401  1.1090  0.0648
20427SOL    HW266129   4.058   8.571   2.938 -0.9768  2.6800  2.4374
20428SOL     OW66130   5.124   0.631   5.425 -0.5062 -0.7301 -0.0525
20428SOL    HW166131   5.212   0.614   5.392  0.4250  0.6723  1.5662
20428SOL    HW266132   5.077   0.668   5.350 -0.7956 -4.3790 -1.8785
20429SOL     OW66133   1.707   7.305   4.818 -0.3955  0.1436  0.1522
20429SOL    HW166134   1.639   7.239   4.808  0.8026 -1.2598  0.8995
20429SOL    HW266135   1.785   7.266   4.779  0.8476  0.2597  2.3767
20430SOL     OW66136   6.574   4.369   3.923 -0.0893 -0.3377 -0.3786
20430SOL    HW166137   6.639   4.439   3.929 -0.1773 -0.2929  0.1439
20430SOL    HW266138   6.533   4.367   4.010 -0.1913 -0.9348 -0.4337
20431SOL     OW66139   8.691   7.942   1.683 -0.3039 -0.0217 -0.0267
20431SOL    HW166140   8.734   7.925   1.767 -1.4193 -0.1081  0.5378
20431SOL    HW266141   8.739   8.017   1.647 -1.2810  1.5612  1.7870
20432SOL     OW66142   7.259   1.709   9.383 -0.0701 -0.1187 -0.0234
20432SOL    HW166143   7.281   1.755   9.301  0.5669 -0.6140 -0.1395
20432SOL    HW266144   7.207   1.634   9.355 -1.3968  0.6841  0.1960
20433SOL     OW66145   2.155   5.932   4.992  0.4521 -0.2961 -0.3553
20433SOL    HW166146   2.158   5.924   5.087 -0.5216 -3.0825 -0.4912
20433SOL    HW266147   2.081   5.991   4.976  1.1518  0.8922  0.5751
20434SOL     OW66148   0.644   1.916   8.018 -0.0905 -0.3575 -0.2208
20434SOL    HW166149   0.587   1.992   8.013  1.8532  1.5007  2.5910
20434SOL    HW266150   0.692   1.916   7.935  0.0905  1.7284 -0.1564
20435SOL     OW66151   3.526   4.974   8.696  0.1903  0.4124 -0.0256
20435SOL    HW166152   3.523   4.920   8.775  0.5472 -0.3987 -0.5560
20435SOL    HW266153   3.604   5.029   8.707  0.3600  0.1493  0.0869
20436SOL     OW66154   5.284   2.235   0.344 -0.0212 -0.1395 -0.0722
20436SOL    HW166155   5.366   2.185   0.347  1.0429  1.3144 -1.9256
20436SOL    HW266156   5.245   2.224   0.430  2.0138 -1.1096  0.7835
20437SOL     OW66157   6.980   9.224   3.479 -0.1861  0.3520 -0.6932
20437SOL    HW166158   6.901   9.181   3.445 -0.3323 -0.0572  0.1484
20437SOL    HW266159   7.037   9.234   3.402  0.5138 -2.7568 -0.6918
20438SOL     OW66160   4.644   8.823   1.406 -0.1845 -0.0122  0.1952
20438SOL    HW166161   4.708   8.833   1.335  0.2633  1.8800  0.8040
20438SOL    HW266162   4.562   8.857   1.368 -1.2121 -3.3376 -0.9223
20439SOL     OW66163   6.717   0.801   8.935  0.6409  0.1032  0.2403
20439SOL    HW166164   6.691   0.892   8.947  3.0844  0.9140 -0.1793
20439SOL    HW266165   6.640   0.751   8.962 -1.0200  2.2726 -0.2063
20440SOL     OW66166   0.496   3.505   4.519  0.4886  1.0075 -0.0549
20440SOL    HW166167   0.579   3.551   4.507  0.0089  2.0167  0.4051
20440SOL    HW266168   0.463   3.537   4.603  0.8883 -1.3815  1.1001
20441SOL     OW66169   9.322   7.359   9.098 -0.3882  0.2661  0.0067
20441SOL    HW166170   9.262   7.290   9.125 -0.3419 -0.4762 -1.6655
20441SOL    HW266171   9.277   7.440   9.120 -1.3283 -0.2848  0.1592
20442SOL     OW66172   9.074   4.695   5.537 -0.3169  0.3417 -0.2320
20442SOL    HW166173   9.021   4.715   5.459 -1.8058 -0.6277  0.4937
20442SOL    HW266174   9.142   4.636   5.504 -0.2125  0.8594 -0.9974
20443SOL     OW66175   8.940   7.482   8.051  0.0720 -0.1463  0.3186
20443SOL    HW166176   8.936   7.578   8.045  1.4548  0.0981  2.3519
20443SOL    HW266177   8.962   7.465   8.142  2.7990 -2.2996 -0.6053
20444SOL     OW66178   1.780   2.763   0.741 -0.2580  0.2734 -0.0902
20444SOL    HW166179   1.724   2.700   0.696  0.5057  0.2440 -1.0300
20444SOL    HW266180   1.721   2.808   0.801 -1.0599 -0.5134 -0.2601
20445SOL     OW66181   7.596   0.225   9.215  0.0975 -0.1557  0.0515
20445SOL    HW166182   7.620   0.264   9.131  1.6542 -1.1288  0.0027
20445SOL    HW266183   7.603   0.131   9.200  2.9643 -0.3773  1.8890
20446SOL     OW66184   7.439   8.218   5.981 -0.3189  0.4550 -0.2072
20446SOL    HW166185   7.380   8.293   5.974 -0.3342  0.4264 -0.4012
20446SOL    HW266186   7.415   8.175   6.063 -1.1967 -0.0873 -0.7330
20447SOL     OW66187   9.183   3.131   6.433 -0.1114  0.2732 -0.2917
20447SOL    HW166188   9.152   3.219   6.454 -1.5211 -0.9201  3.7411
20447SOL    HW266189   9.268   3.124   6.476  0.3874 -0.1108 -1.3031
20448SOL     OW66190   9.678   7.223   2.008  0.1520 -0.0746 -0.3672
20448SOL    HW166191   9.684   7.254   1.917  0.3565  0.1712 -0.2693
20448SOL    HW266192   9.715   7.134   2.005  1.7953  0.5594 -0.2094
20449SOL     OW66193   0.694   1.286   6.607 -0.1181 -0.6022  0.4801
20449SOL    HW166194   0.778   1.307   6.567 -0.5914 -0.2878 -0.3677
20449SOL    HW266195   0.716   1.224   6.678  1.0638  1.1039  1.6859
20450SOL     OW66196   5.733   2.780   5.568 -0.2294  0.0909  0.0835
20450SOL    HW166197   5.782   2.853   5.605 -0.1600  0.1787 -0.1861
20450SOL    HW266198   5.751   2.783   5.474  1.6798 -1.6579  0.3183
20451SOL     OW66199   8.802   1.431   6.233 -0.2550  0.6169  0.5343
20451SOL    HW166200   8.753   1.445   6.152 -0.4489  3.1871  1.0250
20451SOL    HW266201   8.857   1.509   6.242 -1.0394  0.9540  3.4013
20452SOL     OW66202   8.150   5.829   5.811 -0.3348  0.5020  0.2143
20452SOL    HW166203   8.115   5.917   5.826 -0.4104  0.5011  0.0478
20452SOL    HW266204   8.074   5.771   5.826  0.3030  0.2324  2.9883
20453SOL     OW66205   3.877   2.541   6.148 -0.2451 -0.2603 -0.0418
20453SOL    HW166206   3.942   2.551   6.079  0.0939  0.9010  0.4173
20453SOL    HW266207   3.801   2.503   6.104 -0.2444  1.0063 -1.1899
20454SOL     OW66208   7.558   7.271   3.591 -0.2045  0.4379 -0.0491
20454SOL    HW166209   7.562   7.337   3.659 -0.4134  1.5344 -1.0649
20454SOL    HW266210   7.537   7.319   3.511  0.1179 -0.7863 -0.9170
20455SOL     OW66211   9.180   3.751   5.128 -0.2171  0.3729  0.1609
20455SOL    HW166212   9.275   3.754   5.143 -0.2823 -1.0859  1.0755
20455SOL    HW266213   9.146   3.700   5.202 -1.8162  1.5096  0.2599
20456SOL     OW66214   0.763   5.455   4.409  0.7602 -0.2206 -0.1489
20456SOL    HW166215   0.830   5.483   4.471  1.6044 -0.3989 -0.9498
20456SOL    HW266216   0.805   5.463   4.323  0.0165 -1.0605 -0.6138
20457SOL     OW66217   5.053   2.566   2.749  0.1483  0.0803 -0.0753
20457SOL    HW166218   5.122   2.500   2.756  0.8396  0.8821  0.8494
20457SOL    HW266219   5.004   2.559   2.832 -0.2468  0.2263 -0.2919
20458SOL     OW66220   0.335   9.297   7.681  0.2674  0.8400 -0.7788
20458SOL    HW166221   0.360   9.302   7.773 -1.1456  0.2316 -0.3493
20458SOL    HW266222   0.275   9.370   7.668 -0.8892 -0.0715 -0.7550
20459SOL     OW66223   2.026   0.690   6.769  0.2404  0.1644  0.0859
20459SOL    HW166224   2.017   0.599   6.796  1.3722 -0.6620 -2.1233
20459SOL    HW266225   2.003   0.740   6.847  2.2263 -2.0041  2.2068
20460SOL     OW66226   1.657   4.663   9.271 -0.4974 -0.1264 -0.0021
20460SOL    HW166227   1.750   4.641   9.270 -0.5412 -0.3498 -1.6308
20460SOL    HW266228   1.628   4.641   9.360  0.9025 -0.4643  0.3888
20461SOL     OW66229   6.747   7.819   9.096  0.4961 -0.1152  0.1127
20461SOL    HW166230   6.724   7.747   9.154 -1.8373  0.7773  0.4320
20461SOL    HW266231   6.840   7.807   9.078  0.4906 -2.4063  1.2158
20462SOL     OW66232   7.190   3.162   6.360  0.0111  0.3654  0.0727
20462SOL    HW166233   7.136   3.096   6.316  0.2542  0.9511 -1.1434
20462SOL    HW266234   7.270   3.167   6.308 -0.1826  1.9224 -0.1403
20463SOL     OW66235   7.135   2.217   3.392 -0.3507  0.4378 -0.1071
20463SOL    HW166236   7.092   2.210   3.306  0.1818 -2.3304 -0.2518
20463SOL    HW266237   7.224   2.187   3.376  0.1846  1.2811  1.1659
20464SOL     OW66238   2.954   9.438   1.798 -0.0002 -0.0275 -0.2191
20464SOL    HW166239   2.875   9.485   1.826 -1.9325 -3.0609 -0.1339
20464SOL    HW266240   2.936   9.413   1.707  0.8798 -0.7308 -0.2120
20465SOL     OW66241   1.902   2.318   6.096  0.0182 -0.0705 -0.1310
20465SOL    HW166242   1.926   2.403   6.132  1.1437 -0.5051  0.2137
20465SOL    HW266243   1.831   2.287   6.153 -1.8260  1.4506 -1.4586
20466SOL     OW66244   8.186   3.631   3.877  0.0133 -0.1312  1.0193
20466SOL    HW166245   8.179   3.564   3.945 -3.4624 -1.3347 -0.3417
20466SOL    HW266246   8.162   3.586   3.796 -0.2800  2.2579 -0.3112
20467SOL     OW66247   7.217   0.514   2.064 -0.2098  0.3019 -0.4151
20467SOL    HW166248   7.254   0.557   2.141 -1.0890 -0.1519  0.2959
20467SOL    HW266249   7.214   0.582   1.997  0.9178  0.6065 -0.1746
20468SOL     OW66250   0.257   9.218   5.274  0.8136  0.2100 -0.1458
20468SOL    HW166251   0.162   9.220   5.285  0.6392 -0.3253 -1.3997
20468SOL    HW266252   0.280   9.305   5.241  0.2593 -0.6850 -3.1950
20469SOL     OW66253   5.074   4.114   1.470  0.6444 -0.3233  0.6860
20469SOL    HW166254   4.996   4.156   1.507  0.3306 -1.4428  1.3291
20469SOL    HW266255   5.124   4.187   1.432 -0.4015  0.4891  0.8140
20470SOL     OW66256   8.972   5.935   3.769 -0.1195 -0.1891 -0.3828
20470SOL    HW166257   8.933   5.956   3.684 -1.1504  1.5302  0.4817
20470SOL    HW266258   9.066   5.925   3.750 -0.1910  1.1138 -1.5610
20471SOL     OW66259   6.298   7.783   7.557 -0.0514 -0.2158  0.1612
20471SOL    HW166260   6.252   7.865   7.540 -0.3595 -0.1399  1.2884
20471SOL    HW266261   6.253   7.719   7.503  1.1115  0.5931 -1.8605
20472SOL     OW66262   7.768   0.727   0.076  0.0043  0.3497  0.0465
20472SOL    HW166263   7.752   0.788   0.004 -1.9879  0.9834  0.9559
20472SOL    HW266264   7.777   0.783   0.153 -1.7600 -0.4410  0.8864
20473SOL     OW66265   4.487   0.101   7.351 -0.1485  0.5518  0.4558
20473SOL    HW166266   4.481   0.140   7.438 -1.5367  1.1234  0.1250
20473SOL    HW266267   4.543   0.024   7.363  0.2576  1.0201  1.7005
20474SOL     OW66268   2.634   0.318   6.856 -0.4499 -0.4352  0.5720
20474SOL    HW166269   2.566   0.273   6.806 -1.2902  0.3421  0.9779
20474SOL    HW266270   2.607   0.410   6.855  0.9202 -0.0193  0.2496
20475SOL     OW66271   8.604   4.133   6.092 -0.1213  0.6019 -0.3606
20475SOL    HW166272   8.684   4.149   6.041 -0.1380  1.0456 -0.2490
20475SOL    HW266273   8.534   4.170   6.038 -0.2479  0.2929 -0.4158
20476SOL     OW66274   8.404   5.050   0.634  0.5417  0.0017  0.5011
20476SOL    HW166275   8.477   5.112   0.629  0.4587  0.0509 -0.1970
20476SOL    HW266276   8.370   5.046   0.544  0.7228 -1.2745  0.4777
20477SOL     OW66277   1.698   3.084   3.827  0.7618 -0.4282 -0.1208
20477SOL    HW166278   1.659   3.154   3.774  1.2867 -0.2886 -0.3315
20477SOL    HW266279   1.750   3.033   3.764 -1.1710 -2.2000 -0.3703
20478SOL     OW66280   8.816   5.932   7.467 -0.1997 -0.1401  0.0917
20478SOL    HW166281   8.731   5.964   7.496  0.0607  0.3039  0.3692
20478SOL    HW266282   8.795   5.865   7.402 -0.7567  0.6532 -0.5698
20479SOL     OW66283   0.363   7.196   3.570 -0.4629 -0.1818 -0.0663
20479SOL    HW166284   0.429   7.131   3.548 -1.1890 -0.7863 -0.4885
20479SOL    HW266285   0.347   7.184   3.664  0.8301  0.7279  0.2952
20480SOL     OW66286   8.609   3.548   6.748 -0.4668 -0.0372  0.1395
20480SOL    HW166287   8.636   3.456   6.754  0.2483  0.2091  0.7560
20480SOL    HW266288   8.513   3.544   6.741 -0.5063 -0.8049  0.9216
20481SOL     OW66289   8.194   4.270   2.645  0.0757 -0.6201  0.5550
20481SOL    HW166290   8.129   4.277   2.714  1.3806 -3.1346  2.2125
20481SOL    HW266291   8.225   4.359   2.631 -1.6527  0.2158  1.7844
20482SOL     OW66292   7.634   0.627   0.546  0.3648 -0.0328  0.8724
20482SOL    HW166293   7.545   0.592   0.538 -0.5385  2.0937  0.9149
20482SOL    HW266294   7.669   0.623   0.457  0.7271 -2.0409  1.0779
20483SOL     OW66295   5.391   5.978   4.845  0.0277 -0.0882 -0.0121
20483SOL    HW166296   5.432   5.927   4.915 -0.5046  0.3490  0.6248
20483SOL    HW266297   5.298   5.958   4.852  0.0637 -0.6852 -1.1348
20484SOL     OW66298   5.119   2.899   3.081 -0.2316  0.4601  0.1977
20484SOL    HW166299   5.024   2.899   3.082 -0.2424  0.0007 -0.3207
20484SOL    HW266300   5.142   2.932   2.994  0.1224  3.2180  1.2228
20485SOL     OW66301   9.572   7.604   1.929 -0.1348  0.3547  0.0740
20485SOL    HW166302   9.519   7.645   1.998 -1.8211 -0.8682 -0.4330
20485SOL    HW266303   9.569   7.667   1.857  0.3020  0.9245  0.5403
20486SOL     OW66304   9.240   1.994   1.143  0.0556 -1.0184 -0.4361
20486SOL    HW166305   9.279   1.971   1.059  2.1362  1.2288 -0.1831
20486SOL    HW266306   9.177   2.063   1.122 -0.9794 -1.9116 -0.3589
20487SOL     OW66307   5.570   8.794   1.198 -0.3407 -0.2020  0.1324
20487SOL    HW166308   5.637   8.862   1.201  0.0650 -0.5140 -1.2621
20487SOL    HW266309   5.598   8.736   1.128 -1.0833 -1.4034  0.7965
20488SOL     OW66310   3.095   0.821   4.828 -0.5179 -0.0759 -0.3743
20488SOL    HW166311   3.069   0.826   4.920  2.6100  1.3206  0.5722
20488SOL    HW266312   3.152   0.745   4.823 -0.2875  0.1310 -1.0525
20489SOL     OW66313   4.877   4.545   9.629  0.4940  0.9711 -0.0133
20489SOL    HW166314   4.939   4.576   9.562  1.8178  0.1233  0.7852
20489SOL    HW266315   4.846   4.625   9.671  0.4098  1.4567 -0.9641
20490SOL     OW66316   3.009   6.873   8.288 -0.0393 -0.2573  0.0247
20490SOL    HW166317   2.915   6.892   8.289 -0.4140 -1.9905  0.4829
20490SOL    HW266318   3.016   6.784   8.252  1.0299 -1.8120  3.6265
20491SOL     OW66319   0.468   7.077   8.888  0.0352  0.4522  0.3157
20491SOL    HW166320   0.449   7.005   8.947  1.2191  1.2036  1.6938
20491SOL    HW266321   0.383   7.101   8.851 -0.6223 -0.5790  1.1001
20492SOL     OW66322   1.864   4.215   3.701 -0.0613 -0.4727  0.2589
20492SOL    HW166323   1.945   4.196   3.653  0.4615 -1.6002  1.5377
20492SOL    HW266324   1.891   4.223   3.792 -1.6425 -3.2209  1.0863
20493SOL     OW66325   6.569   2.932   3.039  0.3172 -0.1016  0.1525
20493SOL    HW166326   6.658   2.904   3.016 -0.6584 -2.5024 -1.1493
20493SOL    HW266327   6.558   2.905   3.130  1.0054  0.4520  0.4027
20494SOL     OW66328   5.387   2.611   6.563  0.1123 -0.0161  0.6990
20494SOL    HW166329   5.426   2.688   6.604 -1.1771 -0.2671  2.5127
20494SOL    HW266330   5.457   2.575   6.508 -0.1085  4.1499 -2.8796
20495SOL     OW66331   6.450   4.769   4.839  0.0936 -0.1434 -0.1955
20495SOL    HW166332   6.459   4.676   4.817  1.0952 -0.8543  2.7582
20495SOL    HW266333   6.541   4.799   4.851 -0.2650  0.9720 -0.1892
20496SOL     OW66334   0.534   2.856   3.717  0.8338  0.0251  0.2657
20496SOL    HW166335   0.524   2.951   3.723  0.0780  0.1314 -1.9610
20496SOL    HW266336   0.525   2.836   3.624 -0.0357 -2.3364  0.7764
20497SOL     OW66337   1.919   4.304   2.203 -0.4003 -0.6353  0.5390
20497SOL    HW166338   1.956   4.221   2.235  2.4956  1.3762  2.9170
20497SOL    HW266339   1.994   4.352   2.168 -1.7919  1.4729  0.2559
20498SOL     OW66340   7.553   4.747   3.794 -0.1357  0.1052 -0.2177
20498SOL    HW166341   7.499   4.725   3.718 -0.1970 -0.9879  0.1355
20498SOL    HW266342   7.589   4.833   3.773  0.1116 -0.3193 -1.6255
20499SOL     OW66343   3.897   6.674   4.456 -0.7962 -0.3121 -0.0806
20499SOL    HW166344   3.892   6.581   4.433  1.2475 -0.5838  0.3287
20499SOL    HW266345   3.989   6.697   4.441 -0.5831  0.8875  2.5789
20500SOL     OW66346   9.461   7.350   4.238  0.3676 -0.4635 -0.2967
20500SOL    HW166347   9.513   7.430   4.228  0.5270 -0.2580  1.8799
20500SOL    HW266348   9.406   7.348   4.159 -0.2112  2.2124 -0.0573
20501SOL     OW66349   1.556   6.289   6.381  0.1449 -0.0117 -0.1033
20501SOL    HW166350   1.625   6.355   6.376  0.4097 -0.3153 -0.5300
20501SOL    HW266351   1.526   6.291   6.472 -1.2497  2.1449 -0.5260
20502SOL     OW66352   0.478   8.152   2.451  0.1721 -0.4225  0.5591
20502SOL    HW166353   0.515   8.118   2.533 -1.1634  1.3601  1.9925
20502SOL    HW266354   0.404   8.095   2.433  1.3899 -1.8059 -0.3666
20503SOL     OW66355   5.974   8.810   2.422 -0.1749 -0.4227 -0.1378
20503SOL    HW166356   6.020   8.831   2.341  3.0663 -1.2096  1.3533
20503SOL    HW266357   5.985   8.888   2.477  0.2880 -1.0141  0.6194
20504SOL     OW66358   3.652   3.157   2.428 -0.4520 -0.0799 -0.2339
20504SOL    HW166359   3.623   3.241   2.463 -1.3099 -0.6575  0.5033
20504SOL    HW266360   3.619   3.093   2.491  2.5840 -0.8182  0.8036
20505SOL     OW66361   4.280   3.389   4.669 -0.6583 -0.2582  0.0102
20505SOL    HW166362   4.275   3.426   4.581 -0.8031  1.9547  0.8906
20505SOL    HW266363   4.370   3.359   4.678 -0.7200 -0.7780 -0.9704
20506SOL     OW66364   4.556   7.974   5.194 -0.4244 -0.4853  0.0544
20506SOL    HW166365   4.519   7.926   5.268  1.7592 -0.0369  1.5283
20506SOL    HW266366   4.480   8.000   5.142 -2.0135 -1.1855  1.9139
20507SOL     OW66367   3.352   3.072   1.717  0.0220  0.2929 -0.3031
20507SOL    HW166368   3.408   3.042   1.646 -2.0335 -0.0257 -1.8911
20507SOL    HW266369   3.313   3.153   1.684  0.6564  1.3265  1.3707
20508SOL     OW66370   4.459   1.241   6.004 -0.0224  0.1391  0.0738
20508SOL    HW166371   4.534   1.295   5.979 -0.5758  0.1619 -1.6123
20508SOL    HW266372   4.391   1.262   5.940 -1.1215 -0.6688  0.9302
20509SOL     OW66373   4.627   7.070   6.102  0.0948 -0.1649 -0.3416
20509SOL    HW166374   4.650   7.006   6.170 -1.3912  0.1596  0.5057
20509SOL    HW266375   4.539   7.098   6.125 -0.3598  0.1216 -2.3060
20510SOL     OW66376   2.842   4.883   0.814  0.2880  0.2830 -0.5025
20510SOL    HW166377   2.779   4.813   0.799  0.2451  0.4826 -1.3142
20510SOL    HW266378   2.860   4.880   0.908  0.4713 -0.9618 -0.5662
20511SOL     OW66379   9.371   1.792   5.623 -0.3409  0.3889 -1.2250
20511SOL    HW166380   9.307   1.766   5.689 -0.4985  0.0002 -1.5240
20511SOL    HW266381   9.447   1.737   5.641  0.3298  1.6093 -0.1872
20512SOL     OW66382   3.613   5.077   0.355 -0.1671  0.1136 -0.1917
20512SOL    HW166383   3.629   4.983   0.366 -0.9364  0.1092  0.9422
20512SOL    HW266384   3.700   5.116   0.357  0.0870 -0.4704  0.3724
20513SOL     OW66385   0.818   3.110   2.485 -0.1939 -0.2458  0.5045
20513SOL    HW166386   0.823   3.028   2.535  0.3287 -0.9116 -0.5991
20513SOL    HW266387   0.910   3.136   2.475 -0.3074 -0.0075  0.0885
20514SOL     OW66388   9.363   8.632   2.179  0.5023  0.1520 -0.1393
20514SOL    HW166389   9.281   8.604   2.218  0.3424  2.5829  1.4038
20514SOL    HW266390   9.428   8.572   2.215  0.0518  1.0792  2.3852
20515SOL     OW66391   2.502   8.078   0.177  0.3379 -0.1408 -0.1073
20515SOL    HW166392   2.591   8.060   0.206  0.0712 -1.5274 -0.1078
20515SOL    HW266393   2.467   8.138   0.243  1.0625 -0.0695  0.2208
20516SOL     OW66394   8.844   6.878   4.699 -0.8038 -0.9611  0.4490
20516SOL    HW166395   8.888   6.894   4.615  0.1439  1.9624  1.3848
20516SOL    HW266396   8.894   6.807   4.739  1.3433  0.3076  0.2038
20517SOL     OW66397   4.741   3.709   2.348  0.2590  0.4712  0.2907
20517SOL    HW166398   4.790   3.677   2.273 -0.2073 -0.0792  0.2196
20517SOL    HW266399   4.782   3.667   2.424 -0.5414 -0.5463  0.1737
20518SOL     OW66400   9.752   6.312   1.434 -0.5468 -0.1161 -0.0151
20518SOL    HW166401   9.819   6.244   1.435  1.3082  1.6267  0.9005
20518SOL    HW266402   9.779   6.370   1.362 -1.3460  0.3660  0.0676
20519SOL     OW66403   7.276   8.346   0.659  0.7556 -0.0792  0.3950
20519SOL    HW166404   7.240   8.298   0.584  1.1749 -2.6302  1.6955
20519SOL    HW266405   7.239   8.301   0.735  0.0287  2.6701  1.7841
20520SOL     OW66406   9.456   3.316   8.373  0.3475  0.8785  0.2075
20520SOL    HW166407   9.392   3.372   8.328 -1.0739 -0.8329 -0.0402
20520SOL    HW266408   9.459   3.236   8.321  1.5705  0.3285  1.0662
20521SOL     OW66409   4.232   4.477   8.457  0.2747  0.0261  0.4776
20521SOL    HW166410   4.169   4.548   8.462  0.2352  0.0675 -0.4489
20521SOL    HW266411   4.178   4.399   8.442  0.4650  0.1528 -0.9933
20522SOL     OW66412   7.393   0.118   3.461 -0.5092 -0.2771  0.7047
20522SOL    HW166413   7.326   0.157   3.405 -0.7128 -1.0334  0.4042
20522SOL    HW266414   7.408   0.183   3.529  0.9883  1.4140 -1.1478
20523SOL     OW66415   9.403   6.649   2.379 -0.2413 -0.0849 -0.6101
20523SOL    HW166416   9.376   6.740   2.393 -1.1867 -0.5610  0.9529
20523SOL    HW266417   9.496   6.648   2.402  0.0902  0.7075 -1.8160
20524SOL     OW66418   6.002   9.608   6.398 -0.5232  0.1521  0.6793
20524SOL    HW166419   5.962   9.528   6.433 -1.3997  0.4532  0.3890
20524SOL    HW266420   6.021   9.587   6.307  1.4872 -0.5299  1.2028
20525SOL     OW66421   8.602   1.017   3.429 -0.2409  0.2675 -0.0573
20525SOL    HW166422   8.675   1.045   3.373  0.7312  1.2493  1.6248
20525SOL    HW266423   8.616   1.063   3.511 -3.2996  1.2294  0.0480
20526SOL     OW66424   8.060   3.087   0.623  0.1583 -0.0867  0.3829
20526SOL    HW166425   8.138   3.141   0.636  0.8363 -0.5487 -1.5121
20526SOL    HW266426   8.021   3.081   0.711  2.1622  0.2719  1.3669
20527SOL     OW66427   0.295   3.718   2.870 -0.2307 -0.0999  0.1670
20527SOL    HW166428   0.389   3.709   2.854 -0.2356 -0.6128  0.4059
20527SOL    HW266429   0.279   3.667   2.949 -0.7067  0.0134  0.1491
20528SOL     OW66430   9.061   2.264   3.843  0.0171 -0.3053 -0.3979
20528SOL    HW166431   8.974   2.228   3.824  0.0220  0.1763 -1.4035
20528SOL    HW266432   9.121   2.212   3.788  0.2904 -0.2039 -0.2000
20529SOL     OW66433   0.288   3.158   0.338 -0.4383 -0.0937 -0.0191
20529SOL    HW166434   0.222   3.175   0.405 -0.3558  0.6923 -0.1265
20529SOL    HW266435   0.365   3.207   0.367 -0.1076 -0.4904 -0.2208
20530SOL     OW66436   5.039   8.505   9.381  0.6309  0.3567 -0.4353
20530SOL    HW166437   5.017   8.432   9.323 -0.0552  0.3842 -0.2206
20530SOL    HW266438   4.984   8.577   9.351  0.1613  0.3292  0.3344
20531SOL     OW66439   0.977   4.145   7.167  0.1895 -0.6101 -0.0795
20531SOL    HW166440   0.976   4.226   7.116 -0.3103 -0.9251 -0.5828
20531SOL    HW266441   0.901   4.096   7.136  0.3235 -1.1501  0.4219
20532SOL     OW66442   7.562   6.503   3.740  0.3416  0.0617  0.1390
20532SOL    HW166443   7.543   6.579   3.795  3.9405  0.2024  1.4921
20532SOL    HW266444   7.537   6.428   3.793  0.4401  0.2581  0.4649
20533SOL     OW66445   8.603   0.412   6.965  0.4227 -0.3184 -0.2218
20533SOL    HW166446   8.654   0.331   6.962  1.6846  0.2400  2.8034
20533SOL    HW266447   8.631   0.461   6.889  2.1375 -1.3441 -0.3005
20534SOL     OW66448   4.227   1.804   7.342 -0.4887  0.3538 -0.1816
20534SOL    HW166449   4.310   1.842   7.370  0.0240 -0.5937 -0.3770
20534SOL    HW266450   4.172   1.880   7.322 -0.3352  1.0428  1.7600
20535SOL     OW66451   7.097   0.202   0.200  0.3857 -0.0694 -0.3645
20535SOL    HW166452   7.076   0.114   0.228 -2.6181  0.9656  1.0727
20535SOL    HW266453   7.050   0.259   0.261  0.3858  2.4877 -2.5461
20536SOL     OW66454   0.523   7.335   6.086 -1.1479 -0.6926  0.4127
20536SOL    HW166455   0.479   7.419   6.067  1.6255  0.9614  0.8054
20536SOL    HW266456   0.602   7.337   6.033 -0.3324 -2.4622  1.4908
20537SOL     OW66457   4.080   3.026   5.607  0.0792  0.6717 -0.2816
20537SOL    HW166458   4.045   3.109   5.573 -1.9500  0.3562  0.8711
20537SOL    HW266459   4.004   2.969   5.613  0.6673  0.0327  2.7150
20538SOL     OW66460   8.120   8.935   6.426 -0.0531 -0.1136 -0.3494
20538SOL    HW166461   8.208   8.963   6.451 -0.2352  0.6342 -0.5328
20538SOL    HW266462   8.096   8.870   6.492  0.5710 -0.2080 -0.2102
20539SOL     OW66463   1.398   0.771   9.630 -0.4443 -0.0547  0.6378
20539SOL    HW166464   1.327   0.827   9.664 -0.7423  0.4094 -0.7034
20539SOL    HW266465   1.448   0.747   9.708 -3.3348 -2.2568  2.0074
20540SOL     OW66466   5.755   9.032   8.338  0.5638 -0.4757  0.4400
20540SOL    HW166467   5.664   9.017   8.312  1.0363 -4.9147  0.6665
20540SOL    HW266468   5.799   9.058   8.257 -0.4683 -0.6016 -0.1749
20541SOL     OW66469   0.265   4.453   8.650 -0.0297  0.1615 -0.0995
20541SOL    HW166470   0.171   4.433   8.650  0.1998 -0.9791  1.0542
20541SOL    HW266471   0.293   4.434   8.561 -0.1817 -3.1290  0.4543
20542SOL     OW66472   6.385   2.871   2.152 -0.1878  0.1327  0.3003
20542SOL    HW166473   6.387   2.929   2.077  0.0651  1.4611  1.2917
20542SOL    HW266474   6.477   2.856   2.174 -0.2089 -1.5831 -0.6084
20543SOL     OW66475   7.690   0.287   0.146 -0.2258 -0.5432  0.1075
20543SOL    HW166476   7.597   0.308   0.137 -0.0456  0.0976 -0.2946
20543SOL    HW266477   7.691   0.204   0.194 -1.0364 -0.9794 -0.5959
20544SOL     OW66478   2.883   8.857   7.792 -0.1663  0.2988 -0.3488
20544SOL    HW166479   2.843   8.907   7.721 -2.1400 -1.5878 -0.6743
20544SOL    HW266480   2.874   8.765   7.765 -1.6313 -0.5387  2.6101
20545SOL     OW66481   1.060   0.738   6.840  0.9648  0.6147  0.0040
20545SOL    HW166482   1.156   0.746   6.835  1.1683 -1.2173 -0.0102
20545SOL    HW266483   1.044   0.645   6.823 -0.7660  0.7142  0.9094
20546SOL     OW66484   6.715   3.860   0.259  0.5556  0.1681 -0.1118
20546SOL    HW166485   6.797   3.842   0.212  0.2261  1.2560 -1.1668
20546SOL    HW266486   6.742   3.902   0.340  1.0853  4.8192 -2.3494
20547SOL     OW66487   5.145   2.880   2.351  0.1976 -0.0233 -0.3955
20547SOL    HW166488   5.146   2.848   2.441  2.4399  0.2262 -0.2745
20547SOL    HW266489   5.058   2.919   2.340 -0.3534 -0.6417  1.4347
20548SOL     OW66490   6.526   6.074   0.506 -0.2224  0.0177 -0.1393
20548SOL    HW166491   6.467   6.136   0.464 -1.1716 -0.7750 -0.0289
20548SOL    HW266492   6.606   6.076   0.453 -0.7615  0.3006 -0.9638
20549SOL     OW66493   3.267   6.941   7.842 -0.0168 -0.1789 -0.0460
20549SOL    HW166494   3.193   7.002   7.845  0.8587  0.8803  1.0101
20549SOL    HW266495   3.287   6.923   7.934  0.6187 -0.9945 -0.3337
20550SOL     OW66496   6.931   3.791   7.127 -0.1685 -0.0021 -0.0520
20550SOL    HW166497   6.946   3.828   7.041 -0.9159 -2.0672 -1.1354
20550SOL    HW266498   6.988   3.715   7.132  0.9159  0.8543  1.8802
20551SOL     OW66499   7.690   9.603   0.465  0.1036 -0.2165 -0.3198
20551SOL    HW166500   7.720   9.513   0.479  0.6858 -0.0523 -0.4977
20551SOL    HW266501   7.734   9.654   0.534 -0.2957 -0.0816 -0.1616
20552SOL     OW66502   5.023   5.530   4.049  0.0678 -0.3629 -0.3659
20552SOL    HW166503   5.050   5.475   3.976 -2.2551 -0.9369 -0.8689
20552SOL    HW266504   4.930   5.509   4.062  0.0987  0.6508  1.9370
20553SOL     OW66505   4.116   8.488   2.112 -0.3891  0.6559  0.0959
20553SOL    HW166506   4.176   8.456   2.044  1.4202  0.6473  1.6284
20553SOL    HW266507   4.029   8.468   2.078  0.5061 -0.5930 -1.6060
20554SOL     OW66508   9.293   0.351   6.195 -0.4509 -0.2243 -0.2802
20554SOL    HW166509   9.384   0.328   6.173 -0.3401  0.2380 -0.3198
20554SOL    HW266510   9.270   0.420   6.133  0.7041  2.9188  2.4386
20555SOL     OW66511   8.375   8.720   1.847 -0.2891 -0.4571 -0.7327
20555SOL    HW166512   8.460   8.745   1.812  0.3465  0.8211  1.5738
20555SOL    HW266513   8.387   8.715   1.941 -2.8209  0.0220 -0.2916
20556SOL     OW66514   9.066   6.802   7.285 -0.2548  0.6023 -0.2411
20556SOL    HW166515   9.055   6.882   7.335  0.8273  0.8072 -0.3110
20556SOL    HW266516   9.142   6.818   7.229 -0.1293 -0.4017 -0.3827
20557SOL     OW66517   9.314   0.588   6.889 -0.0862  0.0572  0.1697
20557SOL    HW166518   9.242   0.531   6.916  0.4522 -0.1184  1.2705
20557SOL    HW266519   9.375   0.531   6.842 -1.8450  0.6663 -3.2184
20558SOL     OW66520   9.070   3.691   0.046  0.6171  0.0837 -0.1941
20558SOL    HW166521   9.164   3.675   0.038  0.7267 -0.5029  1.5988
20558SOL    HW266522   9.063   3.758   0.113 -0.2409  0.1379 -0.3306
20559SOL     OW66523   1.045   0.714   3.160 -0.6810  0.6523 -0.2015
20559SOL    HW166524   1.092   0.795   3.181  0.4752  0.2811 -1.2827
20559SOL    HW266525   0.971   0.713   3.221 -0.9235  2.6965 -0.3859
20560SOL     OW66526   7.417   7.862   4.878  0.5772 -0.0700 -0.4842
20560SOL    HW166527   7.413   7.891   4.969  0.6702  0.1385 -0.5471
20560SOL    HW266528   7.334   7.815   4.864  1.4202 -1.9131  0.3313
20561SOL     OW66529   2.200   0.610   8.214 -0.6366  0.1126  0.4166
20561SOL    HW166530   2.175   0.697   8.183 -0.2438  0.2125  0.3680
20561SOL    HW266531   2.204   0.620   8.309 -2.1350 -0.2723  0.5458
20562SOL     OW66532   8.581   7.494   0.367  0.6440  0.4236 -0.3532
20562SOL    HW166533   8.521   7.457   0.431  1.5049 -2.8201 -1.2385
20562SOL    HW266534   8.525   7.544   0.308 -1.0877 -1.4788 -0.4556
20563SOL     OW66535   7.526   5.833   7.395  0.7100 -0.1350 -0.0209
20563SOL    HW166536   7.578   5.814   7.317  1.2472  1.5059 -0.1168
20563SOL    HW266537   7.583   5.890   7.447  0.0609 -0.5920  1.2185
20564SOL     OW66538   6.917   5.142   0.975 -0.0116 -0.4475 -0.6285
20564SOL    HW166539   6.862   5.187   0.910 -1.3973  0.3290  0.9980
20564SOL    HW266540   7.005   5.174   0.959  0.2531 -2.2653 -3.8095
20565SOL     OW66541   2.948   7.052   1.053  0.0629 -0.5946  0.2814
20565SOL    HW166542   2.877   7.008   1.006  0.0187  0.4013 -0.6318
20565SOL    HW266543   2.912   7.138   1.076  1.2623  0.3358 -1.1047
20566SOL     OW66544   7.328   2.039   1.246 -0.5737 -0.2376 -0.2303
20566SOL    HW166545   7.281   1.970   1.198 -1.2863  0.1319 -0.0848
20566SOL    HW266546   7.270   2.115   1.241 -0.5401 -0.1078  0.9724
20567SOL     OW66547   5.696   7.013   9.080 -0.1032  0.2640  0.0102
20567SOL    HW166548   5.784   6.984   9.102 -0.8728 -0.5000  2.5221
20567SOL    HW266549   5.662   7.049   9.162 -1.7950  1.4443 -1.1422
20568SOL     OW66550   2.150   5.089   8.318 -0.2856 -0.7371 -0.0387
20568SOL    HW166551   2.114   5.063   8.233  0.2788 -1.8636  0.0431
20568SOL    HW266552   2.200   5.012   8.347  2.1045  0.7196 -0.1030
20569SOL     OW66553   8.740   2.102   4.467 -0.1693 -0.6912 -0.2269
20569SOL    HW166554   8.827   2.142   4.460 -0.2769 -0.3343  0.3262
20569SOL    HW266555   8.719   2.110   4.560 -1.7192  1.2184 -0.6919
20570SOL     OW66556   1.732   6.294   8.540  0.0299  0.4050 -0.4527
20570SOL    HW166557   1.686   6.225   8.493 -1.0287  1.4790 -1.0304
20570SOL    HW266558   1.730   6.267   8.631 -1.5873  0.3366 -0.4941
20571SOL     OW66559   4.888   1.027   3.171  0.2958  0.4957 -0.4164
20571SOL    HW166560   4.845   1.085   3.108  1.7942  0.5666 -1.4341
20571SOL    HW266561   4.844   0.943   3.160 -0.6287  0.9579 -0.2938
20572SOL     OW66562   1.778   3.411   6.715  0.2303 -0.1275 -0.2595
20572SOL    HW166563   1.691   3.432   6.748  0.2538  0.0187 -0.2912
20572SOL    HW266564   1.774   3.433   6.622  1.2277  2.8322  0.2911
20573SOL     OW66565   3.755   0.580   5.367 -0.1817  0.6507  0.0234
20573SOL    HW166566   3.768   0.647   5.434 -1.2114  0.7302  0.1600
20573SOL    HW266567   3.700   0.623   5.301  1.5140  0.8471 -1.3123
20574SOL     OW66568   3.580   8.684   1.066 -0.5488  0.4964  0.2238
20574SOL    HW166569   3.496   8.669   1.109 -0.0100  0.1327  1.1692
20574SOL    HW266570   3.631   8.605   1.084 -0.1106  0.5626 -0.6388
20575SOL     OW66571   0.313   0.469   5.862  0.0500 -0.9954  0.2102
20575SOL    HW166572   0.244   0.504   5.918  0.8842  3.1704 -0.9401
20575SOL    HW266573   0.392   0.471   5.916  0.4122  0.7899 -0.2997
20576SOL     OW66574   1.047   9.371   4.592 -0.0134  0.5209  0.3663
20576SOL    HW166575   1.136   9.337   4.577 -0.5259  0.1886 -2.4085
20576SOL    HW266576   0.994   9.293   4.610 -0.2756  0.3425 -1.0725
20577SOL     OW66577   0.383   9.320   0.360 -0.3759  0.0528 -0.1391
20577SOL    HW166578   0.363   9.343   0.269 -1.3200 -1.2456 -0.2837
20577SOL    HW266579   0.386   9.225   0.360  4.3326 -0.0151  0.2196
20578SOL     OW66580   7.296   1.301   6.846  0.6873  0.1629  0.0936
20578SOL    HW166581   7.288   1.327   6.754  1.9806  1.4860  0.3199
20578SOL    HW266582   7.324   1.381   6.891 -0.8402 -0.2170  1.8106
20579SOL     OW66583   2.397   0.473   8.068  0.1288  0.0566 -0.8216
20579SOL    HW166584   2.328   0.512   8.121  0.1561 -1.7028  0.6168
20579SOL    HW266585   2.431   0.545   8.016 -1.8297  1.2620 -0.5304
20580SOL     OW66586   6.783   6.867   7.773 -0.3785 -0.0365 -0.5622
20580SOL    HW166587   6.837   6.807   7.723 -0.1955  0.8112 -1.4224
20580SOL    HW266588   6.693   6.841   7.753 -0.3613  1.2916 -2.7108
20581SOL     OW66589   9.460   2.648   2.549 -0.1699  0.2068  0.0700
20581SOL    HW166590   9.504   2.693   2.477  0.2073  1.0327  0.7984
20581SOL    HW266591   9.447   2.716   2.615  0.2630 -0.7176  1.1385
20582SOL     OW66592   4.237   8.703   0.279  0.3039  0.5144 -0.2855
20582SOL    HW166593   4.175   8.680   0.348 -0.3028 -2.1183 -1.5673
20582SOL    HW266594   4.314   8.650   0.298  0.6148  0.7179 -0.9454
20583SOL     OW66595   6.959   8.903   0.889 -0.1465  0.4230  1.3908
20583SOL    HW166596   7.006   8.828   0.926 -1.1324 -0.0050  1.8154
20583SOL    HW266597   6.873   8.868   0.867  0.6583  0.3619 -2.2979
20584SOL     OW66598   6.632   5.641   9.518 -0.8446 -0.3637 -0.0107
20584SOL    HW166599   6.683   5.586   9.576 -1.2299 -1.1944 -0.4333
20584SOL    HW266600   6.684   5.647   9.438  0.6475  2.4322  1.0364
20585SOL     OW66601   2.688   5.951   6.714  0.3095  0.1239  0.3463
20585SOL    HW166602   2.777   5.959   6.749 -0.1408 -0.2532  1.6603
20585SOL    HW266603   2.639   5.910   6.785 -0.5248 -1.3346 -1.0236
20586SOL     OW66604   4.736   5.747   2.927 -0.5066  0.3499 -0.3703
20586SOL    HW166605   4.796   5.798   2.981 -0.6718 -1.4270  1.5927
20586SOL    HW266606   4.650   5.784   2.945 -0.2366  2.2087 -2.3933
20587SOL     OW66607   7.209   9.389   8.307 -0.2720 -0.1698  0.0754
20587SOL    HW166608   7.234   9.304   8.343 -0.5606  0.1819  1.1445
20587SOL    HW266609   7.243   9.453   8.369  0.1837  0.5279 -0.8563
20588SOL     OW66610   6.780   4.893   5.942 -0.1766  0.2804  0.2293
20588SOL    HW166611   6.800   4.816   5.994 -0.1393  0.5862  0.6732
20588SOL    HW266612   6.841   4.960   5.974  1.0142  0.0034 -1.3554
20589SOL     OW66613   6.459   7.176   8.912  0.0723  1.0338 -0.2378
20589SOL    HW166614   6.440   7.260   8.870  0.8049  1.1679 -0.3037
20589SOL    HW266615   6.400   7.174   8.988  0.8124  2.0895  0.3867
20590SOL     OW66616   2.400   2.048   0.689 -0.6809  0.2032 -0.0304
20590SOL    HW166617   2.410   2.008   0.776  0.4660  1.5650  0.5015
20590SOL    HW266618   2.469   2.009   0.636 -2.6247 -2.1693 -1.0059
20591SOL     OW66619   6.155   4.397   9.125  0.0556 -0.1785  0.5727
20591SOL    HW166620   6.182   4.474   9.074 -1.6111  0.4634  0.6004
20591SOL    HW266621   6.237   4.350   9.142  0.8847  0.5742 -1.0710
20592SOL     OW66622   5.122   8.686   2.893 -0.8511  0.0431  0.4552
20592SOL    HW166623   5.113   8.767   2.843 -0.1798 -0.6178 -0.7888
20592SOL    HW266624   5.096   8.710   2.982 -0.3262  1.7193  0.2047
20593SOL     OW66625   5.566   0.195   8.702 -0.1626 -0.4018  0.3145
20593SOL    HW166626   5.520   0.185   8.619 -0.3770 -0.0186  0.3794
20593SOL    HW266627   5.658   0.196   8.680 -0.1701 -1.4262  0.2059
20594SOL     OW66628   5.050   9.639   7.102 -0.5333 -0.5210 -0.1025
20594SOL    HW166629   4.980   9.608   7.043 -1.0154  0.2461  0.0543
20594SOL    HW266630   5.009   9.640   7.188 -1.0392  1.9746 -0.3016
20595SOL     OW66631   8.295   9.228   0.979 -0.1973  0.1790  0.4965
20595SOL    HW166632   8.204   9.253   0.995 -0.6844 -1.8319  1.2798
20595SOL    HW266633   8.345   9.309   0.984 -1.9286  1.2998  0.2089
20596SOL     OW66634   3.070   9.750   2.498  0.8120  0.3604 -0.0051
20596SOL    HW166635   2.978   9.726   2.484  0.7238  0.0765  0.9388
20596SOL    HW266636   3.071   9.786   2.587  1.8390 -0.9158  0.5344
20597SOL     OW66637   9.230   1.572   5.382  0.4420  0.1185 -0.5421
20597SOL    HW166638   9.247   1.649   5.328  1.9039 -1.0381 -1.8167
20597SOL    HW266639   9.176   1.515   5.327 -0.3539  0.0667  0.2655
20598SOL     OW66640   6.286   2.454   3.100 -0.1063 -0.5189  0.5876
20598SOL    HW166641   6.322   2.532   3.057  0.3392 -0.4704  1.0345
20598SOL    HW266642   6.232   2.412   3.033  1.0327 -0.7619 -0.2095
20599SOL     OW66643   6.869   1.896   8.509  0.0595  0.1197  0.1312
20599SOL    HW166644   6.788   1.847   8.517  0.5898 -0.5861  1.4177
20599SOL    HW266645   6.921   1.869   8.585  1.1019  1.2923 -0.1422
20600SOL     OW66646   5.740   6.377   0.273  0.8729 -0.2053 -0.6652
20600SOL    HW166647   5.794   6.419   0.341  0.3486 -0.4780 -0.0648
20600SOL    HW266648   5.728   6.287   0.304 -1.2224  0.2488  0.0572
20601SOL     OW66649   8.735   9.482   5.676 -0.7041  0.5735  0.8393
20601SOL    HW166650   8.682   9.560   5.662 -0.5672  1.0662  2.7224
20601SOL    HW266651   8.706   9.449   5.761 -0.2069 -0.9771  0.4245
20602SOL     OW66652   2.357   4.364   3.817  0.0679 -0.2121  0.5052
20602SOL    HW166653   2.283   4.362   3.757 -0.4907  0.5703  1.1460
20602SOL    HW266654   2.353   4.280   3.863 -0.7110  0.0290  0.8813
20603SOL     OW66655   9.716   2.318   5.542  0.5596 -0.0037  0.0643
20603SOL    HW166656   9.749   2.336   5.630  1.0075  0.2547 -0.1495
20603SOL    HW266657   9.638   2.264   5.556  2.5670 -3.0447  0.5269
20604SOL     OW66658   6.046   5.679   3.870  0.0934  0.0067  0.2575
20604SOL    HW166659   5.996   5.747   3.827 -0.1461 -0.3948 -0.1072
20604SOL    HW266660   5.998   5.598   3.852 -0.2076 -0.1379  1.5491
20605SOL     OW66661   3.917   3.282   8.913 -0.2368 -0.2985 -0.3286
20605SOL    HW166662   3.839   3.293   8.858 -0.7197  1.4615  0.6005
20605SOL    HW266663   3.982   3.341   8.875  0.8264 -2.0092 -1.3045
20606SOL     OW66664   3.903   9.398   4.067 -0.3874 -0.5204 -0.0054
20606SOL    HW166665   3.968   9.339   4.103 -2.0802 -1.6457  1.3738
20606SOL    HW266666   3.928   9.407   3.975  1.0246 -1.8315  0.2010
20607SOL     OW66667   3.934   6.582   0.424  0.3805 -0.2720 -0.2350
20607SOL    HW166668   3.840   6.585   0.440 -0.0036 -1.4428 -1.9406
20607SOL    HW266669   3.942   6.565   0.330  2.3544  2.4970 -0.6794
20608SOL     OW66670   4.239   4.644   7.231  0.2517 -0.0853 -0.2750
20608SOL    HW166671   4.160   4.590   7.223  0.1564  0.0671 -0.3824
20608SOL    HW266672   4.258   4.647   7.324 -0.2958  0.4819 -0.1735
20609SOL     OW66673   2.569   7.610   5.960  0.4327 -0.2834  0.3496
20609SOL    HW166674   2.538   7.529   5.999 -0.6381 -0.7184 -1.3243
20609SOL    HW266675   2.530   7.612   5.872  1.0427  1.6622  0.0605
20610SOL     OW66676   8.244   2.187   1.081  0.0556 -0.8155  0.1016
20610SOL    HW166677   8.242   2.118   1.147 -1.0590  0.2039  1.1912
20610SOL    HW266678   8.304   2.253   1.116  0.1392 -0.6564 -0.3290
20611SOL     OW66679   1.891   0.796   8.774  0.0052 -0.4204 -0.5080
20611SOL    HW166680   1.832   0.752   8.836  0.4839  2.2777  2.0639
20611SOL    HW266681   1.966   0.737   8.767  0.2208 -0.5801  2.0710
20612SOL     OW66682   6.700   2.396   2.668  0.1440 -0.1994  0.0724
20612SOL    HW166683   6.775   2.436   2.625 -0.0478  0.0470 -0.0357
20612SOL    HW266684   6.630   2.398   2.602 -0.2273  0.4136  0.4660
20613SOL     OW66685   2.335   2.374   6.532 -0.0785  0.1525  0.1087
20613SOL    HW166686   2.263   2.318   6.504 -0.0862 -0.3351  1.0731
20613SOL    HW266687   2.413   2.320   6.521  0.3497  1.0899 -2.1378
20614SOL     OW66688   2.111   2.630   8.491 -0.0034 -0.0429  0.1177
20614SOL    HW166689   2.149   2.587   8.415  0.9161  1.4622 -0.2956
20614SOL    HW266690   2.185   2.670   8.536 -0.7956  0.8336  0.6727
20615SOL     OW66691   8.884   0.933   4.447 -0.1121 -0.4091  0.4075
20615SOL    HW166692   8.949   0.969   4.387  0.1154 -2.3059 -0.5681
20615SOL    HW266693   8.800   0.951   4.405 -0.0640 -0.1597  0.4180
20616SOL     OW66694   6.432   2.736   2.433  0.2330  0.1329 -0.4982
20616SOL    HW166695   6.431   2.661   2.492 -0.8185 -0.4980 -1.2987
20616SOL    HW266696   6.504   2.718   2.373  1.6130  0.9988  0.8221
20617SOL     OW66697   3.009   4.817   3.175 -0.0118 -0.5984  0.3278
20617SOL    HW166698   3.096   4.781   3.156  0.4043  0.7841 -0.5932
20617SOL    HW266699   2.949   4.746   3.156  0.8431 -1.1431 -0.4582
20618SOL     OW66700   1.288   1.170   9.264  0.1799 -0.0414  0.8805
20618SOL    HW166701   1.285   1.251   9.314 -1.2653 -0.4378  1.4894
20618SOL    HW266702   1.272   1.101   9.328  1.5336 -0.8503  0.4015
20619SOL     OW66703   5.468   4.038   4.941  0.1521 -0.3508  0.5574
20619SOL    HW166704   5.472   4.109   4.877 -2.5801 -0.6493 -0.0407
20619SOL    HW266705   5.468   3.958   4.888  0.4504 -0.7081  1.0824
20620SOL     OW66706   2.047   1.195   8.094  0.2872 -0.0343  0.4620
20620SOL    HW166707   2.056   1.126   8.029 -1.6503  0.9907 -1.0146
20620SOL    HW266708   1.957   1.187   8.125  1.3839 -1.0873  3.8453
20621SOL     OW66709   5.177   1.431   0.594  0.6494 -0.0625 -0.1162
20621SOL    HW166710   5.189   1.340   0.567 -0.1109 -0.4290  0.7190
20621SOL    HW266711   5.174   1.480   0.512  0.0834 -0.9251 -0.6335
20622SOL     OW66712   3.092   0.856   8.862  0.3056  0.3953  0.2879
20622SOL    HW166713   3.084   0.792   8.792  1.0505  0.0402  0.5119
20622SOL    HW266714   3.180   0.891   8.852 -0.2042  1.6379 -0.0317
20623SOL     OW66715   6.312   4.244   5.214  0.0475 -1.0033 -0.3031
20623SOL    HW166716   6.292   4.332   5.246  0.1324 -0.8809 -0.5866
20623SOL    HW266717   6.286   4.187   5.286 -1.8979 -0.8947 -0.8659
20624SOL     OW66718   0.981   8.097   3.434  0.3479 -0.5661 -0.2674
20624SOL    HW166719   0.973   8.161   3.504 -2.5434 -0.5590 -0.4845
20624SOL    HW266720   0.941   8.017   3.469 -2.6922 -0.1162 -2.2679
20625SOL     OW66721   8.131   5.165   6.778  0.3299 -0.2117 -0.6727
20625SOL    HW166722   8.197   5.234   6.769  1.1083 -1.1078 -2.0523
20625SOL    HW266723   8.079   5.171   6.698 -0.6013 -0.2192 -0.0804
20626SOL     OW66724   4.802   8.369   0.125  0.5702 -0.5165  0.0057
20626SOL    HW166725   4.788   8.277   0.102  1.3916 -0.2986 -1.5047
20626SOL    HW266726   4.877   8.368   0.183 -0.0497 -0.8790  0.8120
20627SOL     OW66727   8.032   9.301   0.973  0.0375 -0.1093 -0.8623
20627SOL    HW166728   7.998   9.381   0.935 -0.2052  0.3123  0.1922
20627SOL    HW266729   7.969   9.279   1.042  1.0634 -0.1711  0.0985
20628SOL     OW66730   7.307   0.781   4.060  0.2801 -0.5289  0.4011
20628SOL    HW166731   7.279   0.704   4.112  1.1695 -1.4498 -0.4469
20628SOL    HW266732   7.274   0.763   3.972  0.4559  0.0920  0.2072
20629SOL     OW66733   2.231   5.479   3.238  0.2034  0.5005  0.4874
20629SOL    HW166734   2.199   5.421   3.307  0.6546 -0.7397 -0.2902
20629SOL    HW266735   2.256   5.419   3.167 -0.6562  1.7361 -0.9275
20630SOL     OW66736   2.491   1.749   5.683  0.1826 -0.5411  0.1879
20630SOL    HW166737   2.545   1.707   5.750  2.4997  0.2838 -1.0688
20630SOL    HW266738   2.426   1.799   5.733  1.0449 -0.9434  1.7864
20631SOL     OW66739   5.896   3.428   3.856 -0.2197  0.5080  0.4442
20631SOL    HW166740   5.870   3.433   3.764  0.2353 -1.0984  0.1837
20631SOL    HW266741   5.898   3.334   3.875 -1.2113  0.8308  2.3811
20632SOL     OW66742   1.507   8.902   1.863 -0.0060 -0.0103 -0.2288
20632SOL    HW166743   1.513   8.995   1.885  0.1427 -0.4795  1.9797
20632SOL    HW266744   1.583   8.862   1.906  0.9936 -0.9472 -2.6886
20633SOL     OW66745   2.090   3.648   8.617 -0.5642 -0.3581  0.2504
20633SOL    HW166746   2.052   3.585   8.679  1.3627 -0.0207  1.8666
20633SOL    HW266747   2.159   3.599   8.573  1.4112  0.6722  1.9962
20634SOL     OW66748   4.522   7.436   4.168  0.2726  0.2989 -0.4865
20634SOL    HW166749   4.458   7.369   4.191  0.5027  0.0347 -0.6133
20634SOL    HW266750   4.605   7.389   4.162  0.5922  0.7429  0.2902
20635SOL     OW66751   7.750   0.760   2.698  0.1537 -0.1512 -0.4064
20635SOL    HW166752   7.768   0.742   2.606  0.9197  0.5880 -0.4170
20635SOL    HW266753   7.702   0.843   2.697  1.7234  0.8069 -0.0693
20636SOL     OW66754   8.468   3.711   2.792  0.2755 -0.0008  0.0561
20636SOL    HW166755   8.538   3.646   2.794  1.3689  1.1292 -0.0808
20636SOL    HW266756   8.405   3.676   2.729  0.6557 -1.0889  0.2511
20637SOL     OW66757   1.140   2.715   4.040  0.0257 -0.0104  0.0934
20637SOL    HW166758   1.190   2.729   3.959  0.2761 -1.7581 -0.0858
20637SOL    HW266759   1.187   2.647   4.086 -0.8478  0.0462  1.1130
20638SOL     OW66760   4.533   9.238   1.741 -0.0560  0.6819  0.1186
20638SOL    HW166761   4.481   9.237   1.661 -0.3434  0.0044  0.3116
20638SOL    HW266762   4.505   9.161   1.790  0.4055  0.8647  0.6908
20639SOL     OW66763   2.974   2.695   6.284  0.3990 -0.3916 -0.1355
20639SOL    HW166764   3.023   2.614   6.295 -0.1455 -0.8084 -0.7252
20639SOL    HW266765   2.963   2.704   6.190  2.0689  1.3512 -0.2408
20640SOL     OW66766   5.712   5.537   2.842 -0.3153 -0.3656 -0.2789
20640SOL    HW166767   5.802   5.541   2.872 -0.3661 -1.6367  0.0584
20640SOL    HW266768   5.662   5.507   2.918 -1.2677  1.7485  0.0051
20641SOL     OW66769   5.916   1.978   1.600  0.3652  0.3861 -0.2714
20641SOL    HW166770   5.864   1.960   1.679  2.1306  0.6639  1.0299
20641SOL    HW266771   5.918   1.895   1.553 -1.3908  0.4216 -0.4976
20642SOL     OW66772   7.409   8.561   0.976  0.4662  0.4449  0.0010
20642SOL    HW166773   7.451   8.475   0.972  0.8642  0.5148  1.7886
20642SOL    HW266774   7.378   8.568   1.066  0.8156  2.3456  0.0087
20643SOL     OW66775   5.841   6.108   7.739 -0.2464  0.5535 -0.5019
20643SOL    HW166776   5.793   6.154   7.671  0.4592  2.4438  0.2099
20643SOL    HW266777   5.892   6.042   7.693 -1.9787 -0.1818 -1.4598
20644SOL     OW66778   0.555   3.716   2.837  0.1521 -0.5352  0.1368
20644SOL    HW166779   0.613   3.786   2.806  0.6573 -0.7766  0.5307
20644SOL    HW266780   0.604   3.674   2.907 -0.9210 -0.0919  1.1791
20645SOL     OW66781   5.703   9.199   2.151 -0.0778 -0.5966  0.3848
20645SOL    HW166782   5.753   9.280   2.148 -1.7555  0.5178  0.9452
20645SOL    HW266783   5.747   9.141   2.090  1.0977  0.7831 -0.1263
20646SOL     OW66784   0.924   7.127   2.816 -0.0312 -0.2244 -0.0575
20646SOL    HW166785   0.983   7.138   2.891 -2.4846  0.3342  1.9340
20646SOL    HW266786   0.973   7.072   2.755  2.0112 -0.9221  2.0500
20647SOL     OW66787   2.382   4.736   4.339  0.7548  0.3534 -0.1380
20647SOL    HW166788   2.437   4.809   4.309  2.2250 -1.1597 -1.3276
20647SOL    HW266789   2.420   4.712   4.423  1.4838 -0.2181 -0.6180
20648SOL     OW66790   0.419   4.704   1.908 -0.6207  0.6092  0.0961
20648SOL    HW166791   0.365   4.648   1.852 -1.2320  1.4605 -0.1784
20648SOL    HW266792   0.366   4.720   1.986 -0.3334  0.5800  0.3005
20649SOL     OW66793   9.209   5.623   1.587 -0.3103  0.4530  0.2591
20649SOL    HW166794   9.292   5.575   1.591 -0.4007  0.1030 -1.2372
20649SOL    HW266795   9.146   5.566   1.631  0.1226  0.4377  0.8629
20650SOL     OW66796   3.590   2.678   0.994 -0.3846 -0.1003 -0.1864
20650SOL    HW166797   3.581   2.620   1.069 -2.1281 -1.7120 -1.5636
20650SOL    HW266798   3.617   2.762   1.032  1.0869 -1.4442  1.9722
20651SOL     OW66799   4.018   8.988   3.939  0.0148 -0.2633  0.4022
20651SOL    HW166800   4.096   9.023   3.895  1.2458 -0.8343  2.0185
20651SOL    HW266801   4.007   9.044   4.016  1.3165 -2.5249  2.3910
20652SOL     OW66802   1.791   0.105   1.961  0.0034  0.0458  0.2609
20652SOL    HW166803   1.708   0.136   1.925 -0.0103 -0.6860 -0.3740
20652SOL    HW266804   1.777   0.104   2.056 -1.8957 -3.0948  0.0838
20653SOL     OW66805   0.265   9.519   9.237 -0.6243  0.0151  0.8431
20653SOL    HW166806   0.325   9.576   9.285  1.7449  0.3484 -2.2185
20653SOL    HW266807   0.298   9.431   9.253  0.8635  0.2071 -0.9322
20654SOL     OW66808   3.127   1.789   4.690  0.0632 -0.2087  0.5248
20654SOL    HW166809   3.096   1.784   4.780  0.8840  0.8454  0.8790
20654SOL    HW266810   3.221   1.805   4.697  0.2511 -0.7330 -0.5217
20655SOL     OW66811   6.377   7.442   5.404 -0.1608  0.3498  0.6361
20655SOL    HW166812   6.309   7.505   5.378 -2.1438 -1.7934  0.2909
20655SOL    HW266813   6.384   7.383   5.328  0.0722 -1.0692  1.7218
20656SOL     OW66814   1.645   8.594   2.779 -0.2970 -0.3629 -0.2634
20656SOL    HW166815   1.567   8.641   2.751 -0.1492  0.6754  0.9959
20656SOL    HW266816   1.658   8.620   2.870  0.9713 -1.2583 -0.1589
20657SOL     OW66817   0.805   6.415   9.518 -0.0804  0.6783 -0.1029
20657SOL    HW166818   0.857   6.428   9.438  1.8437  0.3047  1.0160
20657SOL    HW266819   0.715   6.429   9.491  0.5732  1.1272 -2.2172
20658SOL     OW66820   5.852   6.338   3.470  0.0638 -0.3117 -0.0097
20658SOL    HW166821   5.823   6.292   3.391 -1.0740  0.2229  0.0783
20658SOL    HW266822   5.773   6.345   3.524  1.0374 -1.6166  1.6795
20659SOL     OW66823   5.837   0.476   9.011  0.6993  0.8506 -0.3716
20659SOL    HW166824   5.836   0.438   8.924  1.2389  1.6990 -0.7543
20659SOL    HW266825   5.766   0.541   9.010  0.8003  0.9633 -0.2184
20660SOL     OW66826   1.031   3.715   1.126 -0.0145 -0.4719  0.2182
20660SOL    HW166827   1.112   3.720   1.075  0.4540 -0.2645  0.9728
20660SOL    HW266828   1.053   3.661   1.202 -0.5149 -0.2087  0.5589
20661SOL     OW66829   7.486   6.635   1.232 -0.5593 -0.5564  0.0006
20661SOL    HW166830   7.415   6.646   1.295  0.8689 -0.4690  1.6713
20661SOL    HW266831   7.464   6.554   1.186 -1.1232 -1.1999  1.3467
20662SOL     OW66832   8.797   1.370   6.714  0.3052  0.2659 -0.1604
20662SOL    HW166833   8.744   1.312   6.769 -0.3955  1.3477  0.3340
20662SOL    HW266834   8.812   1.447   6.769  1.5174  0.4217 -0.6781
20663SOL     OW66835   7.438   5.065   0.237  0.7555  0.4502 -0.3178
20663SOL    HW166836   7.499   5.003   0.197 -0.9040 -1.0332 -0.6860
20663SOL    HW266837   7.447   5.050   0.331  2.8174  2.1365 -0.1800
20664SOL     OW66838   8.989   9.483   4.269  0.6687 -0.2634  0.6108
20664SOL    HW166839   8.985   9.536   4.190  0.9231 -0.8240  0.2146
20664SOL    HW266840   9.082   9.465   4.281  0.5776 -0.7138  0.6732
20665SOL     OW66841   8.593   0.193   4.511  0.5011 -0.4083 -0.4269
20665SOL    HW166842   8.565   0.107   4.541 -0.0219 -0.3398 -0.7043
20665SOL    HW266843   8.638   0.231   4.586  1.4777 -1.2496 -0.5690
20666SOL     OW66844   5.742   5.929   9.624  0.7244  0.3060 -0.0938
20666SOL    HW166845   5.779   5.864   9.684 -0.4000 -0.0586  0.2326
20666SOL    HW266846   5.789   6.010   9.645  1.8617 -0.2986 -0.2288
20667SOL     OW66847   4.934   0.368   7.011  0.0382 -0.3967 -0.1041
20667SOL    HW166848   4.948   0.361   6.917 -1.3920 -1.2316 -0.2906
20667SOL    HW266849   4.891   0.453   7.023  2.0247  0.6545  0.0861
20668SOL     OW66850   9.421   2.340   9.150  0.5144  0.2924  1.0596
20668SOL    HW166851   9.387   2.309   9.066  1.8084 -0.1051  0.6582
20668SOL    HW266852   9.391   2.276   9.214  0.8150 -0.2639  0.6518
20669SOL     OW66853   6.501   0.082   2.633 -0.1827 -0.5919 -0.2395
20669SOL    HW166854   6.543   0.018   2.576 -0.4370  0.0575 -1.1944
20669SOL    HW266855   6.532   0.167   2.601  0.8192 -0.2429  1.5400
20670SOL     OW66856   1.097   6.975   2.642  0.0562  0.2214  0.0995
20670SOL    HW166857   1.072   7.036   2.572  2.6480  2.3953  0.8909
20670SOL    HW266858   1.063   6.890   2.613 -1.9145  1.6231 -2.0958
20671SOL     OW66859   5.440   6.712   2.689  0.3193  0.0217  0.0849
20671SOL    HW166860   5.443   6.725   2.595  0.7217 -0.2086  0.0628
20671SOL    HW266861   5.433   6.801   2.726 -0.2697  0.0843 -0.1729
20672SOL     OW66862   3.651   8.551   0.262  0.4581  0.0388 -0.6056
20672SOL    HW166863   3.729   8.512   0.223  0.0347 -0.7164 -0.7096
20672SOL    HW266864   3.680   8.584   0.347  0.6267 -1.2999 -0.1267
20673SOL     OW66865   2.615   2.372   0.024  0.1955 -0.1798  0.1429
20673SOL    HW166866   2.653   2.448   0.069 -1.2389 -0.2277  1.5203
20673SOL    HW266867   2.533   2.356   0.070 -0.8090 -0.9494 -1.8372
20674SOL     OW66868   5.095   6.474   7.994  0.1606  0.4565  0.2152
20674SOL    HW166869   5.131   6.522   8.068 -0.1288 -2.7119  2.5964
20674SOL    HW266870   5.157   6.403   7.978 -0.6176  0.1003 -1.5087
20675SOL     OW66871   7.303   2.895   0.699 -0.6623 -0.2747  0.2335
20675SOL    HW166872   7.339   2.982   0.684  0.7084 -0.9962 -0.9077
20675SOL    HW266873   7.208   2.907   0.692 -0.4793  1.0901 -0.1209
20676SOL     OW66874   3.652   0.863   3.402  0.4185 -0.4717  0.0625
20676SOL    HW166875   3.632   0.770   3.413  1.8404 -0.6188  1.9498
20676SOL    HW266876   3.678   0.871   3.310  0.2111 -1.9359 -0.1490
20677SOL     OW66877   9.426   6.467   8.904  0.6228  0.1576  0.3111
20677SOL    HW166878   9.347   6.521   8.898 -0.4802 -1.2994  1.0621
20677SOL    HW266879   9.469   6.479   8.819 -0.3195  1.0919 -0.0664
20678SOL     OW66880   6.420   2.863   8.449 -0.1085  0.2979  0.0026
20678SOL    HW166881   6.459   2.787   8.493 -3.2165 -2.3253 -1.2636
20678SOL    HW266882   6.471   2.874   8.370  1.0581  0.2793  0.7312
20679SOL     OW66883   5.619   4.744   7.919 -0.1094 -0.0804  0.2338
20679SOL    HW166884   5.574   4.824   7.947 -0.8487 -0.1480 -0.7216
20679SOL    HW266885   5.695   4.738   7.977  0.2335  1.5862  0.0058
20680SOL     OW66886   1.899   1.700   4.056 -0.7380  0.2073 -0.1694
20680SOL    HW166887   1.969   1.636   4.069  0.6690  0.9652 -3.1935
20680SOL    HW266888   1.923   1.774   4.112  0.5811  0.2139 -0.7156
20681SOL     OW66889   5.207   2.604   0.946  0.1131 -0.2538  0.0221
20681SOL    HW166890   5.175   2.523   0.987 -1.7751  0.8378  0.8603
20681SOL    HW266891   5.127   2.654   0.927  1.1496  3.4735  3.8186
20682SOL     OW66892   1.651   6.811   7.343 -0.9799 -0.5829 -0.1043
20682SOL    HW166893   1.739   6.831   7.374 -0.8972  2.6127 -1.9672
20682SOL    HW266894   1.662   6.735   7.286  0.7440  0.3145 -1.0174
20683SOL     OW66895   8.612   3.572   1.169  0.4325 -0.2650  0.1660
20683SOL    HW166896   8.590   3.630   1.096  0.9562  0.0511  0.2514
20683SOL    HW266897   8.535   3.574   1.226  0.1923 -0.1711 -0.1627
20684SOL     OW66898   4.136   6.779   9.636  0.4634  0.4415 -0.3120
20684SOL    HW166899   4.200   6.708   9.643  1.0044  0.7957 -1.5203
20684SOL    HW266900   4.074   6.748   9.570 -0.4219  0.2657  0.5729
20685SOL     OW66901   8.433   6.009   9.379 -0.2686  0.2049 -0.1701
20685SOL    HW166902   8.350   5.979   9.417  0.1184 -1.8911 -0.8146
20685SOL    HW266903   8.407   6.068   9.308 -1.1911 -0.0205 -0.0314
20686SOL     OW66904   7.305   9.023   6.222 -0.3256  0.1993 -0.8206
20686SOL    HW166905   7.318   8.940   6.269 -0.6439 -0.5034 -1.9399
20686SOL    HW266906   7.323   9.090   6.288 -0.5032 -0.7509  0.2387
20687SOL     OW66907   3.446   8.280   7.686  0.0711 -0.7921  0.1307
20687SOL    HW166908   3.355   8.249   7.695 -0.3038  0.3078  0.2853
20687SOL    HW266909   3.488   8.214   7.632 -1.2241 -0.5634 -1.2212
20688SOL     OW66910   4.471   9.013   8.422  0.5065  0.2601 -0.1586
20688SOL    HW166911   4.430   8.959   8.355  0.2594 -0.4595  0.5545
20688SOL    HW266912   4.424   9.097   8.417 -0.1851 -0.1230 -0.2185
20689SOL     OW66913   1.658   8.198   8.596  0.3519  0.0722 -0.1151
20689SOL    HW166914   1.628   8.136   8.529 -1.3435 -0.1808  0.8252
20689SOL    HW266915   1.612   8.279   8.575  0.3675  0.1961  0.3238
20690SOL     OW66916   5.977   9.187   4.118 -0.0296  0.4138 -0.3054
20690SOL    HW166917   5.893   9.148   4.142 -0.1080 -0.4647 -1.8796
20690SOL    HW266918   5.978   9.187   4.023  2.1321 -0.4443 -0.3553
20691SOL     OW66919   3.580   8.739   8.273  0.1131 -0.3092 -0.5072
20691SOL    HW166920   3.510   8.683   8.306 -0.3205 -0.0666 -0.9984
20691SOL    HW266921   3.548   8.770   8.188 -0.9358  2.9272  0.9068
20692SOL     OW66922   3.275   1.042   6.012 -0.0567 -0.6474  0.1669
20692SOL    HW166923   3.257   1.023   6.104 -2.8634 -1.4401 -0.4483
20692SOL    HW266924   3.253   1.135   6.003 -1.5857 -1.0103 -0.0503
20693SOL     OW66925   1.638   1.048   0.584  0.3756  0.0432  0.4893
20693SOL    HW166926   1.550   1.051   0.622 -0.8439  0.6975 -2.1515
20693SOL    HW266927   1.645   0.961   0.544  0.5113  0.3380 -0.1518
20694SOL     OW66928   4.077   1.828   3.249  0.4511  0.5760  0.0706
20694SOL    HW166929   4.062   1.735   3.264 -0.2494  0.3316 -1.8722
20694SOL    HW266930   4.152   1.850   3.304  0.7349 -1.1662  0.4242
20695SOL     OW66931   5.206   0.428   3.385 -0.0079 -0.1481  0.7308
20695SOL    HW166932   5.247   0.374   3.318  1.8675  0.7936  1.0409
20695SOL    HW266933   5.146   0.369   3.430 -0.3080 -1.1336 -0.8965
20696SOL     OW66934   7.247   5.636   6.069  0.0189 -0.1839  0.1977
20696SOL    HW166935   7.264   5.643   5.975  0.5521  0.3712  0.3296
20696SOL    HW266936   7.226   5.543   6.083 -0.4863 -0.1834 -0.5360
20697SOL     OW66937   7.601   5.219   8.692 -0.1885  0.1482 -0.1714
20697SOL    HW166938   7.587   5.144   8.634  0.1660 -0.4401  0.5036
20697SOL    HW266939   7.617   5.292   8.632 -0.9784 -0.2087 -0.8479
20698SOL     OW66940   0.733   1.852   9.401  0.2264  0.3846 -0.1203
20698SOL    HW166941   0.727   1.840   9.306  0.1019  1.5985 -0.2771
20698SOL    HW266942   0.686   1.933   9.418  3.3768  2.2574  0.4797
20699SOL     OW66943   1.047   0.108   3.987  0.5370 -0.1321  0.3306
20699SOL    HW166944   1.008   0.021   3.975 -1.2378  0.7576 -0.6279
20699SOL    HW266945   1.008   0.140   4.068  0.5684  0.0895  0.2569
20700SOL     OW66946   3.108   4.138   6.229  0.1851  0.1866  0.8356
20700SOL    HW166947   3.066   4.053   6.241 -0.4012  0.5970  1.7874
20700SOL    HW266948   3.200   4.117   6.211  0.0540 -0.6488  1.0962
20701SOL     OW66949   2.158   5.766   3.856 -0.4025 -0.3887 -0.1640
20701SOL    HW166950   2.191   5.800   3.940  0.7310 -2.1428  0.1533
20701SOL    HW266951   2.066   5.747   3.872 -0.5560  0.6337  0.2338
20702SOL     OW66952   6.835   2.383   4.197  0.7527  0.1250 -0.7014
20702SOL    HW166953   6.914   2.342   4.163  0.2447 -0.7815 -0.8006
20702SOL    HW266954   6.787   2.313   4.241 -0.9522  0.1878 -2.3414
20703SOL     OW66955   7.821   8.248   7.012  0.1518 -0.7116 -0.0089
20703SOL    HW166956   7.840   8.219   6.923 -3.0211 -1.6164 -0.5173
20703SOL    HW266957   7.767   8.327   7.001 -2.5570 -2.3002  0.8811
20704SOL     OW66958   0.281   2.098   1.351  0.5436  0.0592  0.0486
20704SOL    HW166959   0.262   2.158   1.279  2.0717  2.4239  1.4939
20704SOL    HW266960   0.218   2.122   1.419  1.4429  0.3264  0.7994
20705SOL     OW66961   8.714   9.176   4.210 -0.4696  0.0944 -0.6345
20705SOL    HW166962   8.682   9.248   4.265  1.7810 -0.7076  1.9814
20705SOL    HW266963   8.746   9.218   4.130  0.3018  1.9882  0.5975
20706SOL     OW66964   0.564   8.978   8.773 -0.2140  0.0503  0.7156
20706SOL    HW166965   0.517   9.051   8.731 -1.8744 -0.7186  1.1404
20706SOL    HW266966   0.590   8.921   8.701 -0.4704  0.1979  0.5035
20707SOL     OW66967   6.412   8.069   6.813  0.3796  0.3444  0.1560
20707SOL    HW166968   6.500   8.035   6.831 -0.0611 -0.0887  1.6078
20707SOL    HW266969   6.416   8.099   6.722  0.8442 -3.4551 -1.2611
20708SOL     OW66970   3.694   6.858   4.473 -0.2758  0.3391 -0.2890
20708SOL    HW166971   3.711   6.891   4.385 -1.2541  2.1603  0.1576
20708SOL    HW266972   3.757   6.786   4.484 -0.1034  0.1008 -2.4296
20709SOL     OW66973   2.771   3.211   6.028  0.6204 -0.1345 -0.1071
20709SOL    HW166974   2.834   3.179   5.963  0.2569  0.1297 -0.5898
20709SOL    HW266975   2.692   3.159   6.012  0.8381 -0.7554  0.7684
20710SOL     OW66976   2.163   8.887   9.741  0.0097 -0.3742  0.3898
20710SOL    HW166977   2.167   8.889   9.646 -1.3445  0.8560  0.3195
20710SOL    HW266978   2.231   8.825   9.767 -0.3998 -1.6415 -1.4109
20711SOL     OW66979   5.198   8.447   1.750  0.1780 -0.3340 -0.1065
20711SOL    HW166980   5.190   8.354   1.731 -1.6164 -0.1560 -0.3859
20711SOL    HW266981   5.241   8.484   1.672  0.8346 -0.9030 -0.0186
20712SOL     OW66982   6.510   2.289   0.397  0.4853  0.1483  0.3855
20712SOL    HW166983   6.542   2.273   0.308  1.6947 -0.3736  0.8833
20712SOL    HW266984   6.450   2.217   0.414 -1.1693  1.2321 -0.6293
20713SOL     OW66985   1.599   5.497   9.381 -0.3816 -0.0657 -0.4654
20713SOL    HW166986   1.519   5.445   9.380  0.8297 -2.0444 -1.8097
20713SOL    HW266987   1.569   5.588   9.387 -2.7441 -0.6934 -1.7061
20714SOL     OW66988   4.799   2.442   8.228  0.0500 -0.4312 -0.2524
20714SOL    HW166989   4.870   2.482   8.277  0.7015 -2.1321  0.2927
20714SOL    HW266990   4.728   2.433   8.291  0.0524 -0.4945 -0.2583
20715SOL     OW66991   7.452   6.335   6.553 -0.2741  0.0540 -0.3110
20715SOL    HW166992   7.469   6.269   6.486 -2.5823  0.8610 -1.8095
20715SOL    HW266993   7.358   6.328   6.570 -0.1305  1.3254  1.2962
20716SOL     OW66994   0.115   8.461   0.102  0.8000 -0.2662 -0.0499
20716SOL    HW166995   0.121   8.491   0.193  2.1529 -0.8956  0.0935
20716SOL    HW266996   0.205   8.439   0.078  0.1981 -1.8967 -0.9359
20717SOL     OW66997   6.004   8.981   6.921  0.7815  0.0942 -0.0220
20717SOL    HW166998   6.057   9.054   6.888  2.3896 -0.6435  0.8060
20717SOL    HW266999   5.955   8.951   6.844  2.8737 -0.2796 -1.2959
20718SOL     OW67000   9.100   3.953   3.849  0.3682 -0.1694  0.4347
20718SOL    HW167001   9.176   3.990   3.802  0.0701  1.3943  1.1049
20718SOL    HW267002   9.036   3.937   3.780  0.8364 -0.2883  0.0134
20719SOL     OW67003   5.185   3.872   3.742 -0.4172 -0.4601 -0.3356
20719SOL    HW167004   5.151   3.919   3.818 -0.3938 -1.4473  0.3025
20719SOL    HW267005   5.151   3.783   3.752 -0.1916 -0.6735 -1.3446
20720SOL     OW67006   2.468   2.911   2.315 -0.0608  0.5297 -0.0777
20720SOL    HW167007   2.519   2.830   2.306  1.3881  1.2059  1.5448
20720SOL    HW267008   2.452   2.940   2.225  2.3090  0.1909 -0.6557
20721SOL     OW67009   7.473   2.586   5.246  0.4547 -0.1338  0.2390
20721SOL    HW167010   7.561   2.602   5.213  1.5355 -0.6482  2.6373
20721SOL    HW267011   7.485   2.521   5.315 -1.9862 -1.0455 -0.1143
20722SOL     OW67012   9.531   3.320   1.625 -0.3657 -0.4969  0.0339
20722SOL    HW167013   9.514   3.360   1.540  0.4500 -0.9973 -0.3823
20722SOL    HW267014   9.480   3.372   1.687  1.3421  1.7879 -0.3591
20723SOL     OW67015   1.847   8.690   5.313  0.3167  0.3763 -0.1952
20723SOL    HW167016   1.857   8.646   5.398  1.8964  0.9633 -0.0322
20723SOL    HW267017   1.798   8.770   5.334 -0.7316 -0.2707 -0.1338
20724SOL     OW67018   2.876   3.462   7.163 -0.0990 -0.4205 -0.3098
20724SOL    HW167019   2.851   3.453   7.255 -0.1699 -3.1208 -0.5026
20724SOL    HW267020   2.959   3.415   7.156 -0.3236 -0.6538 -1.7005
20725SOL     OW67021   8.612   3.410   3.967  0.1462  0.2601  0.5791
20725SOL    HW167022   8.705   3.390   3.964 -0.0997 -0.9171  0.1051
20725SOL    HW267023   8.571   3.330   4.002 -0.7987  0.2830 -0.4179
20726SOL     OW67024   4.757   8.849   6.012  0.1241  0.3064  0.3551
20726SOL    HW167025   4.839   8.883   5.977  0.4156 -0.0985  0.6271
20726SOL    HW267026   4.699   8.926   6.018 -0.5826  0.1186 -2.6723
20727SOL     OW67027   4.812   3.861   0.308  0.1162 -0.2385  0.8035
20727SOL    HW167028   4.870   3.890   0.237 -0.6534 -0.6563 -0.0085
20727SOL    HW267029   4.840   3.772   0.327 -0.5129 -0.5860  0.1311
20728SOL     OW67030   2.679   3.829   0.822 -0.3610 -0.2751 -0.3128
20728SOL    HW167031   2.744   3.762   0.801 -1.0052 -1.1958  0.5746
20728SOL    HW267032   2.599   3.798   0.781 -0.7200 -0.1650  0.3028
20729SOL     OW67033   3.493   5.102   9.538 -0.2894 -0.0219  0.0730
20729SOL    HW167034   3.409   5.143   9.517 -0.1094  1.6449  2.2914
20729SOL    HW267035   3.478   5.058   9.622  1.0887  0.5212  0.6395
20730SOL     OW67036   6.296   7.095   1.191  0.2392  0.0652  0.3878
20730SOL    HW167037   6.307   7.001   1.206  1.5083  0.2186  0.4976
20730SOL    HW267038   6.204   7.105   1.168 -0.0243 -1.1395  0.8716
20731SOL     OW67039   3.125   5.945   1.434  0.1660 -0.5238 -0.4531
20731SOL    HW167040   3.161   5.961   1.521  2.3310  0.6658 -1.4880
20731SOL    HW267041   3.047   6.002   1.430 -0.6122 -1.4225  1.0445
20732SOL     OW67042   8.688   3.735   6.362 -0.3591 -0.5462  0.3944
20732SOL    HW167043   8.772   3.776   6.341  0.6352 -1.6279  2.0336
20732SOL    HW267044   8.624   3.782   6.308  1.0737  1.3531  0.2535
20733SOL     OW67045   9.555   6.852   6.138  0.5157  0.5780 -0.1042
20733SOL    HW167046   9.609   6.795   6.194  0.0055  0.3312  0.1487
20733SOL    HW267047   9.497   6.896   6.200 -1.2218 -0.9627 -0.5703
20734SOL     OW67048   4.002   0.905   8.552 -0.2783 -0.2425  0.0090
20734SOL    HW167049   4.084   0.869   8.584  0.7581  1.8193 -0.1708
20734SOL    HW267050   4.028   0.975   8.493 -2.1419  1.8321  1.5029
20735SOL     OW67051   1.025   5.003   6.992 -0.3410 -0.1290 -0.1669
20735SOL    HW167052   0.935   4.974   7.005 -0.6131  0.6664 -0.2446
20735SOL    HW267053   1.060   4.942   6.927 -1.0880  0.0702 -0.7719
20736SOL     OW67054   5.036   9.507   6.538  0.2272 -0.6166  0.2526
20736SOL    HW167055   5.041   9.482   6.630  0.4191  0.1802  0.4667
20736SOL    HW267056   5.127   9.509   6.509  0.3130  0.9484  0.5586
20737SOL     OW67057   5.130   8.922   2.632  0.0640 -0.3109  0.2970
20737SOL    HW167058   5.212   8.888   2.595  1.5383  2.4331  0.7318
20737SOL    HW267059   5.078   8.948   2.556  2.2888  3.5416 -0.2022
20738SOL     OW67060   4.215   6.201   4.424 -0.0153  0.3203  0.0110
20738SOL    HW167061   4.250   6.153   4.348  2.3996 -0.0862  1.2669
20738SOL    HW267062   4.293   6.220   4.477 -1.4108  2.1912  1.5008
20739SOL     OW67063   3.047   5.124   2.539 -0.3270 -0.1918 -0.2744
20739SOL    HW167064   3.100   5.147   2.463 -0.6027  1.1486 -0.0795
20739SOL    HW267065   2.992   5.051   2.508 -0.3702  0.2695 -1.3344
20740SOL     OW67066   7.452   8.130   8.973 -0.3574 -0.4827 -0.1666
20740SOL    HW167067   7.381   8.074   8.942 -0.7819  1.0602 -2.1930
20740SOL    HW267068   7.498   8.156   8.894  0.9456  0.5579  0.8900
20741SOL     OW67069   6.037   7.025   1.718  0.5704  0.1432  0.1956
20741SOL    HW167070   6.104   7.080   1.679 -0.7200  0.4532 -1.7084
20741SOL    HW267071   6.063   6.936   1.696 -1.1169  0.3501 -3.3427
20742SOL     OW67072   4.748   0.334   2.534 -0.0157  0.1611  0.1393
20742SOL    HW167073   4.773   0.300   2.620  3.6694 -0.8736 -1.1670
20742SOL    HW267074   4.721   0.257   2.485 -2.9118  0.8472  0.4574
20743SOL     OW67075   0.203   3.509   2.074 -0.7542 -0.0318  0.2948
20743SOL    HW167076   0.247   3.581   2.118  2.1774 -1.6732  0.2967
20743SOL    HW267077   0.181   3.544   1.987  0.5383  0.8922  0.3189
20744SOL     OW67078   4.362   0.183   2.352  0.0287 -0.1164 -0.5078
20744SOL    HW167079   4.285   0.128   2.340  0.5284 -1.1984  0.9005
20744SOL    HW267080   4.329   0.262   2.396 -0.3344 -0.4211 -0.2279
20745SOL     OW67081   7.366   0.951   5.504 -0.1212 -0.4016 -0.1360
20745SOL    HW167082   7.322   1.019   5.555 -4.0524 -0.4142 -3.0542
20745SOL    HW267083   7.329   0.869   5.537  1.0218 -0.8206  0.1645
20746SOL     OW67084   8.189   5.967   3.733  0.0044 -0.2139 -0.0822
20746SOL    HW167085   8.127   5.952   3.805 -0.1989  0.5525 -0.0897
20746SOL    HW267086   8.134   5.985   3.657  0.1958 -1.9395 -0.6661
20747SOL     OW67087   3.143   3.460   8.676 -0.6351  0.0742  0.7466
20747SOL    HW167088   3.165   3.425   8.589 -0.9703 -0.5749  0.9126
20747SOL    HW267089   3.081   3.530   8.659  0.0509  0.6147  0.4023
20748SOL     OW67090   0.343   9.357   4.528 -0.2501  0.1955 -0.1534
20748SOL    HW167091   0.388   9.280   4.495  1.4595  1.5445 -1.1650
20748SOL    HW267092   0.385   9.430   4.482 -1.9007  1.7196  0.6512
20749SOL     OW67093   5.017   5.772   5.895  0.5783 -0.6429  0.1183
20749SOL    HW167094   4.981   5.812   5.816  1.5649 -0.3509 -0.2009
20749SOL    HW267095   4.952   5.706   5.921 -0.4097  0.2060 -0.1357
20750SOL     OW67096   6.370   5.577   6.127 -0.0265 -0.2769  0.8186
20750SOL    HW167097   6.455   5.620   6.117 -1.4728  2.3879 -1.3257
20750SOL    HW267098   6.367   5.513   6.056  0.1164 -0.2407  0.7793
20751SOL     OW67099   6.380   0.322   3.976  0.0068  0.4736  0.1007
20751SOL    HW167100   6.466   0.305   4.012 -0.2056  0.6149  0.6763
20751SOL    HW267101   6.379   0.416   3.957 -0.3443  0.6459  0.9585
20752SOL     OW67102   2.066   0.413   7.852  0.3204  0.4736 -0.3452
20752SOL    HW167103   2.088   0.320   7.864 -0.3029  0.4447  0.7339
20752SOL    HW267104   2.080   0.429   7.759 -1.9034 -1.3587 -1.1053
20753SOL     OW67105   7.593   7.834   6.146  0.1839  0.6954 -0.0498
20753SOL    HW167106   7.538   7.876   6.212 -1.2713  0.0532 -0.8033
20753SOL    HW267107   7.674   7.813   6.192 -0.3438  1.3024  1.2054
20754SOL     OW67108   8.945   4.161   0.015  0.5975  0.9024 -0.4853
20754SOL    HW167109   8.924   4.151  -0.078  0.8407  0.4644 -0.4925
20754SOL    HW267110   8.904   4.085   0.057 -0.9050  1.9274  0.0015
20755SOL     OW67111   2.360   6.091   6.404 -0.6497 -0.2934 -0.6716
20755SOL    HW167112   2.379   5.998   6.406 -2.3989 -0.6876 -0.6654
20755SOL    HW267113   2.382   6.118   6.314  1.5009 -0.2879 -0.1923
20756SOL     OW67114   5.184   2.318   2.174 -0.1294 -0.4822  0.0169
20756SOL    HW167115   5.188   2.291   2.082 -1.8668  1.1009 -0.6025
20756SOL    HW267116   5.249   2.388   2.181  0.9241 -1.4736  0.3580
20757SOL     OW67117   6.913   5.669   1.334  0.6634 -0.1314  0.1184
20757SOL    HW167118   6.854   5.629   1.271 -0.8778 -2.1825  2.6741
20757SOL    HW267119   6.883   5.760   1.340 -0.3468 -0.3936 -0.7165
20758SOL     OW67120   4.302   8.814   8.335 -0.1803  0.3069  0.0493
20758SOL    HW167121   4.310   8.719   8.348  2.2808  0.7295  2.5966
20758SOL    HW267122   4.208   8.831   8.340 -0.6083 -1.8918  0.6523
20759SOL     OW67123   0.566   7.936   5.005 -0.4510  0.8361  0.0544
20759SOL    HW167124   0.475   7.912   5.023 -0.2039 -0.3408 -0.1455
20759SOL    HW267125   0.595   7.871   4.940  0.4689  1.3196 -0.0339
20760SOL     OW67126   1.404   1.694   1.849  0.6661  0.2869 -0.2933
20760SOL    HW167127   1.467   1.659   1.912  0.2282 -0.5139 -0.2850
20760SOL    HW267128   1.417   1.789   1.852  1.0178  0.2226  0.6175
20761SOL     OW67129   1.449   1.956   8.936  0.0798  0.7671 -0.1821
20761SOL    HW167130   1.429   2.037   8.983 -0.4189  0.1736  0.6658
20761SOL    HW267131   1.419   1.886   8.995 -1.1741  0.0036 -1.6656
20762SOL     OW67132   7.482   5.917   0.196  1.0255  0.0291  0.2455
20762SOL    HW167133   7.501   6.011   0.196 -1.8551  0.7168  0.6583
20762SOL    HW267134   7.413   5.906   0.262 -1.7982 -1.5826 -2.6440
20763SOL     OW67135   9.108   7.012   1.306 -0.0268 -0.0217 -0.4138
20763SOL    HW167136   9.161   7.063   1.368 -0.5076  1.3895 -1.1327
20763SOL    HW267137   9.164   7.003   1.229 -0.7827  1.4622 -1.1722
20764SOL     OW67138   3.734   3.480   4.970 -0.3141  0.4435 -0.3816
20764SOL    HW167139   3.770   3.394   4.993 -1.4177 -0.3148 -1.3827
20764SOL    HW267140   3.694   3.511   5.052 -1.0769 -0.6109 -0.3372
20765SOL     OW67141   5.374   4.470   0.634 -0.6414 -0.0716  0.2192
20765SOL    HW167142   5.357   4.396   0.693  0.5283  0.4857  1.3079
20765SOL    HW267143   5.362   4.547   0.690 -0.9956  0.5351 -0.6778
20766SOL     OW67144   4.079   1.182   7.426 -0.4707 -0.2762 -0.4679
20766SOL    HW167145   4.164   1.165   7.467 -1.1017  1.2127  1.6430
20766SOL    HW267146   4.081   1.276   7.405 -1.0226 -0.5569 -1.8457
20767SOL     OW67147   7.405   3.798   9.043  0.4784 -0.0024  0.1861
20767SOL    HW167148   7.486   3.824   8.999  0.0469  0.2967 -0.4504
20767SOL    HW267149   7.423   3.809   9.136  0.4698  2.1901 -0.0205
20768SOL     OW67150   4.891   0.492   9.055 -0.0103  0.0994 -0.5257
20768SOL    HW167151   4.877   0.584   9.078 -0.7672  0.4149 -2.1127
20768SOL    HW267152   4.943   0.457   9.128  0.2314  1.7494  0.1498
20769SOL     OW67153   8.843   6.345   0.215 -0.4467  0.1908  0.7959
20769SOL    HW167154   8.919   6.349   0.274  0.1354 -0.5397  0.1088
20769SOL    HW267155   8.820   6.437   0.200  0.5278  0.4312  0.7277
20770SOL     OW67156   6.057   5.504   0.409 -0.2416 -0.0366  0.2260
20770SOL    HW167157   5.982   5.470   0.458 -0.9226 -0.1629 -0.8768
20770SOL    HW267158   6.088   5.430   0.359  0.4446  0.0957  0.4510
20771SOL     OW67159   2.292   4.379   5.464  0.8139  0.5973 -0.0031
20771SOL    HW167160   2.373   4.351   5.422  1.4251  2.5444 -0.2406
20771SOL    HW267161   2.260   4.451   5.410 -0.4749  0.6022  0.7188
20772SOL     OW67162   6.344   1.252   2.488 -0.0907  0.2474  0.5573
20772SOL    HW167163   6.439   1.261   2.479 -0.3779  1.8911 -1.8042
20772SOL    HW267164   6.315   1.338   2.519 -0.9662  0.5996 -1.0781
20773SOL     OW67165   8.974   2.530   7.785 -0.2895 -0.3535 -0.5558
20773SOL    HW167166   8.978   2.626   7.791  0.9867 -0.4359  0.3543
20773SOL    HW267167   9.051   2.500   7.833 -0.3379 -1.8313 -1.3548
20774SOL     OW67168   2.872   1.076   1.671 -0.7052  0.1676 -0.0642
20774SOL    HW167169   2.946   1.018   1.658 -1.3819 -0.6191 -0.4616
20774SOL    HW267170   2.799   1.035   1.624 -1.4557  0.7988  0.5047
20775SOL     OW67171   5.377   4.099   9.059 -0.3789 -0.5505  0.5217
20775SOL    HW167172   5.446   4.106   8.993 -0.4381 -1.4647  0.3459
20775SOL    HW267173   5.302   4.066   9.011 -0.9562  0.4489  0.7127
20776SOL     OW67174   7.725   0.979   8.119  0.1066 -0.2264  0.4023
20776SOL    HW167175   7.658   1.040   8.086 -1.8411 -1.9799  0.8598
20776SOL    HW267176   7.790   1.036   8.161 -1.0463  1.5958 -0.1257
20777SOL     OW67177   2.117   8.208   4.431  0.2428 -0.1619 -0.8431
20777SOL    HW167178   2.036   8.203   4.482  0.9410  1.5129  0.5209
20777SOL    HW267179   2.088   8.226   4.342 -0.8770  2.0993 -0.0873
20778SOL     OW67180   0.787   6.337   8.218  0.0721 -0.1744  0.4207
20778SOL    HW167181   0.708   6.332   8.165  0.6348 -0.9728 -0.3719
20778SOL    HW267182   0.775   6.270   8.286 -0.1820  0.1128  0.6627
20779SOL     OW67183   8.787   7.478   3.119 -0.1282 -0.5119  0.4403
20779SOL    HW167184   8.706   7.520   3.146  0.4578  0.2259  1.1157
20779SOL    HW267185   8.791   7.398   3.173 -0.5998 -0.7559  0.1125
20780SOL     OW67186   0.888   1.478   1.941 -0.2044 -0.3503 -0.1872
20780SOL    HW167187   0.802   1.519   1.936 -0.5509 -0.7377  1.6959
20780SOL    HW267188   0.883   1.404   1.880 -0.8574  0.1744 -0.7923
20781SOL     OW67189   4.176   3.351   8.590  0.5082 -0.2834  0.0948
20781SOL    HW167190   4.250   3.314   8.540 -0.6594 -1.3137 -0.9638
20781SOL    HW267191   4.198   3.443   8.600  2.8418 -0.8945  1.5111
20782SOL     OW67192   0.098   1.937   1.760 -0.6042 -0.5117 -0.3188
20782SOL    HW167193   0.005   1.919   1.778 -0.4678  0.4800  1.7624
20782SOL    HW267194   0.097   1.988   1.679 -1.9122 -0.4037 -0.2625
20783SOL     OW67195   7.142   3.662   7.790  0.0500 -0.2964 -1.1696
20783SOL    HW167196   7.064   3.641   7.841 -0.7085  3.4626 -0.4749
20783SOL    HW267197   7.214   3.618   7.836 -1.3473 -1.8606 -0.4104
20784SOL     OW67198   6.998   0.207   6.132 -0.4723 -0.2609 -0.0530
20784SOL    HW167199   6.986   0.125   6.181  0.4918  0.7842  2.0651
20784SOL    HW267200   7.047   0.263   6.192  0.9709  1.0557 -2.3325
20785SOL     OW67201   5.790   7.249   2.054  0.0318  0.0027 -0.0807
20785SOL    HW167202   5.822   7.252   1.964 -0.7790 -0.8425 -0.4185
20785SOL    HW267203   5.730   7.174   2.055 -0.3573  0.3163  1.0356
20786SOL     OW67204   7.702   6.255   7.759  0.0030  0.2839  0.1667
20786SOL    HW167205   7.737   6.177   7.802 -0.4455 -0.7026 -1.2021
20786SOL    HW267206   7.618   6.270   7.803 -0.0791 -0.2357  0.1970
20787SOL     OW67207   2.607   0.968   2.707 -0.1268 -0.3466  0.0002
20787SOL    HW167208   2.644   0.952   2.620 -0.9917  1.7063 -0.8303
20787SOL    HW267209   2.586   0.881   2.741  3.5012 -1.4909 -0.2802
20788SOL     OW67210   3.259   9.419   5.545 -0.0188  0.0170  0.0261
20788SOL    HW167211   3.240   9.434   5.452 -0.0274  1.7239  0.2673
20788SOL    HW267212   3.180   9.377   5.579  0.8034 -2.7110 -1.1438
20789SOL     OW67213   3.355   7.623   3.451  0.0337  0.3676  0.0873
20789SOL    HW167214   3.296   7.555   3.485 -0.8834  0.5869 -1.0186
20789SOL    HW267215   3.310   7.705   3.467  0.1414  0.5572 -0.5439
20790SOL     OW67216   9.563   6.751   5.203 -0.1937  0.0966 -0.5764
20790SOL    HW167217   9.491   6.748   5.140 -0.3334  3.1329 -0.7531
20790SOL    HW267218   9.622   6.818   5.167  0.2235  1.2011  1.9470
20791SOL     OW67219   5.849   7.609   7.227 -0.2438  0.5665  0.2287
20791SOL    HW167220   5.935   7.598   7.187 -0.1667 -0.8436  0.7044
20791SOL    HW267221   5.868   7.626   7.320 -0.4675  1.2099  0.1606
20792SOL     OW67222   6.264   3.434   7.015 -0.4910 -0.1952  0.2374
20792SOL    HW167223   6.324   3.410   6.944 -1.9956  0.8209 -1.4785
20792SOL    HW267224   6.200   3.492   6.973 -0.0120  2.5862  2.9926
20793SOL     OW67225   3.537   9.658   0.498 -0.0564 -0.2746 -0.2752
20793SOL    HW167226   3.597   9.722   0.537  1.2394 -0.6706 -1.5575
20793SOL    HW267227   3.457   9.708   0.483  0.3754  0.6162  0.2527
20794SOL     OW67228   3.285   8.364   3.659 -0.2111 -1.0034 -0.3175
20794SOL    HW167229   3.305   8.378   3.752 -3.6399  1.7644  0.2310
20794SOL    HW267230   3.246   8.277   3.655  1.0082 -1.6162  0.5830
20795SOL     OW67231   1.859   8.046   5.651 -0.2223  0.0216  0.5591
20795SOL    HW167232   1.846   7.953   5.633  0.1810 -0.0632  0.6996
20795SOL    HW267233   1.791   8.068   5.715 -1.0815  0.1110 -0.3425
20796SOL     OW67234   5.198   8.734   6.524 -0.0209 -0.3493  0.4632
20796SOL    HW167235   5.277   8.734   6.578  1.0294  0.7507 -0.9945
20796SOL    HW267236   5.228   8.707   6.437 -1.3322 -0.3548 -0.0146
20797SOL     OW67237   1.024   7.953   7.714 -0.8370 -0.1072 -0.1568
20797SOL    HW167238   0.985   7.935   7.800  0.0600 -0.9789  0.0906
20797SOL    HW267239   0.952   7.989   7.662 -1.0001  2.0569  1.4410
20798SOL     OW67240   9.194   1.936   7.120 -0.2161  0.3594  0.0794
20798SOL    HW167241   9.213   2.025   7.091 -0.6768  1.7663  3.5898
20798SOL    HW267242   9.280   1.895   7.130  0.0542  0.8184 -0.3212
20799SOL     OW67243   5.433   7.656   1.759  0.1310  0.1452 -0.3121
20799SOL    HW167244   5.522   7.622   1.768  0.2757  0.0533 -1.8010
20799SOL    HW267245   5.380   7.597   1.813  0.9569  0.2016  0.5922
20800SOL     OW67246   2.720   9.095   3.636  0.8738  0.1901  0.6680
20800SOL    HW167247   2.658   9.111   3.706 -0.5115 -0.2715 -0.4176
20800SOL    HW267248   2.737   9.181   3.598 -0.1189  0.1708  0.1548
20801SOL     OW67249   5.103   8.131   0.378 -0.4211  0.7942  0.3339
20801SOL    HW167250   5.192   8.099   0.387 -0.5780  0.8097  2.8279
20801SOL    HW267251   5.085   8.175   0.461 -3.2749 -0.6440  0.6368
20802SOL     OW67252   9.660   4.469   1.376 -0.1772 -0.4079 -0.3383
20802SOL    HW167253   9.607   4.490   1.300 -0.2882 -1.3161 -0.5224
20802SOL    HW267254   9.662   4.374   1.378 -0.2772 -0.3944  0.8691
20803SOL     OW67255   5.698   4.499   7.744 -0.4777  0.1396 -0.2546
20803SOL    HW167256   5.683   4.432   7.677 -1.8764  1.0541 -0.9120
20803SOL    HW267257   5.793   4.505   7.751 -0.2601  0.2955 -2.4832
20804SOL     OW67258   1.585   8.785   0.154 -0.5115 -0.1051  0.2092
20804SOL    HW167259   1.656   8.833   0.196  1.2090 -0.8403 -1.7124
20804SOL    HW267260   1.607   8.693   0.167 -0.2033 -0.3580 -1.7277
20805SOL     OW67261   4.757   0.122   4.190  0.8662 -0.6057 -0.4331
20805SOL    HW167262   4.835   0.073   4.166  1.2640  1.2156 -3.2608
20805SOL    HW267263   4.789   0.189   4.251  2.0456  1.4136 -3.0972
20806SOL     OW67264   2.542   4.332   0.024 -0.2063 -0.7028  0.0698
20806SOL    HW167265   2.606   4.328   0.095 -0.4074 -1.1224  0.2246
20806SOL    HW267266   2.481   4.400   0.051  1.1763  1.0344 -0.9121
20807SOL     OW67267   0.374   9.521   7.044 -0.1630  0.0397 -0.3065
20807SOL    HW167268   0.368   9.616   7.031  0.5852 -0.1446 -2.3762
20807SOL    HW267269   0.458   9.508   7.088 -0.1413  0.3328 -0.2588
20808SOL     OW67270   3.029   9.400   7.892 -0.2449  0.1638  0.0146
20808SOL    HW167271   3.036   9.310   7.924 -0.9668  0.0099 -0.2328
20808SOL    HW267272   2.941   9.405   7.854  0.0514  0.7639 -0.6234
20809SOL     OW67273   5.850   1.455   0.439 -0.3760  0.2018  0.4584
20809SOL    HW167274   5.814   1.390   0.499 -2.5735  0.4077 -0.5357
20809SOL    HW267275   5.889   1.404   0.369 -0.0235 -0.0385  0.8259
20810SOL     OW67276   8.850   0.740   0.185 -0.5499 -0.5067  0.2130
20810SOL    HW167277   8.854   0.823   0.138 -1.9088  1.2512  2.9121
20810SOL    HW267278   8.941   0.719   0.207 -0.2669  0.8010  0.3275
20811SOL     OW67279   6.511   2.111   8.348  0.0488 -0.3818 -0.6921
20811SOL    HW167280   6.470   2.118   8.434  2.0949  0.0500  0.3157
20811SOL    HW267281   6.545   2.022   8.346 -0.3064 -0.5092 -1.2257
20812SOL     OW67282   8.023   0.230   5.240 -0.0939  0.2227  0.2280
20812SOL    HW167283   8.114   0.199   5.249 -0.9919 -2.4115  1.2391
20812SOL    HW267284   8.007   0.230   5.146  0.8834  0.4948  0.0495
20813SOL     OW67285   6.510   4.346   6.915  0.4010  0.7051 -0.6742
20813SOL    HW167286   6.584   4.304   6.959  1.0658  1.8801 -0.6081
20813SOL    HW267287   6.440   4.281   6.917  0.6777  0.4052  1.3465
20814SOL     OW67288   6.668   8.790   2.591 -0.1127 -0.4052 -0.4620
20814SOL    HW167289   6.592   8.837   2.559  0.4406  0.4895 -0.4887
20814SOL    HW267290   6.692   8.835   2.672  1.0404  0.0430 -1.0181
20815SOL     OW67291   5.339   7.731   8.698 -0.0301 -0.2294  0.3077
20815SOL    HW167292   5.376   7.669   8.636  0.9994  0.5820  0.0870
20815SOL    HW267293   5.402   7.732   8.771  0.0804  0.7065  0.2078
20816SOL     OW67294   6.348   7.455   8.041 -0.1798  0.3835  0.2469
20816SOL    HW167295   6.366   7.548   8.056  0.2673  0.2064  0.8573
20816SOL    HW267296   6.259   7.453   8.006  0.3693  1.1592 -1.2925
20817SOL     OW67297   4.189   1.304   4.098 -0.2838 -0.3154 -0.1848
20817SOL    HW167298   4.154   1.223   4.063 -3.3451  1.6712 -2.2396
20817SOL    HW267299   4.155   1.310   4.187  0.5934 -1.5863  0.2486
20818SOL     OW67300   0.493   2.517   3.606  0.1189  0.1759 -0.2214
20818SOL    HW167301   0.510   2.605   3.573 -1.2398  0.1793 -1.0071
20818SOL    HW267302   0.401   2.519   3.633 -0.0578 -1.1239 -0.6778
20819SOL     OW67303   0.106   0.229   4.867  0.4152  0.1974  0.1052
20819SOL    HW167304   0.090   0.236   4.772  0.6214 -0.1343  0.0439
20819SOL    HW267305   0.083   0.139   4.889 -1.0384  0.6806  0.6527
20820SOL     OW67306   3.411   3.418   3.671  0.2159 -0.0571  0.1980
20820SOL    HW167307   3.420   3.350   3.604  0.9719 -0.6625  0.8958
20820SOL    HW267308   3.319   3.445   3.665  0.0683 -0.6842 -0.5275
20821SOL     OW67309   2.760   0.318   4.916 -0.3205  0.0621  0.2075
20821SOL    HW167310   2.724   0.402   4.945 -0.6689  0.7143 -1.9023
20821SOL    HW267311   2.855   0.327   4.928 -0.5124 -0.1012  2.0102
20822SOL     OW67312   0.827   1.879   1.433 -0.2488  0.3845  0.7307
20822SOL    HW167313   0.833   1.957   1.488 -2.3066  1.0723  0.0860
20822SOL    HW267314   0.822   1.914   1.344  1.6074 -0.6431  0.1745
20823SOL     OW67315   3.118   8.970   4.391 -0.0185 -0.2179 -0.4745
20823SOL    HW167316   3.173   9.023   4.449  0.6017  1.0644 -2.1426
20823SOL    HW267317   3.040   9.024   4.378 -0.6683 -1.0090  0.0373
20824SOL     OW67318   6.875   0.793   6.521 -0.2207  0.3800 -0.2437
20824SOL    HW167319   6.900   0.738   6.595  0.9010  0.9334 -0.1954
20824SOL    HW267320   6.909   0.880   6.543  1.1009  0.3231 -1.8873
20825SOL     OW67321   2.620   2.791   7.938  0.2571  0.0761 -0.1041
20825SOL    HW167322   2.612   2.739   8.018  1.6991 -1.5321 -0.9585
20825SOL    HW267323   2.587   2.735   7.869 -0.2375  1.1605 -0.7756
20826SOL     OW67324   4.374   2.332   5.521 -0.7479 -0.0598 -0.4501
20826SOL    HW167325   4.412   2.410   5.562 -0.2941 -0.8809  0.7439
20826SOL    HW267326   4.297   2.313   5.574 -0.0991 -1.2000  0.1103
20827SOL     OW67327   9.467   4.028   5.941 -0.1355 -0.8387  0.1553
20827SOL    HW167328   9.377   4.013   5.914  0.3758 -0.9086 -1.6224
20827SOL    HW267329   9.487   3.954   5.998 -2.1743  0.8288  3.3568
20828SOL     OW67330   3.879   1.823   2.895  0.1364  0.2078  0.0917
20828SOL    HW167331   3.856   1.732   2.879 -0.3814  0.3540 -0.0271
20828SOL    HW267332   3.974   1.823   2.904  0.0243 -0.5768  1.6490
20829SOL     OW67333   5.734   4.780   7.691 -0.2202  0.1521 -0.1951
20829SOL    HW167334   5.678   4.849   7.655  1.4760  1.8165  0.2327
20829SOL    HW267335   5.702   4.769   7.781  1.2230  2.4296  0.6757
20830SOL     OW67336   5.202   4.140   6.183 -0.2609  0.1278 -0.3337
20830SOL    HW167337   5.177   4.085   6.109 -0.4272 -0.1418 -0.0798
20830SOL    HW267338   5.241   4.080   6.246  0.2606  0.4186 -0.3710
20831SOL     OW67339   9.495   3.444   4.585 -0.1263 -0.2469 -0.2650
20831SOL    HW167340   9.428   3.378   4.567 -1.2759  0.6950  0.4490
20831SOL    HW267341   9.456   3.526   4.556 -0.0842  0.6033  1.8971
20832SOL     OW67342   2.332   9.746   4.328  0.1711 -0.1067  0.1816
20832SOL    HW167343   2.342   9.739   4.233 -0.5987 -0.8020  0.1438
20832SOL    HW267344   2.413   9.789   4.357  0.1727  0.6300 -0.8414
20833SOL     OW67345   7.211   6.342   3.123 -0.0081  0.3445 -0.6495
20833SOL    HW167346   7.273   6.409   3.152  0.9092  0.5872 -2.9588
20833SOL    HW267347   7.136   6.392   3.090  0.3687  0.2539 -1.6937
20834SOL     OW67348   4.142   3.878   8.174  0.5806 -0.3330  0.7203
20834SOL    HW167349   4.208   3.947   8.171  0.0550  0.2899  2.2577
20834SOL    HW267350   4.060   3.924   8.193 -0.6397 -0.9146 -2.5565
20835SOL     OW67351   8.424   7.284   7.793 -0.2400  0.5433  0.1469
20835SOL    HW167352   8.480   7.225   7.743 -1.3911 -0.5318  0.0886
20835SOL    HW267353   8.335   7.260   7.769 -0.8288  0.2844  2.3665
20836SOL     OW67354   7.334   9.204   1.765  0.5758 -0.4093 -0.4512
20836SOL    HW167355   7.319   9.116   1.728 -0.9185  0.4191 -1.9565
20836SOL    HW267356   7.247   9.235   1.789  1.1497  0.4735  0.6152
20837SOL     OW67357   8.053   9.507   4.047 -0.0593  0.2107 -1.0432
20837SOL    HW167358   8.075   9.591   4.008  0.5847  0.2588 -0.5886
20837SOL    HW267359   7.961   9.516   4.073  0.1714  0.9779 -0.4694
20838SOL     OW67360   0.303   3.209   6.988 -0.3802  0.0845 -0.3469
20838SOL    HW167361   0.265   3.181   7.071 -0.8396 -1.7456 -1.1105
20838SOL    HW267362   0.256   3.289   6.965 -0.5254  0.3821  0.9439
20839SOL     OW67363   5.706   6.505   0.678  0.0046  0.1469 -0.0972
20839SOL    HW167364   5.647   6.523   0.605 -1.1521 -0.9803  0.5180
20839SOL    HW267365   5.779   6.457   0.639  0.2418  1.0216 -0.7669
20840SOL     OW67366   7.109   9.630   8.632 -0.0317  0.1970 -0.1959
20840SOL    HW167367   7.152   9.714   8.649  1.2668 -0.1872 -1.3683
20840SOL    HW267368   7.026   9.635   8.679  1.3382  0.9116  2.3208
20841SOL     OW67369   8.434   1.661   6.934 -0.0728 -0.0330  0.0825
20841SOL    HW167370   8.488   1.648   6.856 -0.1069 -1.2085  0.2310
20841SOL    HW267371   8.493   1.700   6.998 -0.1835  1.4618 -0.6800
20842SOL     OW67372   7.221   6.792   2.951 -0.0013 -0.9389 -0.0364
20842SOL    HW167373   7.152   6.801   3.018 -1.7680  0.9684 -1.9377
20842SOL    HW267374   7.183   6.734   2.885  0.5415 -0.5349 -0.7164
20843SOL     OW67375   9.246   7.072   6.802  0.3499  0.3941  0.7988
20843SOL    HW167376   9.257   7.105   6.891  0.1250  0.0443  0.9565
20843SOL    HW267377   9.158   7.034   6.800  0.8156 -0.7218  0.7933
20844SOL     OW67378   5.596   2.579   3.504  0.0673 -0.5252 -0.4443
20844SOL    HW167379   5.612   2.489   3.478  0.2613 -0.3850 -0.8298
20844SOL    HW267380   5.673   2.627   3.472  0.5838 -0.4267  0.8990
20845SOL     OW67381   2.129   2.417   4.137 -0.3286  0.9707  0.3627
20845SOL    HW167382   2.070   2.427   4.211 -0.4439  1.7250  0.1771
20845SOL    HW267383   2.183   2.496   4.138  0.5589  0.3794  0.4187
20846SOL     OW67384   8.830   4.514   4.481 -0.5818 -0.0845  0.2302
20846SOL    HW167385   8.737   4.489   4.483 -0.4334 -1.0200 -2.0818
20846SOL    HW267386   8.832   4.600   4.524 -2.6165  0.2613 -0.2567
20847SOL     OW67387   4.319   3.780   1.548 -0.2254  0.1956 -0.4269
20847SOL    HW167388   4.224   3.771   1.547 -0.3874  1.5182  0.5267
20847SOL    HW267389   4.344   3.753   1.637  0.1487  1.0498 -0.2656
20848SOL     OW67390   1.463   7.579   7.118 -0.5517  0.0789  0.3957
20848SOL    HW167391   1.442   7.642   7.049  1.6996  0.8581  0.3194
20848SOL    HW267392   1.447   7.627   7.199 -1.1760 -0.0999  0.3778
20849SOL     OW67393   3.191   7.599   5.462  0.3158  0.1198  0.2913
20849SOL    HW167394   3.229   7.604   5.374 -0.7841  0.4438 -0.1759
20849SOL    HW267395   3.258   7.636   5.519  1.4294 -0.9301 -0.2747
20850SOL     OW67396   5.276   7.493   1.564 -0.2399  0.4525 -0.2816
20850SOL    HW167397   5.313   7.525   1.646 -0.6221  1.5476 -0.5134
20850SOL    HW267398   5.208   7.431   1.591  0.0347  0.3649  0.2124
20851SOL     OW67399   2.229   9.140   8.324 -0.1642 -0.0876  0.2753
20851SOL    HW167400   2.155   9.154   8.266 -0.1521 -0.9911  0.0153
20851SOL    HW267401   2.260   9.052   8.302  2.4187  1.1005 -1.2327
20852SOL     OW67402   5.449   4.191   2.140 -0.5084  0.5735 -0.3647
20852SOL    HW167403   5.397   4.211   2.218  0.3718 -0.0120  0.3848
20852SOL    HW267404   5.411   4.111   2.105 -1.5488  1.3750 -1.1413
20853SOL     OW67405   0.059   7.017   6.040 -0.7938  0.4618  0.4187
20853SOL    HW167406  -0.016   7.070   6.064 -1.1794  0.0424  0.1642
20853SOL    HW267407   0.085   6.973   6.121  0.4989  2.2044  0.9927
20854SOL     OW67408   0.089   6.308   9.256 -0.0972 -0.2632 -0.9235
20854SOL    HW167409   0.077   6.214   9.258  0.7506 -0.4810 -3.0276
20854SOL    HW267410   0.170   6.321   9.206  2.6207  1.4174  3.3372
20855SOL     OW67411   7.061   7.271   9.598  0.5486 -0.1332  0.3178
20855SOL    HW167412   7.117   7.285   9.522 -0.5905  0.9320 -0.3539
20855SOL    HW267413   6.972   7.271   9.563 -0.1467  2.2840  1.8517
20856SOL     OW67414   0.106   6.662   3.979 -0.1505  0.4215 -0.1002
20856SOL    HW167415   0.113   6.711   4.061  1.6415 -0.5543  0.3871
20856SOL    HW267416   0.188   6.679   3.933 -0.7944  0.3088 -1.3384
20857SOL     OW67417   5.180   4.986   1.813 -0.0066 -0.3912  0.0910
20857SOL    HW167418   5.171   4.947   1.727  0.7791 -2.5165  0.9001
20857SOL    HW267419   5.274   4.989   1.829 -0.1454 -0.2491  0.9579
20858SOL     OW67420   1.333   8.150   8.770 -0.2119  0.1392 -0.4350
20858SOL    HW167421   1.317   8.178   8.679 -2.2703  0.7455  0.0582
20858SOL    HW267422   1.385   8.222   8.807 -0.3383  0.4318 -0.8106
20859SOL     OW67423   1.059   6.679   6.758 -0.5383 -0.2106  0.4285
20859SOL    HW167424   1.114   6.747   6.718 -1.2297  1.5316  2.2971
20859SOL    HW267425   1.015   6.638   6.683  0.7962  0.5765 -0.8488
20860SOL     OW67426   8.904   5.637   5.494 -0.2229  0.3082 -0.0097
20860SOL    HW167427   8.857   5.718   5.514 -2.1284 -0.8706  0.5126
20860SOL    HW267428   8.851   5.568   5.533  2.2390 -1.1022  1.0919
20861SOL     OW67429   5.140   7.026   8.790 -0.1196 -0.0874 -0.2725
20861SOL    HW167430   5.107   7.066   8.870 -0.3211  0.8752 -0.8109
20861SOL    HW267431   5.154   6.934   8.812 -1.9751 -0.2521  0.3214
20862SOL     OW67432   4.215   2.666   6.255  0.1902  0.5780 -0.0148
20862SOL    HW167433   4.276   2.740   6.252 -0.0487  0.8309  1.1378
20862SOL    HW267434   4.128   2.706   6.249  0.0403  0.4470  1.1050
20863SOL     OW67435   3.181   2.588   4.992  0.4517 -0.4539 -0.4513
20863SOL    HW167436   3.270   2.568   4.965  0.8992  1.5199 -0.5662
20863SOL    HW267437   3.150   2.507   5.032  2.3355 -1.1463 -0.2787
20864SOL     OW67438   4.902   0.115   2.143  0.2404 -0.4574  0.0418
20864SOL    HW167439   4.817   0.159   2.133 -0.4593 -1.4202  1.3253
20864SOL    HW267440   4.967   0.182   2.123 -0.8212  0.1510 -1.5077
20865SOL     OW67441   0.269   5.275   1.716  0.2790 -0.0130 -0.0471
20865SOL    HW167442   0.258   5.210   1.785 -0.0557 -0.0212 -0.1040
20865SOL    HW267443   0.276   5.224   1.635 -1.3115  0.0459 -0.2553
20866SOL     OW67444   5.714   5.273   7.929 -0.1807  0.0455 -0.0064
20866SOL    HW167445   5.647   5.213   7.897  0.9732 -0.3469 -1.8302
20866SOL    HW267446   5.756   5.307   7.850  1.8928  0.1414  1.0716
20867SOL     OW67447   7.088   6.869   4.566 -0.1811  0.2604  0.0413
20867SOL    HW167448   7.148   6.856   4.492  0.2036  0.5997  0.2927
20867SOL    HW267449   7.125   6.814   4.636 -1.3402 -1.2124 -0.4471
20868SOL     OW67450   4.931   3.177   5.295 -0.1995 -0.1999  0.2176
20868SOL    HW167451   5.012   3.126   5.290 -1.0649 -1.4766 -2.8365
20868SOL    HW267452   4.933   3.233   5.218 -2.2461 -0.3075  0.0261
20869SOL     OW67453   1.473   7.803   0.546 -0.3295  0.1603 -0.2747
20869SOL    HW167454   1.398   7.785   0.490 -0.7335 -0.9482  0.5770
20869SOL    HW267455   1.457   7.752   0.626  0.8019  0.7493  0.3687
20870SOL     OW67456   7.985   3.023   2.403  0.2649 -0.2838 -0.0953
20870SOL    HW167457   7.918   2.958   2.422  0.4734 -0.0209  1.6982
20870SOL    HW267458   8.016   3.051   2.489  1.6352  0.6747 -0.8689
20871SOL     OW67459   3.213   5.084   6.294 -0.0310  0.2785  0.6124
20871SOL    HW167460   3.191   5.031   6.217  0.9528  0.9768 -0.1673
20871SOL    HW267461   3.198   5.174   6.266  0.9092  0.5811  1.0381
20872SOL     OW67462   2.401   7.194   4.989 -0.0346  0.4285 -0.1774
20872SOL    HW167463   2.402   7.116   4.933 -1.4728  0.3417 -0.1322
20872SOL    HW267464   2.474   7.248   4.957  2.7472 -2.0454  1.5074
20873SOL     OW67465   3.597   6.836   2.509  0.2017  0.1116  0.4819
20873SOL    HW167466   3.595   6.917   2.458  0.1474 -0.3667 -0.2947
20873SOL    HW267467   3.552   6.772   2.454 -0.6166 -0.2183  1.4958
20874SOL     OW67468   8.167   3.152   1.367 -0.1416  0.3368 -0.0688
20874SOL    HW167469   8.132   3.240   1.356  0.4723  0.9919  2.4835
20874SOL    HW267470   8.155   3.133   1.460  0.7494 -1.8510 -0.3329
20875SOL     OW67471   1.183   8.754   0.811  0.0778 -0.7437  0.0306
20875SOL    HW167472   1.220   8.686   0.754  0.8843  2.0902 -3.2102
20875SOL    HW267473   1.259   8.791   0.856  0.2167  0.2248 -0.9435
20876SOL     OW67474   2.467   9.348   8.151 -0.4267 -0.4054 -0.1468
20876SOL    HW167475   2.430   9.416   8.095 -0.2208  0.8531  1.1906
20876SOL    HW267476   2.392   9.311   8.198 -0.5019 -0.8938 -0.6476
20877SOL     OW67477   2.623   0.720   0.805 -0.3878  0.0809 -0.4495
20877SOL    HW167478   2.557   0.788   0.820  0.6439  1.8235 -3.1672
20877SOL    HW267479   2.572   0.641   0.787 -1.6509  0.5735  0.7617
20878SOL     OW67480   6.468   6.248   4.947  0.1671 -0.4004  0.8853
20878SOL    HW167481   6.485   6.266   4.854  0.5443 -0.0738  1.0124
20878SOL    HW267482   6.433   6.330   4.981  0.2211 -0.4574  1.0770
20879SOL     OW67483   6.143   8.142   7.902  0.6898 -0.2157 -0.5883
20879SOL    HW167484   6.093   8.061   7.894  1.5289 -0.8447  0.3273
20879SOL    HW267485   6.120   8.192   7.823  1.2004 -1.9184 -1.8751
20880SOL     OW67486   8.033   8.674   5.683  0.2133 -0.2326  0.0546
20880SOL    HW167487   8.084   8.752   5.663  1.8424 -0.9686  1.1322
20880SOL    HW267488   8.068   8.642   5.766 -1.8831 -0.9148  0.7428
20881SOL     OW67489   2.768   0.901   9.257 -0.2473 -0.0475  0.4292
20881SOL    HW167490   2.846   0.928   9.207  1.1199 -3.3755  0.5057
20881SOL    HW267491   2.769   0.958   9.334  1.1454  1.1150 -0.3899
20882SOL     OW67492   6.897   3.734   8.271 -0.4729 -0.3680 -0.7584
20882SOL    HW167493   6.831   3.753   8.338 -0.6178 -0.0143 -1.0029
20882SOL    HW267494   6.860   3.768   8.190  0.4198  0.7016 -0.7383
20883SOL     OW67495   9.702   0.900   7.752  0.0741 -0.4904  0.4595
20883SOL    HW167496   9.757   0.978   7.747  0.6756 -0.8832  0.7563
20883SOL    HW267497   9.739   0.841   7.687  0.5708 -1.0974  1.2713
20884SOL     OW67498   7.477   4.588   2.873  0.5761 -0.3158  0.2526
20884SOL    HW167499   7.454   4.653   2.807 -0.4601 -0.9332 -0.0155
20884SOL    HW267500   7.516   4.516   2.823 -1.8986 -1.6118 -0.0087
20885SOL     OW67501   7.320   5.271   6.643 -0.0736 -0.1477 -0.4283
20885SOL    HW167502   7.415   5.275   6.655 -0.1361  0.5344 -0.1270
20885SOL    HW267503   7.306   5.304   6.554  0.0726 -1.5133 -0.9742
20886SOL     OW67504   2.504   9.455   4.343 -0.5039  0.1721  0.2406
20886SOL    HW167505   2.430   9.493   4.389 -1.4258 -0.6605 -0.4981
20886SOL    HW267506   2.495   9.485   4.253  0.7812  1.0698  0.3786
20887SOL     OW67507   6.732   1.729   7.958 -0.7916 -0.7494 -0.7541
20887SOL    HW167508   6.791   1.804   7.960 -1.0479 -0.5242 -1.2836
20887SOL    HW267509   6.701   1.720   8.048 -1.9612  0.7537 -0.9705
20888SOL     OW67510   5.754   1.481   0.737 -0.3900  0.6038  0.1182
20888SOL    HW167511   5.668   1.507   0.770 -1.4717 -0.1338 -1.9316
20888SOL    HW267512   5.741   1.393   0.702  1.3602  0.2477  0.2524
20889SOL     OW67513   7.925   6.256   7.601 -0.2670  0.2692 -0.4318
20889SOL    HW167514   7.938   6.179   7.656 -1.0096  1.8279  2.1394
20889SOL    HW267515   7.832   6.274   7.607  0.1465  2.4229  0.7080
20890SOL     OW67516   0.545   3.095   4.706  0.7460 -0.5423  0.3849
20890SOL    HW167517   0.465   3.125   4.747 -0.1630 -2.3659  0.0284
20890SOL    HW267518   0.610   3.096   4.776  0.7285  1.8815  0.4584
20891SOL     OW67519   6.741   3.397   5.952  0.1422 -0.1599  0.6649
20891SOL    HW167520   6.752   3.302   5.960  2.2045  0.1179  2.2416
20891SOL    HW267521   6.689   3.421   6.029 -0.4459  0.0011  0.2242
20892SOL     OW67522   5.317   8.338   0.260  0.3754  0.0744 -0.1785
20892SOL    HW167523   5.305   8.396   0.185 -2.2975 -0.4332 -0.2672
20892SOL    HW267524   5.303   8.250   0.225 -0.3228 -0.2139  0.7715
20893SOL     OW67525   9.642   7.439   6.062 -0.2401 -0.1660 -0.0353
20893SOL    HW167526   9.730   7.472   6.081 -0.9751  0.9416  1.6801
20893SOL    HW267527   9.625   7.376   6.131  0.6408 -3.4628 -2.5575
20894SOL     OW67528   0.260   0.285   4.156  0.4691 -0.7515  0.5501
20894SOL    HW167529   0.285   0.195   4.132  1.0748 -0.6458  0.7504
20894SOL    HW267530   0.325   0.340   4.112  0.1677 -0.4175  0.5215
20895SOL     OW67531   4.595   7.896   4.932 -0.0731 -0.0888  0.2522
20895SOL    HW167532   4.536   7.970   4.924  0.8913  0.6136 -0.4603
20895SOL    HW267533   4.624   7.899   5.023 -3.0848 -2.0053  1.4587
20896SOL     OW67534   0.950   8.773   8.861 -0.0457  0.0726  0.0061
20896SOL    HW167535   0.987   8.686   8.860  2.0425  0.9139 -0.6754
20896SOL    HW267536   0.957   8.804   8.771 -0.5074  1.0331  0.2788
20897SOL     OW67537   1.088   7.843   1.830  0.7005  0.0700  0.0822
20897SOL    HW167538   1.010   7.813   1.782  0.8610  0.3699 -0.3668
20897SOL    HW267539   1.159   7.838   1.766  1.1614 -0.7000  0.6359
20898SOL     OW67540   5.464   7.809   0.169 -0.0810  0.2588  0.6474
20898SOL    HW167541   5.473   7.723   0.128  0.3489  0.1421  0.9816
20898SOL    HW267542   5.551   7.848   0.164 -0.2369  0.6085  0.6452
20899SOL     OW67543   2.919   1.037   6.162  0.0488  0.4679  0.5466
20899SOL    HW167544   3.009   1.063   6.179  0.7544 -0.9708 -0.7163
20899SOL    HW267545   2.869   1.069   6.238  1.5746  1.4336  1.1768
20900SOL     OW67546   5.620   1.402   1.751  0.5106  0.0658  0.4237
20900SOL    HW167547   5.612   1.477   1.692 -1.2309  0.5541  1.2232
20900SOL    HW267548   5.652   1.331   1.695 -0.0815  0.7850 -0.8836
20901SOL     OW67549   6.235   4.444   1.339  0.2260  0.0693 -0.2587
20901SOL    HW167550   6.256   4.459   1.431 -3.8350  0.9162  0.7105
20901SOL    HW267551   6.199   4.527   1.308  0.8981 -0.3924 -2.5054
20902SOL     OW67552   0.980   6.179   4.979 -0.0534 -0.3717 -0.5308
20902SOL    HW167553   0.962   6.204   5.070 -0.9921  0.5131 -0.9447
20902SOL    HW267554   0.898   6.196   4.932  0.2229 -1.4181 -1.4314
20903SOL     OW67555   2.407   7.866   8.868 -0.2402  0.3266 -0.8140
20903SOL    HW167556   2.372   7.777   8.865 -0.0016  0.2436 -1.3241
20903SOL    HW267557   2.500   7.854   8.886 -0.3936  0.5274  0.1650
20904SOL     OW67558   0.320   8.875   7.372  0.0305 -0.1193  0.0436
20904SOL    HW167559   0.332   8.964   7.404  0.9899 -0.5444  0.9147
20904SOL    HW267560   0.234   8.876   7.329  1.2849  1.9752 -2.6820
20905SOL     OW67561   1.348   1.785   9.115  0.3528  0.0824  0.1462
20905SOL    HW167562   1.254   1.771   9.126 -0.0925  1.4425 -1.4621
20905SOL    HW267563   1.374   1.836   9.192  0.0732 -1.2995  1.2107
20906SOL     OW67564   9.202   4.710   7.531 -0.2501 -0.3989 -0.1375
20906SOL    HW167565   9.226   4.674   7.616 -0.5107  0.0582  0.1356
20906SOL    HW267566   9.279   4.758   7.502 -0.7184  0.8871  0.6394
20907SOL     OW67567   9.652   0.206   7.260 -0.1337  0.6399 -0.4221
20907SOL    HW167568   9.705   0.283   7.241  0.9194  0.2513  0.7994
20907SOL    HW267569   9.655   0.198   7.356 -1.7959  0.1709 -0.3854
20908SOL     OW67570   2.501   9.705   2.906  0.4104 -0.0392 -0.0429
20908SOL    HW167571   2.431   9.699   2.841  1.4746  0.4827 -1.2750
20908SOL    HW267572   2.562   9.635   2.881  1.7396  1.3292 -0.7642
20909SOL     OW67573   3.129   9.709   8.491  0.0387  0.0547 -0.1025
20909SOL    HW167574   3.186   9.759   8.431 -0.2147  0.0505 -0.3482
20909SOL    HW267575   3.123   9.622   8.451  0.1215 -0.0410  0.0927
20910SOL     OW67576   0.163   0.497   0.648  0.4992  0.4295 -0.4823
20910SOL    HW167577   0.165   0.581   0.602 -0.0072 -0.1028 -1.5182
20910SOL    HW267578   0.244   0.454   0.620  0.0670  0.0008 -1.1074
20911SOL     OW67579   8.438   5.662   1.140  0.4972  0.1313  0.9683
20911SOL    HW167580   8.500   5.613   1.193  0.9537  1.8900  2.1440
20911SOL    HW267581   8.476   5.750   1.134 -1.1622  0.8556  0.4880
20912SOL     OW67582   2.818   1.549   2.870 -0.0189 -0.5319 -0.3474
20912SOL    HW167583   2.780   1.634   2.892  2.0843  0.5270 -0.4988
20912SOL    HW267584   2.799   1.537   2.777  0.2907  0.1492 -0.5081
20913SOL     OW67585   1.017   6.389   4.756 -0.4254  0.2222  0.3260
20913SOL    HW167586   0.989   6.336   4.682  0.8381 -0.2069  0.1266
20913SOL    HW267587   1.051   6.326   4.819  1.1471  0.7618  0.0645
20914SOL     OW67588   8.474   0.187   2.338  0.2429 -0.0485  0.6293
20914SOL    HW167589   8.512   0.209   2.253  0.9956 -0.9781  0.7132
20914SOL    HW267590   8.549   0.175   2.396 -0.2833  1.6353  1.7152
20915SOL     OW67591   0.830   4.152   9.234 -0.2439 -0.4562 -0.4950
20915SOL    HW167592   0.745   4.164   9.191 -0.3945  0.1502 -0.0281
20915SOL    HW267593   0.823   4.068   9.279 -0.3791 -0.6971 -0.9598
20916SOL     OW67594   0.301   5.547   8.628 -0.3596 -0.8366  0.4161
20916SOL    HW167595   0.309   5.587   8.541 -1.2732  1.5538  1.3261
20916SOL    HW267596   0.249   5.468   8.614  0.4912 -1.1330 -1.3378
20917SOL     OW67597   9.706   5.385   2.039 -0.4021 -0.1506  0.0552
20917SOL    HW167598   9.697   5.480   2.039  0.8057  0.0049 -1.6960
20917SOL    HW267599   9.637   5.354   1.980  0.0379 -0.2498 -0.4117
20918SOL     OW67600   4.809   0.989   7.944 -0.5265 -0.9231  0.1072
20918SOL    HW167601   4.862   0.930   7.890 -1.0253  0.0186 -1.4853
20918SOL    HW267602   4.745   1.025   7.883 -2.7213 -1.6447  1.8653
20919SOL     OW67603   4.556   7.473   5.214  0.0832 -0.4599 -0.0591
20919SOL    HW167604   4.604   7.395   5.243  0.2723 -0.0307  0.8098
20919SOL    HW267605   4.554   7.466   5.119 -0.3222 -1.7734  0.0241
20920SOL     OW67606   8.369   5.942   2.469  0.2678  0.8468 -0.3510
20920SOL    HW167607   8.327   5.945   2.383  1.0020  1.3266 -0.7083
20920SOL    HW267608   8.332   6.016   2.516 -1.1187 -0.1856  0.2357
20921SOL     OW67609   4.443   8.493   5.701 -0.0156  0.1686  0.2336
20921SOL    HW167610   4.414   8.577   5.738  0.9306  0.2507  0.8159
20921SOL    HW267611   4.363   8.454   5.666 -0.2931  1.8510 -1.1613
20922SOL     OW67612   5.937   2.390   7.262 -0.0101 -0.7184 -0.3040
20922SOL    HW167613   6.021   2.348   7.281  0.1350 -0.7057 -0.9041
20922SOL    HW267614   5.958   2.458   7.198 -0.2716  0.1704  0.5440
20923SOL     OW67615   3.494   5.235   7.378 -0.4343  0.4426 -0.1089
20923SOL    HW167616   3.498   5.140   7.375  2.8433  0.4858 -2.0149
20923SOL    HW267617   3.516   5.258   7.468  1.3162 -0.6212 -0.2382
20924SOL     OW67618   9.370   7.567   8.804 -0.1921 -0.4034 -0.0618
20924SOL    HW167619   9.349   7.544   8.713  0.6920 -0.0401 -0.3640
20924SOL    HW267620   9.346   7.489   8.854 -1.0235 -0.4762 -0.5550
20925SOL     OW67621   6.537   4.051   7.194 -0.2864  0.2470 -0.1789
20925SOL    HW167622   6.584   4.095   7.122  0.2168  1.6996  0.9744
20925SOL    HW267623   6.481   3.987   7.151 -0.2225  1.2899 -1.8931
20926SOL     OW67624   3.776   0.630   6.132 -0.7347  0.3188  0.3697
20926SOL    HW167625   3.862   0.632   6.175 -0.2400 -1.4590 -0.4162
20926SOL    HW267626   3.795   0.643   6.039 -0.9577 -2.4388 -0.1468
20927SOL     OW67627   0.733   0.304   0.952  0.0124 -0.2909  0.5880
20927SOL    HW167628   0.821   0.288   0.920  0.3809  1.5173  0.5808
20927SOL    HW267629   0.726   0.251   1.031  1.1578 -0.3634  0.6592
20928SOL     OW67630   2.780   8.514   7.072 -0.0138  0.5514 -0.3108
20928SOL    HW167631   2.829   8.592   7.098 -0.7254  0.5105  1.3493
20928SOL    HW267632   2.830   8.441   7.109 -1.7783  0.5740  2.4704
20929SOL     OW67633   3.911   2.270   1.825 -0.3386  0.5297 -0.4752
20929SOL    HW167634   3.902   2.177   1.802 -3.0946  0.4893  0.4332
20929SOL    HW267635   3.884   2.317   1.746 -1.0577  0.5183 -0.2391
20930SOL     OW67636   2.162   3.347   9.196 -0.1539  0.0124 -0.1579
20930SOL    HW167637   2.167   3.258   9.231  0.9774  0.4927  0.9640
20930SOL    HW267638   2.228   3.349   9.126  0.2087  0.1201  0.1844
20931SOL     OW67639   3.033   0.078   4.905 -0.1322 -0.0226  0.1773
20931SOL    HW167640   3.087   0.025   4.846  1.5423  0.9765  0.7466
20931SOL    HW267641   3.091   0.100   4.977 -1.7679 -0.1468  1.5880
20932SOL     OW67642   9.011   8.806   4.841 -0.5220  0.0569  0.2552
20932SOL    HW167643   9.054   8.892   4.837 -1.6077  0.6090 -0.2066
20932SOL    HW267644   9.040   8.769   4.924  2.2098 -0.3883 -0.8204
20933SOL     OW67645   3.915   1.508   5.573  0.2492 -0.0307  0.6149
20933SOL    HW167646   3.992   1.460   5.541  0.4078 -0.0408  1.0123
20933SOL    HW267647   3.895   1.570   5.502 -0.6346 -1.4306 -0.4104
20934SOL     OW67648   5.669   2.524   4.940  0.0843  0.3063 -0.7563
20934SOL    HW167649   5.620   2.446   4.965 -2.2674  2.6436  3.2418
20934SOL    HW267650   5.605   2.578   4.894  0.6403  1.1229 -0.5901
20935SOL     OW67651   3.456   6.188   9.464 -0.6835  0.1113  0.2598
20935SOL    HW167652   3.521   6.155   9.525 -1.7198 -1.7217  0.4344
20935SOL    HW267653   3.507   6.234   9.397  0.7266 -0.6270  0.7849
20936SOL     OW67654   9.092   7.742   4.267 -0.0658 -0.2085  0.5533
20936SOL    HW167655   9.128   7.730   4.179 -1.5179  0.8059 -0.2144
20936SOL    HW267656   9.125   7.667   4.316  0.4234 -1.0381 -0.9668
20937SOL     OW67657   3.642   3.814   1.756 -0.4397 -0.4672 -0.4112
20937SOL    HW167658   3.586   3.737   1.748 -3.1487  1.2860  0.0848
20937SOL    HW267659   3.655   3.843   1.666 -0.2469 -0.9524 -0.5409
20938SOL     OW67660   8.368   0.206   5.990 -0.0313  0.3371 -0.5242
20938SOL    HW167661   8.418   0.127   5.966  1.9092  2.1233 -2.9518
20938SOL    HW267662   8.400   0.229   6.077 -1.7777 -2.2722  0.9745
20939SOL     OW67663   7.251   9.041   5.081  0.3877 -0.4570 -0.0011
20939SOL    HW167664   7.223   8.977   5.016 -2.1063  0.1515  0.3616
20939SOL    HW267665   7.199   9.021   5.159 -0.1535  1.7004  0.2595
20940SOL     OW67666   1.367   1.256   9.000 -0.5179  0.6300  0.2572
20940SOL    HW167667   1.313   1.231   9.076 -1.1690  1.1257 -0.0347
20940SOL    HW267668   1.363   1.351   8.997 -2.6457  0.5654 -1.8912
20941SOL     OW67669   5.031   8.283   9.220 -0.3108 -0.1731 -0.1150
20941SOL    HW167670   4.963   8.217   9.203 -0.9283 -0.3938  2.6828
20941SOL    HW267671   5.096   8.268   9.152 -1.6725 -1.9445 -1.1290
20942SOL     OW67672   4.517   5.133   7.562 -0.3503  0.1038 -0.7665
20942SOL    HW167673   4.557   5.078   7.495  2.4182 -0.4080  1.1454
20942SOL    HW267674   4.482   5.071   7.626 -1.4436  0.5974 -0.8591
20943SOL     OW67675   9.009   2.572   2.395  0.1350 -0.6706 -0.2778
20943SOL    HW167676   8.950   2.552   2.322  0.0348 -1.0733 -0.0871
20943SOL    HW267677   9.013   2.491   2.446 -0.2456 -0.2264  0.4792
20944SOL     OW67678   9.614   4.107   3.641 -0.2347  0.3311  0.0878
20944SOL    HW167679   9.620   4.137   3.550 -1.3505 -0.1859 -0.1736
20944SOL    HW267680   9.698   4.134   3.680  1.1506 -1.2314 -1.6159
20945SOL     OW67681   5.533   2.309   1.292  0.1313  0.3684  0.5460
20945SOL    HW167682   5.586   2.276   1.365 -0.7795 -1.8803  0.2926
20945SOL    HW267683   5.516   2.400   1.314 -0.7215 -0.3902  3.6123
20946SOL     OW67684   4.557   7.768   4.119  0.1994 -0.1636  0.6637
20946SOL    HW167685   4.561   7.772   4.214  0.1701  0.2027  0.6516
20946SOL    HW267686   4.465   7.784   4.098  0.5949  2.3353  0.4756
20947SOL     OW67687   4.740   2.917   0.768  0.2329  0.4469  0.3552
20947SOL    HW167688   4.790   2.987   0.725 -0.6735  0.1375 -1.2484
20947SOL    HW267689   4.660   2.960   0.799 -0.4001  0.1229 -0.7745
20948SOL     OW67690   1.868   5.562   5.215  0.0651  0.1366  0.4008
20948SOL    HW167691   1.835   5.643   5.177  0.3664  0.0208 -0.1217
20948SOL    HW267692   1.961   5.579   5.230  0.3026 -0.3576 -0.4167
20949SOL     OW67693   9.619   2.221   9.474  0.0188 -0.4879  0.1237
20949SOL    HW167694   9.535   2.217   9.428 -0.4793 -0.7361  1.0437
20949SOL    HW267695   9.642   2.130   9.489  1.1846 -0.4945 -1.3850
20950SOL     OW67696   7.369   7.614   9.657  0.1002  0.4972  0.4714
20950SOL    HW167697   7.295   7.560   9.683 -1.5380  0.8133 -3.0585
20950SOL    HW267698   7.356   7.697   9.704 -0.5721 -0.1622  1.4823
20951SOL     OW67699   6.361   3.751   4.090 -0.5377 -0.0462  0.6499
20951SOL    HW167700   6.437   3.753   4.031 -1.4130  2.0984 -0.5494
20951SOL    HW267701   6.317   3.668   4.070  0.8962 -0.8224  0.6012
20952SOL     OW67702   5.558   0.913   1.240 -0.5747  0.2850 -0.3121
20952SOL    HW167703   5.555   0.820   1.218  1.9264  0.0233  0.0570
20952SOL    HW267704   5.531   0.917   1.331  1.8514 -0.5551  0.5389
20953SOL     OW67705   0.084   8.936   7.265  0.3802 -0.3640  0.1389
20953SOL    HW167706   0.119   8.948   7.177 -0.9737  1.9638 -0.1688
20953SOL    HW267707   0.023   8.863   7.257  1.5024 -1.2684 -0.4273
20954SOL     OW67708   9.015   6.587   9.129  0.3882 -0.2869  0.3828
20954SOL    HW167709   9.084   6.522   9.115 -1.1731 -2.2840  1.4072
20954SOL    HW267710   9.033   6.622   9.216 -0.6534 -1.9198  1.3125
20955SOL     OW67711   7.031   4.314   5.022 -0.2589  0.5131 -0.4099
20955SOL    HW167712   7.065   4.304   4.933 -1.0487 -3.8506 -0.4225
20955SOL    HW267713   6.938   4.291   5.015 -0.0701 -1.1385  1.6774
20956SOL     OW67714   9.498   7.989   6.509 -0.5108 -0.1982 -0.3083
20956SOL    HW167715   9.421   7.945   6.548  0.9653 -0.9628  1.9480
20956SOL    HW267716   9.552   7.917   6.478 -0.3648  0.3073 -1.2402
20957SOL     OW67717   9.140   6.285   2.202 -0.6000 -0.2903 -0.1323
20957SOL    HW167718   9.059   6.236   2.193 -0.5289 -0.1963 -1.5030
20957SOL    HW267719   9.137   6.321   2.290 -1.9601 -0.4343 -0.1005
20958SOL     OW67720   0.658   6.770   9.132 -0.1707 -0.0938  0.1036
20958SOL    HW167721   0.634   6.692   9.182 -0.3005 -0.2481 -0.1914
20958SOL    HW267722   0.711   6.822   9.192  0.0064 -0.4596  0.2684
20959SOL     OW67723   5.373   6.038   1.502 -0.0536 -0.1067  0.4115
20959SOL    HW167724   5.456   5.995   1.480  0.0258 -0.9012  2.1230
20959SOL    HW267725   5.307   5.989   1.452  0.4084  0.0834 -0.4090
20960SOL     OW67726   2.848   4.705   6.918  0.4753  0.3048  0.2438
20960SOL    HW167727   2.891   4.718   7.003  0.7482  2.3966 -0.1606
20960SOL    HW267728   2.868   4.784   6.868  0.6546 -1.0391 -1.9517
20961SOL     OW67729   2.280   3.038   7.238  0.5353  0.4309 -0.3619
20961SOL    HW167730   2.267   3.013   7.329 -1.4197  1.0881 -0.4140
20961SOL    HW267731   2.191   3.048   7.203  1.1024  4.7531 -1.0389
20962SOL     OW67732   8.371   6.696   0.279 -0.1224  0.5398  0.0975
20962SOL    HW167733   8.322   6.649   0.347  1.6659 -1.0055  0.4073
20962SOL    HW267734   8.360   6.642   0.200  0.7149  0.3798  0.0795
20963SOL     OW67735   0.954   1.197   9.534  0.3703 -0.8685 -0.4120
20963SOL    HW167736   1.027   1.171   9.590  0.5087 -1.9098 -1.0467
20963SOL    HW267737   0.882   1.140   9.561 -0.4504  0.6403  0.7050
20964SOL     OW67738   1.674   0.790   4.177  0.3266 -0.0868  0.0270
20964SOL    HW167739   1.617   0.740   4.236  0.1018  1.8402  1.5331
20964SOL    HW267740   1.745   0.822   4.233 -0.6908  3.0921 -0.2836
20965SOL     OW67741   2.080   8.926   2.266 -0.0702  0.3073  0.5609
20965SOL    HW167742   2.135   8.972   2.202 -2.4308  0.9957 -1.1059
20965SOL    HW267743   2.076   8.836   2.234  0.1169  0.2386  0.7253
20966SOL     OW67744   6.019   8.720   7.037 -0.8006 -0.4511 -0.0017
20966SOL    HW167745   6.009   8.809   7.002  3.1535  0.5659  0.8954
20966SOL    HW267746   6.019   8.664   6.960  0.3490  0.8405 -1.0132
20967SOL     OW67747   7.482   6.461   3.463  1.5299  0.1207  0.3296
20967SOL    HW167748   7.435   6.390   3.506 -0.5569 -0.0521 -1.9935
20967SOL    HW267749   7.470   6.537   3.521 -1.4903  0.0105  0.0042
20968SOL     OW67750   0.953   9.422   0.907 -0.3784  0.2017  0.1243
20968SOL    HW167751   0.890   9.402   0.837 -2.3274  1.5130  1.3964
20968SOL    HW267752   0.962   9.341   0.956 -1.2769  0.0335  0.0337
20969SOL     OW67753   3.643   8.158   4.042 -0.5034  0.2690 -0.0118
20969SOL    HW167754   3.632   8.093   4.112 -0.2353 -0.1697 -0.3736
20969SOL    HW267755   3.700   8.225   4.080  0.9145 -0.7415 -0.3075
20970SOL     OW67756   8.248   3.029   3.864 -0.2011 -0.9494  0.5615
20970SOL    HW167757   8.261   2.936   3.843  0.7395 -0.6207 -0.4683
20970SOL    HW267758   8.336   3.066   3.860 -0.5266 -0.0709  1.2906
20971SOL     OW67759   1.254   7.369   9.209  0.3633 -0.3170 -0.2353
20971SOL    HW167760   1.345   7.345   9.227 -0.4392 -1.7661  2.3644
20971SOL    HW267761   1.218   7.293   9.162  0.1389 -0.3813  0.0344
20972SOL     OW67762   8.507   3.901   7.608 -0.5038  0.3011  0.0901
20972SOL    HW167763   8.601   3.887   7.599 -0.3841  0.7979  0.5077
20972SOL    HW267764   8.498   3.997   7.611 -0.9870  0.2492  0.3704
20973SOL     OW67765   8.065   6.327   6.356 -0.4929 -0.2028  0.4605
20973SOL    HW167766   8.016   6.364   6.430  1.3874  0.9983  1.1659
20973SOL    HW267767   8.055   6.392   6.286 -1.6249 -0.9744 -0.1334
20974SOL     OW67768   1.191   6.522   2.045 -0.2585 -0.0691 -0.4841
20974SOL    HW167769   1.211   6.506   1.953  1.8928 -5.0550  0.4850
20974SOL    HW267770   1.099   6.497   2.054 -0.1325 -0.8006 -1.1040
20975SOL     OW67771   8.349   7.731   7.179  0.5067 -0.2894  0.2331
20975SOL    HW167772   8.373   7.764   7.265  1.3940 -0.1442 -0.0640
20975SOL    HW267773   8.397   7.786   7.117 -0.6767  0.0833 -0.3902
20976SOL     OW67774   6.673   8.271   8.834 -0.3706 -0.5368  0.0277
20976SOL    HW167775   6.622   8.197   8.866 -0.8229 -0.4883 -0.5706
20976SOL    HW267776   6.653   8.343   8.894 -0.5763 -0.6692  0.1151
20977SOL     OW67777   9.732   1.418   6.216 -0.3534  0.2101  0.5333
20977SOL    HW167778   9.727   1.463   6.132  0.2214  0.2605  0.5192
20977SOL    HW267779   9.669   1.346   6.209 -1.5037  1.1783  0.6689
20978SOL     OW67780   5.774   4.286   1.331 -0.1067 -0.0275  0.1171
20978SOL    HW167781   5.819   4.251   1.255 -0.5868 -1.1422  0.3205
20978SOL    HW267782   5.751   4.209   1.383 -2.4429  0.4608 -0.0909
20979SOL     OW67783   4.581   9.660   3.818 -0.2481  0.1569  0.1565
20979SOL    HW167784   4.664   9.621   3.848  0.0522  0.3426 -0.4224
20979SOL    HW267785   4.533   9.586   3.780 -0.4665 -0.0036  0.7308
20980SOL     OW67786   7.495   8.305   9.192  0.2139  0.3631 -0.0771
20980SOL    HW167787   7.414   8.352   9.213 -0.7093 -0.5710 -1.4039
20980SOL    HW267788   7.473   8.253   9.115  1.4380 -1.5945  0.8171
20981SOL     OW67789   3.108   2.137   6.195  0.0292  0.5812  0.0999
20981SOL    HW167790   3.194   2.164   6.163 -0.3894  0.4164 -1.2660
20981SOL    HW267791   3.114   2.042   6.203 -0.6253  0.2821 -2.1344
20982SOL     OW67792   2.188   4.631   9.233  0.5114 -0.5954  0.5319
20982SOL    HW167793   2.269   4.681   9.222 -0.1315 -0.0778 -2.6146
20982SOL    HW267794   2.210   4.543   9.201 -0.3267 -0.2433 -1.0872
20983SOL     OW67795   4.129   0.347   2.252 -0.1997 -0.1932 -0.2019
20983SOL    HW167796   4.220   0.365   2.227 -0.3608 -1.2205 -1.5962
20983SOL    HW267797   4.114   0.257   2.225 -2.2990  0.6311 -2.0036
20984SOL     OW67798   0.984   7.673   7.344  0.4105 -0.4293  0.2047
20984SOL    HW167799   0.906   7.618   7.341  1.2065 -1.6846  1.2688
20984SOL    HW267800   1.028   7.646   7.425  2.1099 -0.0075 -0.5482
20985SOL     OW67801   7.621   5.101   8.044 -0.3448 -0.5661  0.5535
20985SOL    HW167802   7.607   5.194   8.026 -2.8844 -1.0601 -0.4569
20985SOL    HW267803   7.683   5.073   7.976 -1.0831  0.0065 -0.3926
20986SOL     OW67804   8.234   6.896   8.291  0.1498 -0.1820  0.0707
20986SOL    HW167805   8.166   6.847   8.244 -0.3124  0.9636 -0.5054
20986SOL    HW267806   8.306   6.903   8.228  0.0589  0.1968  0.0034
20987SOL     OW67807   4.790   1.073   6.912  0.0403 -0.2920  0.7659
20987SOL    HW167808   4.747   1.159   6.913  2.5557  1.0673  0.3376
20987SOL    HW267809   4.833   1.067   6.997  2.4917  0.3835 -0.3364
20988SOL     OW67810   7.849   7.539   3.419  0.2379 -0.2712 -0.1221
20988SOL    HW167811   7.895   7.623   3.410  1.2544 -0.9087 -1.2754
20988SOL    HW267812   7.894   7.495   3.491 -0.0702  0.0182  0.2538
20989SOL     OW67813   7.439   2.322   2.952  0.1444  0.0022  0.3296
20989SOL    HW167814   7.418   2.289   3.039 -0.6927  1.0245  0.5361
20989SOL    HW267815   7.371   2.386   2.933 -0.6127 -1.3209 -1.7688
20990SOL     OW67816   7.906   7.790   2.881 -0.5410 -0.8656 -0.6688
20990SOL    HW167817   7.920   7.871   2.831  1.4153 -1.5029 -1.2242
20990SOL    HW267818   7.843   7.815   2.949 -0.8726  0.8166 -1.5279
20991SOL     OW67819   6.066   7.196   3.242 -0.0726  0.8958 -0.1205
20991SOL    HW167820   6.030   7.112   3.215 -0.7673  1.1021  0.1407
20991SOL    HW267821   6.000   7.260   3.214 -0.5943  1.1601  1.5842
20992SOL     OW67822   7.215   8.251   1.997 -0.2655  0.3591 -0.4560
20992SOL    HW167823   7.284   8.236   1.932  0.6131 -1.3987  0.7886
20992SOL    HW267824   7.231   8.185   2.064 -1.9085  1.2907  0.9318
20993SOL     OW67825   0.279   8.330   8.916  0.0080  0.0582 -0.1378
20993SOL    HW167826   0.324   8.353   8.835  0.0812 -0.3026 -0.2023
20993SOL    HW267827   0.239   8.412   8.946  1.6488  0.6594  0.5277
20994SOL     OW67828   6.141   8.076   9.045 -0.3465  0.2447 -0.8737
20994SOL    HW167829   6.076   8.137   9.079  0.7064  0.3198  1.1143
20994SOL    HW267830   6.098   7.991   9.047 -0.0317  0.0736  1.6950
20995SOL     OW67831   4.047   7.180   1.529  0.3902 -0.5559  0.6519
20995SOL    HW167832   4.023   7.229   1.608 -0.3748 -1.9750  1.3317
20995SOL    HW267833   3.976   7.198   1.468  1.3750  1.1856 -0.0516
20996SOL     OW67834   6.901   6.452   2.054 -0.4318 -0.1806 -0.0616
20996SOL    HW167835   6.937   6.483   1.971 -1.2553  1.0194  0.0132
20996SOL    HW267836   6.812   6.423   2.034 -0.4214 -0.4733  0.2861
20997SOL     OW67837   6.559   1.295   1.200  0.8109  0.2228  0.2968
20997SOL    HW167838   6.515   1.370   1.240  1.8733  0.6425  0.7235
20997SOL    HW267839   6.532   1.220   1.254  0.1823  0.3786  0.2057
20998SOL     OW67840   8.530   3.660   0.189  0.4108  0.0750 -0.2728
20998SOL    HW167841   8.619   3.657   0.153  0.9790  1.6304  0.9170
20998SOL    HW267842   8.510   3.568   0.210  1.6490 -0.3197 -0.7050
20999SOL     OW67843   4.313   2.698   8.186 -0.2184  0.4507  0.0462
20999SOL    HW167844   4.307   2.606   8.163 -1.6723  0.7334 -0.8481
20999SOL    HW267845   4.403   2.722   8.164 -0.1350 -0.5064 -0.7098
21000SOL     OW67846   0.223   5.764   3.525  0.4751  0.0546 -0.2286
21000SOL    HW167847   0.198   5.780   3.617 -0.2460  0.7107 -0.5264
21000SOL    HW267848   0.142   5.776   3.476  1.4626  3.0636 -1.3400
21001SOL     OW67849   5.351   4.240   2.393 -0.0639 -0.0265 -0.5229
21001SOL    HW167850   5.275   4.196   2.430 -0.2018  1.1749  0.7057
21001SOL    HW267851   5.426   4.202   2.438 -0.2156  1.2669  0.9088
21002SOL     OW67852   9.350   9.392   2.272 -0.6593 -0.3082 -0.1053
21002SOL    HW167853   9.424   9.331   2.263  0.1684  0.6444  0.0318
21002SOL    HW267854   9.389   9.478   2.256 -1.3553  0.4052  1.8396
21003SOL     OW67855   6.777   7.613   5.068 -0.2671 -0.3510 -0.2349
21003SOL    HW167856   6.795   7.647   4.981 -0.5498 -0.2994 -0.2748
21003SOL    HW267857   6.806   7.683   5.127  2.6427 -1.5253 -0.1436
21004SOL     OW67858   4.608   6.067   6.464  0.3590 -0.1224 -0.1292
21004SOL    HW167859   4.684   6.010   6.474 -0.4397 -1.5715 -1.6899
21004SOL    HW267860   4.566   6.067   6.550  1.1478 -0.7672  0.2629
21005SOL     OW67861   3.601   4.533   8.837 -0.1030 -0.2167  0.0260
21005SOL    HW167862   3.688   4.495   8.828  0.5591  0.8812  1.4223
21005SOL    HW267863   3.557   4.476   8.900 -0.2845 -0.5581 -0.4007
21006SOL     OW67864   9.454   8.419   7.711 -0.0419  0.0659 -0.0009
21006SOL    HW167865   9.539   8.441   7.748  0.5659  0.1170 -1.3900
21006SOL    HW267866   9.407   8.377   7.784  1.3729 -0.4991  0.6294
21007SOL     OW67867   7.287   6.505   4.648  0.6171 -0.8240 -0.3772
21007SOL    HW167868   7.335   6.424   4.663  0.2439 -1.0006 -0.1367
21007SOL    HW267869   7.355   6.569   4.625  1.2288 -0.5809  1.8560
21008SOL     OW67870   8.003   2.215   7.108  0.0914 -0.0097  0.1340
21008SOL    HW167871   8.073   2.280   7.118  0.7884 -0.9819  2.0384
21008SOL    HW267872   7.923   2.264   7.127  0.4175  0.6851 -0.2291
21009SOL     OW67873   6.533   3.253   3.048  0.1058 -0.5838 -0.1680
21009SOL    HW167874   6.533   3.177   2.990  0.3998 -0.0383 -0.8901
21009SOL    HW267875   6.609   3.241   3.104  0.9355 -0.1662 -1.1697
21010SOL     OW67876   6.825   0.869   0.451  0.2530  0.0619 -0.2280
21010SOL    HW167877   6.740   0.904   0.425  0.0245 -1.3063 -1.4822
21010SOL    HW267878   6.882   0.945   0.456 -0.7009  0.8447 -0.7768
21011SOL     OW67879   9.010   5.266   3.346  0.3849 -0.3527 -0.3188
21011SOL    HW167880   8.935   5.224   3.302  0.5949  0.1366 -1.1571
21011SOL    HW267881   9.080   5.264   3.281  0.8054  0.0794  0.1186
21012SOL     OW67882   0.737   1.200   7.568  0.1712 -0.0614 -0.1508
21012SOL    HW167883   0.779   1.208   7.653  0.3501 -2.4619  0.0367
21012SOL    HW267884   0.801   1.156   7.513  0.2274  1.8198 -1.7253
21013SOL     OW67885   4.913   2.683   7.297  0.6751  0.7807  0.2065
21013SOL    HW167886   4.921   2.616   7.364  1.2500  0.9873  0.3534
21013SOL    HW267887   4.842   2.739   7.326 -0.2356 -0.1154 -0.2315
21014SOL     OW67888   0.523   9.753   6.175 -0.2457  0.3784 -0.3706
21014SOL    HW167889   0.609   9.731   6.140 -1.4148 -2.0261 -2.0481
21014SOL    HW267890   0.520   9.707   6.259 -0.0976 -0.0660 -0.6031
21015SOL     OW67891   1.027   4.495   7.961  0.1622 -0.2152 -0.5259
21015SOL    HW167892   1.054   4.553   7.890  1.5152  1.7418  1.4453
21015SOL    HW267893   0.933   4.510   7.969  0.1413  0.1485 -1.3544
21016SOL     OW67894   9.474   3.969   4.672 -0.1499 -0.1906 -0.1242
21016SOL    HW167895   9.409   4.034   4.646  0.4546 -0.2029 -1.7553
21016SOL    HW267896   9.495   3.991   4.763 -1.2604  0.7718 -0.0786
21017SOL     OW67897   9.487   6.569   5.924  0.0267  0.4760 -0.1823
21017SOL    HW167898   9.454   6.658   5.936  0.8644  0.6958  0.5555
21017SOL    HW267899   9.454   6.543   5.838  0.2120  1.6884 -0.6339
21018SOL     OW67900   5.688   5.998   8.616 -0.1350 -0.3513 -0.3881
21018SOL    HW167901   5.759   6.054   8.648 -0.8314  0.6578 -0.5815
21018SOL    HW267902   5.718   5.909   8.636  0.3849  0.1377  1.1539
21019SOL     OW67903   5.800   7.635   5.989  0.0138 -0.0784  0.1443
21019SOL    HW167904   5.805   7.712   6.045 -0.5782  0.6910 -0.8398
21019SOL    HW267905   5.867   7.649   5.922 -1.7178  0.8232 -1.4992
21020SOL     OW67906   7.175   4.914   6.668  0.3429  0.0307  0.4239
21020SOL    HW167907   7.149   4.919   6.576  0.0986 -0.5042  0.4619
21020SOL    HW267908   7.149   4.999   6.705 -0.9252 -0.3008  0.3448
21021SOL     OW67909   9.676   8.216   3.533  0.0183  0.0448 -0.5974
21021SOL    HW167910   9.765   8.215   3.569  0.0898  0.0736 -0.7726
21021SOL    HW267911   9.640   8.300   3.563 -0.1550 -0.2279 -0.0337
21022SOL     OW67912   9.532   0.093   0.502 -0.2123  0.1464  0.4299
21022SOL    HW167913   9.618   0.050   0.501  0.0849  0.7244  0.1445
21022SOL    HW267914   9.504   0.089   0.593  0.3953  0.4734  0.6419
21023SOL     OW67915   7.766   7.473   5.980  0.0992 -0.1289  0.7768
21023SOL    HW167916   7.815   7.555   5.978 -1.6331  0.9751 -1.7208
21023SOL    HW267917   7.683   7.496   6.022 -1.0641 -0.1144 -1.4260
21024SOL     OW67918   8.357   6.356   7.449  0.4529 -0.1639  0.0068
21024SOL    HW167919   8.314   6.405   7.379 -1.0190 -0.0359  0.9486
21024SOL    HW267920   8.446   6.343   7.418 -0.8915 -2.8749 -3.3567
21025SOL     OW67921   2.105   9.138   0.679 -0.7654 -0.4100 -0.3009
21025SOL    HW167922   2.061   9.062   0.639 -0.8322 -0.2913 -0.4525
21025SOL    HW267923   2.198   9.115   0.679 -0.5503  0.3148 -2.1399
21026SOL     OW67924   3.851   3.648   1.597  0.3312  0.0006 -0.1994
21026SOL    HW167925   3.933   3.663   1.550  0.5156  0.3424  0.2259
21026SOL    HW267926   3.795   3.721   1.572  1.3284  1.6620  2.0945
21027SOL     OW67927   1.019   8.309   6.539  0.2630  0.1578 -0.0497
21027SOL    HW167928   1.013   8.302   6.444 -0.1701 -2.0593  0.0968
21027SOL    HW267929   0.991   8.399   6.558 -0.6522  0.3153 -1.9277
21028SOL     OW67930   4.762   7.553   4.295  0.3738 -0.3320 -0.0411
21028SOL    HW167931   4.798   7.469   4.324 -1.5853 -1.8762 -1.7188
21028SOL    HW267932   4.668   7.536   4.287  0.0917  1.6760 -1.6126
21029SOL     OW67933   8.483   7.876   4.666  0.4883  0.1923 -0.7926
21029SOL    HW167934   8.442   7.800   4.626  0.5515  0.2823 -1.0302
21029SOL    HW267935   8.461   7.949   4.608 -0.4826  0.5576 -0.0044
21030SOL     OW67936   6.690   5.965   7.905  0.3772  0.4105 -0.2711
21030SOL    HW167937   6.647   6.015   7.835  0.7136  0.6159 -0.3336
21030SOL    HW267938   6.623   5.957   7.973 -0.9027 -2.1092 -1.6806
21031SOL     OW67939   1.836   5.940   2.502 -0.5280  0.1278  0.9629
21031SOL    HW167940   1.915   5.932   2.557  0.6336 -0.6836 -0.7296
21031SOL    HW267941   1.865   5.914   2.415 -2.3419  1.2604 -0.0396
21032SOL     OW67942   7.122   1.092   8.862 -0.4193  0.6650  0.4041
21032SOL    HW167943   7.185   1.024   8.842 -1.2600  0.1453 -0.5672
21032SOL    HW267944   7.079   1.063   8.942 -0.5119  0.2352  0.1992
21033SOL     OW67945   6.129   6.414   1.046 -0.3860  0.2156  0.4427
21033SOL    HW167946   6.109   6.375   1.131 -1.9777  2.9803  1.4897
21033SOL    HW267947   6.066   6.374   0.986 -0.0899 -0.8505  0.8261
21034SOL     OW67948   3.197   6.809   9.456  0.0549 -0.7467 -0.3053
21034SOL    HW167949   3.210   6.743   9.525 -2.2369  0.0600  1.0389
21034SOL    HW267950   3.222   6.892   9.497  2.7051 -0.6596 -1.9101
21035SOL     OW67951   7.931   6.443   5.531 -0.1177  0.2698 -0.5593
21035SOL    HW167952   7.914   6.350   5.544  0.0690  0.2459 -0.4786
21035SOL    HW267953   7.956   6.450   5.439  2.4168 -0.1597  0.0144
21036SOL     OW67954   2.290   4.113   1.627 -0.9267 -0.1620 -0.1162
21036SOL    HW167955   2.233   4.148   1.695  0.2394 -0.8278  1.2645
21036SOL    HW267956   2.376   4.151   1.646 -0.4004 -1.0250 -0.7018
21037SOL     OW67957   7.327   8.436   6.602 -0.2719  0.1640  0.5634
21037SOL    HW167958   7.306   8.369   6.667 -1.2467 -0.4809 -0.3786
21037SOL    HW267959   7.422   8.443   6.605 -0.1148 -1.5468  0.4132
21038SOL     OW67960   7.487   7.328   4.495  0.5558  0.8169 -0.0226
21038SOL    HW167961   7.565   7.367   4.455 -0.9946  2.6580 -1.4198
21038SOL    HW267962   7.420   7.333   4.427 -1.1992  0.6668  1.6218
21039SOL     OW67963   2.759   0.777   4.787 -0.5846 -0.2982 -0.2872
21039SOL    HW167964   2.744   0.857   4.837 -0.4262 -1.1268  1.1477
21039SOL    HW267965   2.741   0.802   4.696 -0.4153  1.3833  0.1016
21040SOL     OW67966   1.088   9.196   8.663  0.2622 -0.0692 -0.4394
21040SOL    HW167967   1.071   9.271   8.721  0.3588 -0.0070 -0.4917
21040SOL    HW267968   1.167   9.156   8.700 -0.9768 -1.4105  0.8819
21041SOL     OW67969   8.502   6.408   0.168 -0.4135  0.0252 -0.3119
21041SOL    HW167970   8.511   6.319   0.203 -1.3557  0.1986  0.3990
21041SOL    HW267971   8.573   6.415   0.104  1.3636 -0.3319  1.5073
21042SOL     OW67972   6.522   8.012   2.866 -0.4552 -1.0503  0.1550
21042SOL    HW167973   6.599   8.053   2.904  0.2740  1.3736 -3.3826
21042SOL    HW267974   6.448   8.060   2.903 -0.0209 -0.8896  0.8192
21043SOL     OW67975   9.720   9.439   2.673  0.8677 -0.5749  0.1830
21043SOL    HW167976   9.653   9.505   2.689  2.0636  0.2852  2.1699
21043SOL    HW267977   9.710   9.415   2.581 -1.6679  0.0079  0.2315
21044SOL     OW67978   9.663   0.627   1.306 -0.7544 -0.0365 -0.4940
21044SOL    HW167979   9.604   0.667   1.370 -2.8613 -0.6337 -1.9733
21044SOL    HW267980   9.605   0.591   1.239  1.2496 -1.7952 -1.3944
21045SOL     OW67981   0.104   1.532   7.169  0.0160  0.3241  0.3885
21045SOL    HW167982   0.150   1.551   7.251 -0.6543 -0.6301  0.9988
21045SOL    HW267983   0.012   1.544   7.190 -0.3696 -2.4306  0.5183
21046SOL     OW67984   9.085   5.009   8.343 -0.5482  0.4010 -0.0708
21046SOL    HW167985   9.132   5.090   8.327 -1.5067  1.1293  0.7098
21046SOL    HW267986   9.136   4.942   8.296  0.1238  1.4699 -0.9090
21047SOL     OW67987   9.612   4.152   2.301 -0.5438 -0.1083 -0.2309
21047SOL    HW167988   9.558   4.108   2.367 -2.5761  1.5324 -0.6828
21047SOL    HW267989   9.561   4.147   2.220  0.7435  0.0911 -1.0858
21048SOL     OW67990   3.765   4.225   8.394 -0.1743 -0.1473 -0.4845
21048SOL    HW167991   3.789   4.288   8.326 -0.7800 -0.0161 -0.5833
21048SOL    HW267992   3.670   4.217   8.387 -0.0296 -1.7123 -1.0340
21049SOL     OW67993   7.539   4.872   6.436 -0.2194 -0.2887  0.0337
21049SOL    HW167994   7.474   4.811   6.401  0.6597 -0.6195 -1.0528
21049SOL    HW267995   7.533   4.949   6.379 -1.3769  0.7138  1.4413
21050SOL     OW67996   4.436   1.530   7.664 -0.3841  0.6854 -0.1621
21050SOL    HW167997   4.484   1.602   7.705  0.2228  0.9238 -1.2542
21050SOL    HW267998   4.443   1.547   7.570 -1.0176 -0.3053 -0.4031
21051SOL     OW67999   7.145   1.820   1.838 -0.1213 -0.1034 -0.2969
21051SOL    HW168000   7.135   1.749   1.902 -0.1761 -0.1098 -0.3134
21051SOL    HW268001   7.175   1.895   1.891 -1.4638  0.2823 -0.0414
21052SOL     OW68002   0.339   0.406   1.983 -0.3566  0.2399  0.3315
21052SOL    HW168003   0.425   0.436   2.011 -0.3560 -0.4704  1.1244
21052SOL    HW268004   0.311   0.471   1.918  0.7967  0.4407  0.0120
21053SOL     OW68005   2.284   8.538   4.198 -0.4732 -0.0515  0.8826
21053SOL    HW168006   2.222   8.547   4.269 -1.0207 -1.8569  0.6926
21053SOL    HW268007   2.259   8.457   4.153  1.3578 -0.2915  0.1554
21054SOL     OW68008   6.082   4.430   4.322 -0.2571  0.1097  0.1982
21054SOL    HW168009   6.059   4.412   4.230  1.6277 -0.7473 -0.1352
21054SOL    HW268010   6.142   4.360   4.346  1.4265  1.8293  1.2271
21055SOL     OW68011   5.431   6.309   3.933 -0.1402 -0.3286  0.2730
21055SOL    HW168012   5.464   6.399   3.935  0.6617 -0.5996  0.0067
21055SOL    HW268013   5.395   6.294   4.020 -1.0107  0.5064  0.0685
21056SOL     OW68014   9.719   1.229   0.766 -0.4828  0.2583 -0.4436
21056SOL    HW168015   9.705   1.137   0.747  0.1915  0.2180 -0.7544
21056SOL    HW268016   9.654   1.250   0.833  0.5098 -0.8771  0.9036
21057SOL     OW68017   6.429   4.229   1.282 -0.5016  0.3269 -0.3811
21057SOL    HW168018   6.415   4.169   1.209 -0.7070 -0.0340 -0.0488
21057SOL    HW268019   6.373   4.305   1.262 -0.3389  0.3529 -0.7363
21058SOL     OW68020   5.866   0.027   6.693 -0.3994  0.2893  0.3006
21058SOL    HW168021   5.857   0.005   6.786  1.1920 -2.7910 -0.1551
21058SOL    HW268022   5.960   0.025   6.676 -0.7092 -1.7167 -1.8007
21059SOL     OW68023   4.974   7.583   9.742 -0.0851  0.5314  0.1657
21059SOL    HW168024   4.995   7.668   9.782 -2.2050  0.9150  0.5765
21059SOL    HW268025   4.939   7.606   9.656  2.3552 -0.1702 -1.1066
21060SOL     OW68026   2.107   6.421   0.301  0.0943  0.0966  0.4427
21060SOL    HW168027   2.086   6.506   0.263 -0.7462 -0.6092 -0.7762
21060SOL    HW268028   2.021   6.384   0.324  0.4056 -0.6549  0.4138
21061SOL     OW68029   1.510   1.386   1.812 -0.2658 -0.1652 -0.4888
21061SOL    HW168030   1.585   1.435   1.846  1.4114 -2.5177 -0.4942
21061SOL    HW268031   1.450   1.379   1.886  0.1530  0.6121 -0.0685
21062SOL     OW68032   7.878   0.832   9.278  0.2654  0.4332  0.8139
21062SOL    HW168033   7.964   0.795   9.258 -0.6022 -1.1159 -0.2799
21062SOL    HW268034   7.824   0.756   9.298 -1.5493  1.0891 -1.3198
21063SOL     OW68035   8.238   8.808   6.763 -0.0524  0.4485  0.3093
21063SOL    HW168036   8.291   8.732   6.787 -0.3834 -0.3206 -1.2126
21063SOL    HW268037   8.153   8.770   6.738  0.7910  0.7641 -3.8747
21064SOL     OW68038   3.337   9.132   8.669 -0.1430 -0.2945  0.2845
21064SOL    HW168039   3.275   9.078   8.620  0.6951  0.9423 -2.3343
21064SOL    HW268040   3.376   9.073   8.733 -1.5039 -1.9687 -0.3574
21065SOL     OW68041   4.524   5.958   1.272  0.3257  0.6017  0.3718
21065SOL    HW168042   4.592   6.014   1.309  0.7715  0.2836  0.0420
21065SOL    HW268043   4.561   5.925   1.190 -0.2588  0.4941  0.1467
21066SOL     OW68044   6.441   7.259   9.350  0.3475  0.1172 -0.1674
21066SOL    HW168045   6.391   7.288   9.273  0.5512  2.2095  0.4159
21066SOL    HW268046   6.520   7.313   9.349  0.0798  0.6223  1.8155
21067SOL     OW68047   0.088   3.455   3.266  0.2163 -0.4700 -0.4963
21067SOL    HW168048   0.030   3.421   3.198 -0.5297 -2.0341  0.8628
21067SOL    HW268049   0.167   3.402   3.259  0.0598 -0.7713 -0.0371
21068SOL     OW68050   3.912   2.546   8.353 -0.1759  0.4512 -0.2233
21068SOL    HW168051   3.923   2.641   8.346 -0.8489  0.4569 -1.3958
21068SOL    HW268052   3.991   2.509   8.312  0.7652  0.4754  1.4753
21069SOL     OW68053   2.267   6.371   6.879  0.3410 -0.0014  0.6100
21069SOL    HW168054   2.239   6.313   6.949 -0.3774 -1.1825 -0.6232
21069SOL    HW268055   2.298   6.450   6.924 -1.1634 -0.2640  2.2032
21070SOL     OW68056   7.149   1.647   7.081 -0.0543  0.2562  0.0033
21070SOL    HW168057   7.075   1.620   7.026 -2.0145 -3.6166  3.8889
21070SOL    HW268058   7.122   1.732   7.117 -0.7326  0.7336 -1.5346
21071SOL     OW68059   3.341   1.751   6.547 -0.2860  0.0823  0.1813
21071SOL    HW168060   3.412   1.697   6.512 -1.0182 -1.3221  0.8105
21071SOL    HW268061   3.334   1.724   6.639  0.8607  2.8932  1.1995
21072SOL     OW68062   8.804   3.387   2.964  0.4919  0.5551  0.3632
21072SOL    HW168063   8.855   3.436   3.028  0.8650 -0.9667  1.2876
21072SOL    HW268064   8.754   3.324   3.016  0.6800 -0.6220 -0.8245
21073SOL     OW68065   0.915   5.681   8.882 -0.1644  0.8884 -0.4382
21073SOL    HW168066   0.889   5.702   8.792  0.7623  1.0637 -0.6791
21073SOL    HW268067   1.001   5.638   8.873 -0.9774 -0.9942  0.2093
21074SOL     OW68068   9.340   9.620   5.382 -0.2644  0.1698  0.1149
21074SOL    HW168069   9.379   9.705   5.406 -0.6574  0.3417  0.1602
21074SOL    HW268070   9.414   9.559   5.380  0.1126  0.6219 -0.4446
21075SOL     OW68071   4.122   4.453   6.052  0.0124  0.2362  0.0908
21075SOL    HW168072   4.096   4.373   6.098  0.3306 -0.2953 -0.6273
21075SOL    HW268073   4.132   4.518   6.121  2.5696 -1.0747  1.0855
21076SOL     OW68074   0.234   8.375   2.127 -0.3592  0.4782  0.2595
21076SOL    HW168075   0.186   8.456   2.110 -1.3650 -0.1672 -0.0767
21076SOL    HW268076   0.286   8.360   2.048  1.1310  1.6349  0.9601
21077SOL     OW68077   7.301   2.293   8.368 -0.1736  0.2530  0.2883
21077SOL    HW168078   7.303   2.246   8.451 -1.4801 -0.3012  0.0310
21077SOL    HW268079   7.251   2.372   8.387 -2.4181 -0.9267 -0.4466
21078SOL     OW68080   6.279   8.104   3.434  0.0382  0.3480  0.2537
21078SOL    HW168081   6.322   8.173   3.485  0.9276  0.2227 -0.2977
21078SOL    HW268082   6.236   8.151   3.363  4.6267  0.2143 -3.0675
21079SOL     OW68083   2.433   8.489   1.551 -0.2954  0.3102 -0.0072
21079SOL    HW168084   2.390   8.499   1.466  1.5961 -1.7343 -1.3513
21079SOL    HW268085   2.510   8.546   1.545 -0.6841  0.9200  0.7519
21080SOL     OW68086   6.049   3.137   1.967 -0.6625 -0.1705 -0.1666
21080SOL    HW168087   6.032   3.090   2.048 -0.3654 -1.5732 -0.8994
21080SOL    HW268088   5.977   3.113   1.908  0.6553 -1.5335 -1.2970
21081SOL     OW68089   9.744   4.466   3.484  0.2634 -0.4432  0.7429
21081SOL    HW168090   9.663   4.460   3.534 -2.2704  2.0985 -2.5624
21081SOL    HW268091   9.751   4.382   3.438 -1.7217 -0.0464 -0.4162
21082SOL     OW68092   3.659   7.983   8.370 -0.2649 -0.2393  0.0843
21082SOL    HW168093   3.724   7.933   8.419 -0.0737  0.9234  1.0454
21082SOL    HW268094   3.583   7.987   8.427  0.3449  2.0917  0.8388
21083SOL     OW68095   6.643   4.648   2.103 -0.2805  0.2926 -0.1166
21083SOL    HW168096   6.726   4.674   2.062 -0.4497  0.1180 -0.5769
21083SOL    HW268097   6.664   4.569   2.153  0.2020  1.2027  1.1635
21084SOL     OW68098   4.745   7.782   8.698 -0.3838 -0.7539  0.1845
21084SOL    HW168099   4.656   7.773   8.731 -0.3411 -0.3014  0.4276
21084SOL    HW268100   4.734   7.799   8.604 -0.5667 -0.3997  0.2679
21085SOL     OW68101   4.984   0.304   4.785  0.0146  0.2406  0.3097
21085SOL    HW168102   5.023   0.389   4.764  0.4415  0.4202  1.6801
21085SOL    HW268103   4.990   0.298   4.881 -1.2523 -0.7426  0.3624
21086SOL     OW68104   7.502   1.863   4.588 -0.4545  0.2334 -0.1581
21086SOL    HW168105   7.541   1.820   4.664 -0.7965 -0.3251 -0.2943
21086SOL    HW268106   7.473   1.948   4.622 -1.2700 -0.2986  0.5269
21087SOL     OW68107   3.848   9.571   5.379 -0.1520 -0.0333 -0.4551
21087SOL    HW168108   3.798   9.609   5.451  1.3293 -0.1199  0.6625
21087SOL    HW268109   3.880   9.488   5.413  1.4440  0.4072 -0.8112
21088SOL     OW68110   5.397   9.086   6.587  0.3981  0.3196 -0.1412
21088SOL    HW168111   5.471   9.108   6.644  1.5280 -2.7483 -0.2307
21088SOL    HW268112   5.330   9.052   6.646 -0.1489  1.1633 -0.2660
21089SOL     OW68113   9.376   2.914   2.195 -0.1779 -0.0838 -0.1441
21089SOL    HW168114   9.352   2.906   2.287 -0.6889 -0.8647 -0.3327
21089SOL    HW268115   9.439   2.844   2.179  0.4164  0.4618 -0.2374
21090SOL     OW68116   4.388   0.675   2.031 -0.7391 -0.2253  0.3128
21090SOL    HW168117   4.406   0.716   2.116  1.3324 -1.3064  0.4526
21090SOL    HW268118   4.442   0.723   1.969  0.0561 -1.3075  0.1326
21091SOL     OW68119   6.389   8.159   8.963  0.1604 -0.8163 -0.0938
21091SOL    HW168120   6.350   8.093   9.020  1.1028 -1.7095 -0.4670
21091SOL    HW268121   6.444   8.212   9.021 -0.8624 -0.1148  0.2679
21092SOL     OW68122   9.504   6.375   3.845 -0.2545 -0.1483 -0.3306
21092SOL    HW168123   9.442   6.401   3.914  1.3841  0.5412  0.9648
21092SOL    HW268124   9.477   6.286   3.821 -1.1652 -0.2231  0.8490
21093SOL     OW68125   6.762   6.387   5.204 -0.7090 -0.7369 -0.0645
21093SOL    HW168126   6.783   6.296   5.225 -1.2020 -0.3652  2.2745
21093SOL    HW268127   6.786   6.396   5.111  2.4126 -2.3500  0.4423
21094SOL     OW68128   5.899   7.420   0.387 -0.1666  0.6313 -0.4144
21094SOL    HW168129   5.837   7.430   0.315  0.0635  0.9288 -0.5719
21094SOL    HW268130   5.855   7.461   0.462 -0.6506 -0.1859 -0.2362
21095SOL     OW68131   0.316   9.101   6.503  0.1423 -0.3552  0.0359
21095SOL    HW168132   0.250   9.162   6.537  1.1612  0.5846  0.4011
21095SOL    HW268133   0.363   9.071   6.581  2.0668  1.2929 -0.4123
21096SOL     OW68134   9.324   0.620   7.548 -0.5648  0.6832 -0.2161
21096SOL    HW168135   9.328   0.702   7.498  1.2566  0.8767  0.1510
21096SOL    HW268136   9.305   0.553   7.483  0.0308  1.1542 -0.8989
21097SOL     OW68137   5.192   5.352   4.986 -0.7147 -0.4484 -0.3085
21097SOL    HW168138   5.227   5.363   5.074 -0.4613 -0.7833 -0.3637
21097SOL    HW268139   5.098   5.363   4.996 -0.4600  5.1600 -0.8642
21098SOL     OW68140   6.121   8.499   7.533  0.2933 -0.7615 -0.0549
21098SOL    HW168141   6.073   8.582   7.529  1.2029 -0.2143  0.0224
21098SOL    HW268142   6.143   8.479   7.442  1.6748  0.0635  0.0719
21099SOL     OW68143   4.520   5.741   5.523 -0.6825  0.2677 -0.0017
21099SOL    HW168144   4.477   5.805   5.580  0.4944  1.2512 -0.1751
21099SOL    HW268145   4.606   5.779   5.506  0.0695 -1.3946 -0.0803
21100SOL     OW68146   5.076   7.184   6.409  0.2475  0.1693 -0.1042
21100SOL    HW168147   5.009   7.241   6.445  0.6625 -0.2881  1.4774
21100SOL    HW268148   5.076   7.203   6.315 -0.9547  1.3378  0.1026
21101SOL     OW68149   0.389   7.230   5.529  0.7532  0.1817 -0.6411
21101SOL    HW168150   0.383   7.321   5.500 -1.4006  0.1100 -0.5574
21101SOL    HW268151   0.482   7.217   5.547  1.2222  2.1185 -1.4067
21102SOL     OW68152   1.802   1.294   9.560  0.2774  0.0244 -0.2064
21102SOL    HW168153   1.760   1.368   9.604 -0.9736 -0.4703 -0.5054
21102SOL    HW268154   1.729   1.244   9.523  0.8661 -2.4793  1.7088
21103SOL     OW68155   1.305   2.782   6.434  0.8304  0.0873  0.4020
21103SOL    HW168156   1.343   2.821   6.513  1.9434  1.0293 -0.5386
21103SOL    HW268157   1.234   2.841   6.410  1.0316  0.2781  0.2595
21104SOL     OW68158   4.644   1.984   5.128 -0.4030 -0.3840 -0.0903
21104SOL    HW168159   4.737   2.008   5.129  0.1693 -2.4076  1.0808
21104SOL    HW268160   4.601   2.054   5.178  0.5572  0.2718 -0.1483
21105SOL     OW68161   2.643   1.236   7.636 -0.0179 -0.9869 -0.7086
21105SOL    HW168162   2.681   1.265   7.552 -1.0191 -0.6305 -1.0511
21105SOL    HW268163   2.719   1.211   7.689  0.8018  0.8273 -0.9384
21106SOL     OW68164   9.237   6.899   1.092  0.0944  0.3862 -0.0691
21106SOL    HW168165   9.283   6.817   1.074 -0.1882 -0.0091  0.9296
21106SOL    HW268166   9.223   6.938   1.006  0.6181 -0.4034 -0.5274
21107SOL     OW68167   7.528   5.105   9.386  0.3105 -0.0179 -0.1694
21107SOL    HW168168   7.523   5.010   9.373  2.4167 -0.4659  1.6595
21107SOL    HW268169   7.561   5.139   9.303 -2.8066 -0.4631 -1.7553
21108SOL     OW68170   2.258   0.364   9.695  0.2220 -0.0628 -0.6485
21108SOL    HW168171   2.180   0.364   9.751  0.8343 -1.0464  0.2428
21108SOL    HW268172   2.329   0.395   9.751  0.4768  0.8772 -1.4689
21109SOL     OW68173   0.362   0.778   5.363  0.0458  0.4114 -0.1132
21109SOL    HW168174   0.296   0.823   5.415  0.1901  1.7798 -1.0839
21109SOL    HW268175   0.315   0.703   5.326 -0.2358 -0.1908  1.3842
21110SOL     OW68176   1.622   3.335   1.785  0.8667 -0.0998 -0.0840
21110SOL    HW168177   1.656   3.367   1.701  1.6402  2.0400  0.9776
21110SOL    HW268178   1.696   3.292   1.827  0.1874 -2.2387 -0.8998
21111SOL     OW68179   7.101   2.498   0.880  0.2469 -0.1763  0.5873
21111SOL    HW168180   7.169   2.520   0.817  0.0004 -1.7859 -0.2993
21111SOL    HW268181   7.124   2.410   0.910 -1.6769 -0.9830 -0.1352
21112SOL     OW68182   3.049   9.166   4.097  0.7695  0.0068 -0.5979
21112SOL    HW168183   3.131   9.199   4.134  0.1522  0.7506  0.1297
21112SOL    HW268184   3.055   9.070   4.106  2.3404 -0.1200 -2.2387
21113SOL     OW68185   7.852   5.385   0.159 -0.6734  0.4823  0.1400
21113SOL    HW168186   7.824   5.320   0.094  0.9646 -1.8373  1.6073
21113SOL    HW268187   7.770   5.415   0.199 -1.5059 -0.4710 -0.7792
21114SOL     OW68188   0.512   5.036   4.349  0.4962  0.3447  0.2336
21114SOL    HW168189   0.519   5.109   4.287  0.2244  1.1226  1.0813
21114SOL    HW268190   0.600   5.027   4.385  0.8277 -0.5981 -0.7882
21115SOL     OW68191   4.685   2.395   5.467 -0.2560 -0.1618  0.1134
21115SOL    HW168192   4.594   2.419   5.450 -0.0688 -0.0292 -0.7659
21115SOL    HW268193   4.732   2.478   5.469 -0.1768 -0.2152  0.7700
21116SOL     OW68194   6.453   4.101   0.540  0.0105 -0.3236 -0.2256
21116SOL    HW168195   6.497   4.127   0.459 -2.5844  0.1471 -1.5803
21116SOL    HW268196   6.435   4.184   0.584  2.2787 -0.6098  1.4414
21117SOL     OW68197   3.506   6.786   4.972  0.1883  0.1392 -0.0432
21117SOL    HW168198   3.602   6.780   4.965  0.1260 -1.0919  0.0453
21117SOL    HW268199   3.491   6.855   5.037  0.9675  1.9666 -1.7082
21118SOL     OW68200   5.193   1.134   1.152  0.1959  0.2820  0.1287
21118SOL    HW168201   5.176   1.197   1.222  1.8825  0.6147  0.2842
21118SOL    HW268202   5.147   1.054   1.179  1.3856  0.1729  2.0147
21119SOL     OW68203   0.465   1.072   6.672 -0.0536  0.0366 -0.2863
21119SOL    HW168204   0.551   1.075   6.715 -0.4237 -4.1309  1.1600
21119SOL    HW268205   0.422   1.153   6.700  3.0973  2.0472 -0.6796
21120SOL     OW68206   3.159   6.378   2.576 -0.0818 -0.3431 -0.1879
21120SOL    HW168207   3.098   6.420   2.516 -0.8963 -0.1282  0.7641
21120SOL    HW268208   3.106   6.352   2.651  0.3029 -3.3984 -0.8332
21121SOL     OW68209   1.186   1.325   8.002  0.5645  0.4447 -0.2115
21121SOL    HW168210   1.156   1.236   7.983  0.6786 -0.0717  1.8248
21121SOL    HW268211   1.252   1.343   7.935  0.8955 -1.1992 -0.3661
21122SOL     OW68212   5.279   6.998   3.130  0.6600  0.5269  0.2013
21122SOL    HW168213   5.311   6.919   3.086 -0.0215  0.4568 -0.1747
21122SOL    HW268214   5.184   6.995   3.121  0.6866  2.1973 -1.2205
21123SOL     OW68215   8.781   0.356   3.636  0.2049  0.2380 -0.0533
21123SOL    HW168216   8.836   0.428   3.606  1.0722 -0.4985 -0.2807
21123SOL    HW268217   8.715   0.346   3.568 -0.3117  1.2299  0.2962
21124SOL     OW68218   1.656   6.502   4.179 -0.2938  0.1897  0.2850
21124SOL    HW168219   1.583   6.564   4.188  0.5253  1.2219 -0.0352
21124SOL    HW268220   1.730   6.556   4.153  0.2845 -1.0371 -0.6802
21125SOL     OW68221   3.833   0.697   8.503 -0.1404 -0.0203  0.6324
21125SOL    HW168222   3.891   0.769   8.525 -1.0357  1.3665 -1.2365
21125SOL    HW268223   3.885   0.640   8.446 -0.5409  1.2274 -1.0561
21126SOL     OW68224   0.655   5.159   0.545 -0.4822  0.0410 -0.2942
21126SOL    HW168225   0.624   5.174   0.455 -0.6914 -1.6614 -0.5301
21126SOL    HW268226   0.639   5.066   0.561 -1.3563  0.5047  1.8695
21127SOL     OW68227   4.041   7.519   9.388 -0.4774 -0.4551  0.4005
21127SOL    HW168228   3.975   7.512   9.457 -0.1791  0.1821  0.7600
21127SOL    HW268229   4.077   7.431   9.381  1.1599 -0.0765  2.7474
21128SOL     OW68230   9.108   7.111   2.967  0.2280 -0.4621 -0.2541
21128SOL    HW168231   9.106   7.036   2.907  2.1040 -1.4455  0.8010
21128SOL    HW268232   9.036   7.094   3.028  0.0009 -0.8672 -0.6217
21129SOL     OW68233   7.955   2.031   3.360  0.3565 -0.6346 -0.1303
21129SOL    HW168234   7.910   1.953   3.328  0.8727 -1.6203  1.4610
21129SOL    HW268235   8.045   2.003   3.376  0.9701  0.7012 -0.9741
21130SOL     OW68236   1.460   6.418   3.973  0.2989 -0.0296  0.1554
21130SOL    HW168237   1.551   6.427   4.001  0.6480  0.3336 -1.0133
21130SOL    HW268238   1.411   6.476   4.032  0.9352  0.3758  0.3010
21131SOL     OW68239   6.392   6.436   1.074 -0.7174  0.0964  0.2676
21131SOL    HW168240   6.301   6.445   1.046 -0.3296  2.2053 -0.5134
21131SOL    HW268241   6.387   6.383   1.154 -2.6719  0.5699  0.5268
21132SOL     OW68242   8.179   1.178   1.169  0.0542  0.3667 -0.4231
21132SOL    HW168243   8.101   1.128   1.143  0.6287 -1.2797  0.8908
21132SOL    HW268244   8.165   1.198   1.261  0.4893  1.4608 -0.5806
21133SOL     OW68245   4.058   0.174   6.376  0.3982  0.4618  0.2789
21133SOL    HW168246   4.099   0.158   6.461  0.1844  1.1720  0.5292
21133SOL    HW268247   4.123   0.225   6.328 -0.5307  2.5067  1.0576
21134SOL     OW68248   5.436   7.581   6.380 -0.2219 -0.0970 -0.1699
21134SOL    HW168249   5.366   7.644   6.397 -2.0276 -1.5388 -1.8417
21134SOL    HW268250   5.429   7.518   6.452 -0.0308  0.2487  0.1565
21135SOL     OW68251   3.217   1.917   9.378 -0.5069  0.1963  0.3614
21135SOL    HW168252   3.251   1.905   9.289 -1.2324 -0.5800  0.1790
21135SOL    HW268253   3.209   2.012   9.387  0.9147  0.3732  0.1278
21136SOL     OW68254   3.596   0.812   9.338  0.7717  0.1265 -0.2892
21136SOL    HW168255   3.557   0.820   9.251 -1.6988  2.8197  0.9224
21136SOL    HW268256   3.635   0.897   9.355  0.0356  0.1082  1.7186
21137SOL     OW68257   9.168   8.666   7.481  0.2290 -0.2529 -0.1709
21137SOL    HW168258   9.180   8.753   7.444  0.1778 -0.7850 -1.4969
21137SOL    HW268259   9.165   8.680   7.575  0.9114  1.0972 -0.3280
21138SOL     OW68260   4.446   8.827   8.618  0.4145  0.0910  0.3333
21138SOL    HW168261   4.359   8.849   8.651  0.2284 -0.7122  0.4107
21138SOL    HW268262   4.450   8.865   8.531  0.4571  1.2091  0.8171
21139SOL     OW68263   0.555   1.501   6.678 -0.3067 -0.1967  0.2273
21139SOL    HW168264   0.622   1.568   6.695 -0.6722  0.7272 -1.6487
21139SOL    HW268265   0.606   1.421   6.661  0.1281 -0.5198  2.6997
21140SOL     OW68266   2.888   2.676   7.016 -0.0721 -0.2913  0.3753
21140SOL    HW168267   2.837   2.604   7.053 -1.6621  0.3143 -0.5369
21140SOL    HW268268   2.979   2.652   7.033 -0.5002 -2.8608 -0.4800
21141SOL     OW68269   9.124   4.244   2.389 -0.8938  0.6912 -0.4390
21141SOL    HW168270   9.129   4.157   2.428 -1.7856  0.6427 -0.4168
21141SOL    HW268271   9.165   4.301   2.453  1.5939  0.0393 -1.3361
21142SOL     OW68272   2.865   8.140   3.718  0.1533  0.2594 -0.5791
21142SOL    HW168273   2.863   8.234   3.732  1.2644  0.1594  0.3597
21142SOL    HW268274   2.940   8.125   3.661 -0.9323  0.0765 -2.0004
21143SOL     OW68275   7.137   2.625   1.856 -0.6912  0.1834 -0.2689
21143SOL    HW168276   7.134   2.674   1.938 -1.5515  0.5432 -0.5084
21143SOL    HW268277   7.199   2.554   1.873  1.6370  2.0908 -0.3489
21144SOL     OW68278   5.374   6.233   4.202 -0.5098  0.2597 -0.8593
21144SOL    HW168279   5.321   6.166   4.244 -2.2408  1.2513 -1.3823
21144SOL    HW268280   5.433   6.264   4.271  0.7645 -2.1311 -0.7473
21145SOL     OW68281   2.577   0.475   4.377  0.3399  0.1405  0.6862
21145SOL    HW168282   2.665   0.458   4.343 -0.0187  0.1185 -0.2466
21145SOL    HW268283   2.587   0.467   4.472  1.0716 -1.1295  0.5274
21146SOL     OW68284   6.621   8.524   5.362 -1.3157 -0.0815  0.1430
21146SOL    HW168285   6.600   8.587   5.431  0.4940  0.5437  0.1750
21146SOL    HW268286   6.574   8.445   5.387 -1.2530  0.3394  1.7256
21147SOL     OW68287   3.628   9.686   5.574 -0.4696  0.1630  0.6792
21147SOL    HW168288   3.546   9.686   5.524  0.1971  0.4465 -0.4556
21147SOL    HW268289   3.651   9.593   5.582 -0.5642  0.1145  0.4089
21148SOL     OW68290   4.849   1.755   9.598  0.1450 -0.0240 -0.0212
21148SOL    HW168291   4.877   1.726   9.511 -0.9544  0.7775 -0.6743
21148SOL    HW268292   4.899   1.701   9.659  0.8044 -0.7304 -1.1533
21149SOL     OW68293   7.828   5.588   8.817  0.2914 -0.7091 -0.0438
21149SOL    HW168294   7.740   5.600   8.781 -0.2236 -2.4666  0.5005
21149SOL    HW268295   7.865   5.517   8.764  0.8206 -0.9613  0.6543
21150SOL     OW68296   6.149   8.498   5.021  0.0187 -0.4496 -0.7104
21150SOL    HW168297   6.181   8.526   4.935  0.4061 -0.2091 -0.4917
21150SOL    HW268298   6.091   8.425   5.002  0.3589 -0.6111 -1.1584
21151SOL     OW68299   5.241   7.620   2.414  0.4294  0.7089 -0.3352
21151SOL    HW168300   5.303   7.689   2.390 -0.5085  0.9747 -2.0971
21151SOL    HW268301   5.213   7.643   2.503  2.0574  1.1370  0.1084
21152SOL     OW68302   2.857   4.533   0.120 -0.2007  0.2004  0.2173
21152SOL    HW168303   2.904   4.590   0.181 -0.2958 -0.0586  0.5371
21152SOL    HW268304   2.808   4.473   0.177  0.0696 -0.3384 -0.1144
21153SOL     OW68305   4.528   5.461   2.571 -0.2348 -0.2368  0.1571
21153SOL    HW168306   4.593   5.515   2.615 -0.4903 -0.0996  0.3700
21153SOL    HW268307   4.514   5.387   2.630  1.1268 -1.2681 -0.7568
21154SOL     OW68308   5.119   2.930   8.323  0.2460  0.4884  0.3379
21154SOL    HW168309   5.034   2.892   8.344  0.3492 -0.4837 -0.8607
21154SOL    HW268310   5.170   2.922   8.403 -0.7018  0.8622  0.9947
21155SOL     OW68311   2.549   2.115   2.204 -0.2027 -0.4098 -0.0989
21155SOL    HW168312   2.536   2.068   2.286 -1.0519 -0.9045 -0.5005
21155SOL    HW268313   2.636   2.088   2.175  0.0593 -0.3059  0.5924
21156SOL     OW68314   1.153   4.134   8.477  0.6565 -0.1598 -0.5982
21156SOL    HW168315   1.172   4.103   8.388  1.1520  1.9129 -1.2723
21156SOL    HW268316   1.083   4.077   8.508  1.6770 -2.0617 -1.6258
21157SOL     OW68317   1.728   9.681   2.679  0.8420  0.0558 -1.0231
21157SOL    HW168318   1.815   9.720   2.691 -0.4324  2.6823  0.8085
21157SOL    HW268319   1.686   9.737   2.614 -0.7607  1.3866  1.0424
21158SOL     OW68320   7.070   9.698   2.582  0.3347 -0.3161 -0.3530
21158SOL    HW168321   7.010   9.760   2.623  2.1830  1.2333  0.1448
21158SOL    HW268322   7.091   9.635   2.650 -0.5973 -0.7942 -0.4948
21159SOL     OW68323   1.079   8.263   8.705  0.4052  0.2242 -0.5403
21159SOL    HW168324   1.078   8.179   8.750  3.4123  1.0399  1.3901
21159SOL    HW268325   1.103   8.241   8.615  2.3908 -1.0009  0.2054
21160SOL     OW68326   2.988   9.271   2.603  0.7293 -0.2638 -0.0263
21160SOL    HW168327   3.072   9.270   2.556  1.0034 -0.8027  0.4632
21160SOL    HW268328   2.971   9.179   2.622 -0.0611 -0.1726 -0.2621
21161SOL     OW68329   4.572   2.271   0.076 -0.1364  0.5556  0.0460
21161SOL    HW168330   4.502   2.302   0.134  0.0360  3.0420 -0.9514
21161SOL    HW268331   4.649   2.265   0.134 -0.8494 -1.0069  0.8867
21162SOL     OW68332   2.224   0.483   5.761  0.3706 -0.3579  0.3089
21162SOL    HW168333   2.319   0.490   5.773  0.4166  2.1585 -0.7767
21162SOL    HW268334   2.211   0.504   5.668 -1.4666  3.6215  1.2669
21163SOL     OW68335   3.425   9.591   7.646 -0.2909 -0.0832 -0.0308
21163SOL    HW168336   3.475   9.590   7.565  1.1477 -1.4747  0.8130
21163SOL    HW268337   3.460   9.666   7.695  0.5811 -0.6862  0.2954
21164SOL     OW68338   9.263   5.250   3.450  0.1392  0.5306 -0.1159
21164SOL    HW168339   9.167   5.256   3.449  0.0486 -0.6991 -0.5711
21164SOL    HW268340   9.292   5.338   3.475 -1.1776  0.3428  2.4635
21165SOL     OW68341   0.950   0.875   4.188  0.1188  0.2476  0.3097
21165SOL    HW168342   0.857   0.857   4.202  0.3185 -0.3093  1.0021
21165SOL    HW268343   0.981   0.910   4.272  0.4738  0.7230 -0.0067
21166SOL     OW68344   7.223   3.559   4.055 -0.0289 -0.1054  0.0921
21166SOL    HW168345   7.161   3.631   4.041  0.5795  0.5926  0.9304
21166SOL    HW268346   7.303   3.587   4.011 -0.1678 -0.8531 -0.6808
21167SOL     OW68347   7.759   0.951   1.953 -0.0443 -0.0707  0.1667
21167SOL    HW168348   7.846   0.919   1.928  1.0797  2.4053  0.5841
21167SOL    HW268349   7.720   0.981   1.871 -0.4632 -0.9593  0.0182
21168SOL     OW68350   0.948   2.622   0.872 -0.7540  0.0103 -0.3710
21168SOL    HW168351   0.972   2.714   0.873  0.6387 -0.2762 -1.9138
21168SOL    HW268352   0.853   2.621   0.882 -0.8933  1.6785 -1.2523
21169SOL     OW68353   2.116   6.144   2.331 -0.8871  0.0834  0.4974
21169SOL    HW168354   2.126   6.212   2.397 -0.2254  0.8357 -0.3591
21169SOL    HW268355   2.029   6.158   2.294 -0.9022  0.2141  0.5842
21170SOL     OW68356   9.075   3.343   9.263  0.1295  0.0170  0.0163
21170SOL    HW168357   9.108   3.253   9.273 -1.5649 -0.7911 -1.0229
21170SOL    HW268358   9.145   3.389   9.218  1.8113 -0.2205  2.2398
21171SOL     OW68359   1.279   5.377   8.306  0.8945 -0.1482 -0.3076
21171SOL    HW168360   1.225   5.409   8.234  1.3423  0.1642 -0.5118
21171SOL    HW268361   1.369   5.398   8.280  1.1672 -1.1714 -0.2363
21172SOL     OW68362   7.090   8.729   5.273 -0.2810 -0.3153 -0.0095
21172SOL    HW168363   7.094   8.820   5.302 -2.5197 -0.9565  2.7323
21172SOL    HW268364   7.174   8.715   5.228  1.1744  2.4131  1.5513
21173SOL     OW68365   1.592   8.956   9.533  0.4604 -0.0934  0.7245
21173SOL    HW168366   1.529   8.973   9.604 -0.8673  0.7260 -0.5851
21173SOL    HW268367   1.558   9.006   9.459  1.7738 -0.9657 -0.5134
21174SOL     OW68368   9.430   7.546   0.533 -0.2393  0.1622 -0.2875
21174SOL    HW168369   9.501   7.531   0.471  0.1385  0.3748  0.0787
21174SOL    HW268370   9.359   7.582   0.481 -0.9708 -2.2731 -1.0892
21175SOL     OW68371   0.613   1.463   6.084 -0.1525  0.3463 -0.1799
21175SOL    HW168372   0.545   1.421   6.030 -0.7709  1.7112 -0.4879
21175SOL    HW268373   0.630   1.399   6.153 -0.7530 -0.6078 -0.8732
21176SOL     OW68374   2.888   6.064   0.397  0.1887 -0.2506 -0.1031
21176SOL    HW168375   2.939   6.017   0.332  0.3006 -1.4853  0.8251
21176SOL    HW268376   2.830   6.120   0.347 -0.6388 -2.1097 -1.3290
21177SOL     OW68377   1.335   0.772   8.052 -0.4898  0.2272  0.2887
21177SOL    HW168378   1.317   0.758   8.145  1.5762  0.5369  0.7864
21177SOL    HW268379   1.348   0.684   8.016 -1.6685  0.0826  0.1879
21178SOL     OW68380   6.098   6.920   2.055  0.8927  0.2771  0.2288
21178SOL    HW168381   6.077   7.010   2.080  0.2051 -0.0028  0.6578
21178SOL    HW268382   6.175   6.929   1.997 -0.1184  1.2791 -1.0129
21179SOL     OW68383   6.736   9.297   1.774 -0.0529 -0.0496  0.7206
21179SOL    HW168384   6.708   9.215   1.734  1.0798 -0.1534  0.0896
21179SOL    HW268385   6.753   9.356   1.700 -0.5591  0.6583  1.1548
21180SOL     OW68386   1.385   1.413   5.831  0.5885 -0.1748 -0.0998
21180SOL    HW168387   1.320   1.378   5.771  0.6910  1.1746 -1.0240
21180SOL    HW268388   1.434   1.478   5.780  0.4257  1.3066  1.5156
21181SOL     OW68389   3.308   5.170   4.233  0.4179  0.4980 -0.3161
21181SOL    HW168390   3.347   5.246   4.190  1.1303 -0.0064 -0.5865
21181SOL    HW268391   3.232   5.205   4.279  2.4089  1.9503  2.1036
21182SOL     OW68392   6.390   8.076   8.686  0.2919  0.6220  0.2422
21182SOL    HW168393   6.304   8.055   8.650  0.8919  0.0057 -0.8636
21182SOL    HW268394   6.373   8.092   8.779 -0.8940 -0.2369  0.2005
21183SOL     OW68395   3.146   3.230   6.069  0.3344 -0.2659 -0.4551
21183SOL    HW168396   3.237   3.211   6.090  0.2554 -0.5184 -0.3405
21183SOL    HW268397   3.103   3.144   6.065  0.2136 -0.1887 -1.0182
21184SOL     OW68398   8.790   7.860   0.562 -0.7261  0.1467  0.0101
21184SOL    HW168399   8.815   7.831   0.649 -0.2653  0.9792  0.1657
21184SOL    HW268400   8.694   7.862   0.563 -0.7756 -1.4362 -0.0470
21185SOL     OW68401   6.038   3.504   4.187 -0.4438 -0.4639 -0.0702
21185SOL    HW168402   6.127   3.479   4.164 -0.2560 -0.0468  0.2049
21185SOL    HW268403   6.012   3.566   4.118  0.1795  0.9198  0.9074
21186SOL     OW68404   8.476   2.150   4.900  0.3079 -0.5059  0.0328
21186SOL    HW168405   8.481   2.055   4.914  2.0297 -0.4400  0.0147
21186SOL    HW268406   8.476   2.160   4.805  1.6077 -0.4503  0.0237
21187SOL     OW68407   2.625   6.619   8.809  0.3089 -0.5192  0.0054
21187SOL    HW168408   2.553   6.576   8.855  0.2130 -0.1688  0.1828
21187SOL    HW268409   2.633   6.571   8.726 -0.4151 -0.2826 -0.2094
21188SOL     OW68410   3.650   7.837   6.699  0.0924  0.4145  0.0999
21188SOL    HW168411   3.618   7.926   6.688 -0.9194 -0.1468 -2.1580
21188SOL    HW268412   3.706   7.821   6.623 -1.8652 -1.6856 -1.0299
21189SOL     OW68413   9.243   7.697   6.943 -0.2988  0.5050  0.4688
21189SOL    HW168414   9.238   7.644   6.863  0.0688 -0.0840  0.8288
21189SOL    HW268415   9.164   7.750   6.941 -0.2855  0.5061 -0.2976
21190SOL     OW68416   7.570   3.084   5.545 -0.2412  0.4930  0.0806
21190SOL    HW168417   7.578   3.050   5.634  0.2018  0.5309  0.0557
21190SOL    HW268418   7.635   3.155   5.541 -0.1969  0.4295 -0.3008
21191SOL     OW68419   4.213   6.380   2.108  0.0364 -0.6480  0.2456
21191SOL    HW168420   4.169   6.407   2.027  1.8514  0.2324 -0.5114
21191SOL    HW268421   4.149   6.397   2.177 -0.7560  0.7488 -0.7694
21192SOL     OW68422   1.891   3.150   1.585  0.4838 -0.1079 -0.2941
21192SOL    HW168423   1.921   3.211   1.518  0.4132 -0.5480 -0.7260
21192SOL    HW268424   1.911   3.063   1.550  0.1901 -0.3516  0.1275
21193SOL     OW68425   4.926   5.087   5.401  0.1797 -0.0000 -0.1068
21193SOL    HW168426   4.951   4.995   5.409  2.1470  0.3820 -1.2910
21193SOL    HW268427   4.858   5.087   5.333 -1.5335 -0.7761  1.4976
21194SOL     OW68428   4.984   0.815   7.044 -0.6988 -0.0678 -0.1472
21194SOL    HW168429   4.995   0.749   7.113 -0.9889  0.6219  0.5758
21194SOL    HW268430   5.047   0.883   7.068  0.0309 -0.3386 -1.2245
21195SOL     OW68431   5.922   1.770   4.299  0.7231 -0.5153 -0.4192
21195SOL    HW168432   5.864   1.804   4.367  1.3610 -1.5063  0.6792
21195SOL    HW268433   5.865   1.750   4.226 -0.3831 -1.6702  0.7068
21196SOL     OW68434   2.510   3.651   0.467 -0.3973 -0.0177  0.2579
21196SOL    HW168435   2.601   3.679   0.473 -0.3702  0.2785 -1.2367
21196SOL    HW268436   2.511   3.559   0.494  0.2446  0.1270  0.7471
21197SOL     OW68437   5.734   0.022   4.355  0.0933  0.1546 -0.3338
21197SOL    HW168438   5.817   0.058   4.322 -0.6760 -0.3379 -3.1035
21197SOL    HW268439   5.745  -0.073   4.350 -0.6278  0.0833 -0.7674
21198SOL     OW68440   0.776   3.347   5.055  0.1695 -0.0990 -0.0557
21198SOL    HW168441   0.819   3.428   5.082 -0.0218  0.9820 -2.7024
21198SOL    HW268442   0.848   3.286   5.037  0.3111 -0.6180  1.9459
21199SOL     OW68443   0.787   5.729   2.248 -0.4823 -0.2118  0.1885
21199SOL    HW168444   0.827   5.797   2.194  1.5831 -1.0542  0.5594
21199SOL    HW268445   0.743   5.671   2.186  0.8305 -0.5000 -0.5181
21200SOL     OW68446   8.085   6.087   8.786 -0.2926 -0.6894  0.1411
21200SOL    HW168447   8.035   6.080   8.704 -0.2209  0.0505  0.0314
21200SOL    HW268448   8.036   6.033   8.848 -1.8044  0.7759  0.3096
21201SOL     OW68449   5.683   6.550   3.351 -0.4300  0.6097 -0.3723
21201SOL    HW168450   5.772   6.559   3.385 -0.7269 -1.4680  1.1714
21201SOL    HW268451   5.627   6.573   3.426 -1.1940  1.0418 -1.0630
21202SOL     OW68452   0.267   9.180   9.731 -0.3455 -0.1483 -0.1281
21202SOL    HW168453   0.340   9.185   9.670  0.5661 -1.3612  0.7987
21202SOL    HW268454   0.273   9.260   9.783  1.0173 -0.7212  0.6498
21203SOL     OW68455   4.484   7.636   9.592 -0.4958 -0.4552 -0.5751
21203SOL    HW168456   4.531   7.683   9.523 -0.4670 -0.2235 -0.3973
21203SOL    HW268457   4.525   7.549   9.594  1.4192  0.4006  1.0311
21204SOL     OW68458   9.385   3.675   3.753 -0.0179 -0.5261 -0.4997
21204SOL    HW168459   9.332   3.663   3.673 -0.2656 -1.1449 -0.2510
21204SOL    HW268460   9.323   3.660   3.825  0.4601 -1.0913 -0.2023
21205SOL     OW68461   8.954   1.126   1.559  0.3792 -0.2755  0.1259
21205SOL    HW168462   8.895   1.143   1.633 -0.6579 -0.0074 -0.7267
21205SOL    HW268463   8.907   1.060   1.507  0.2433  0.8275 -1.2041
21206SOL     OW68464   3.345   5.952   5.205 -0.1831 -0.3412 -0.4700
21206SOL    HW168465   3.359   6.004   5.126  0.6872  0.9825  0.5194
21206SOL    HW268466   3.257   5.977   5.234 -0.3668 -0.5736 -0.8115
21207SOL     OW68467   0.342   1.605   3.819  0.0757  0.1358  0.3661
21207SOL    HW168468   0.364   1.604   3.726 -0.9904 -1.9669  0.0732
21207SOL    HW268469   0.411   1.554   3.861 -1.9040 -3.1658 -0.0377
21208SOL     OW68470   3.091   6.995   0.154  0.2210  0.1910  0.1610
21208SOL    HW168471   3.098   7.040   0.070  1.2798  1.8462  1.0850
21208SOL    HW268472   3.052   6.910   0.132 -0.8105  1.0877 -1.8047
21209SOL     OW68473   6.567   1.333   0.685 -0.2135 -0.2997 -0.1047
21209SOL    HW168474   6.638   1.326   0.621 -1.4687  1.1244 -1.7822
21209SOL    HW268475   6.589   1.411   0.736  0.1646 -0.7236  0.3893
21210SOL     OW68476   3.447   9.558   3.701 -0.3920  0.3072 -0.0221
21210SOL    HW168477   3.361   9.529   3.670 -0.8131  0.4751  0.9748
21210SOL    HW268478   3.505   9.543   3.626 -1.6957  2.2895 -1.5410
21211SOL     OW68479   5.931   4.838   1.087  0.1250 -0.7795  0.0885
21211SOL    HW168480   5.873   4.778   1.040  1.2817 -1.2123 -0.8273
21211SOL    HW268481   5.875   4.913   1.109 -0.7003 -1.0225 -1.0813
21212SOL     OW68482   6.112   1.093   4.306 -0.4129 -0.4884  0.2473
21212SOL    HW168483   6.064   1.102   4.224 -1.2031 -0.7549  0.6704
21212SOL    HW268484   6.049   1.053   4.367 -0.1102  0.4693  1.2283
21213SOL     OW68485   8.547   2.819   3.115 -0.4044 -0.6411  0.4088
21213SOL    HW168486   8.489   2.820   3.039  0.2302  2.4254 -0.1892
21213SOL    HW268487   8.633   2.798   3.079 -0.6619 -2.7511  0.9140
21214SOL     OW68488   7.107   3.924   2.699  0.1198  0.0932 -0.3813
21214SOL    HW168489   7.106   3.960   2.788  0.9728  1.2033 -0.8014
21214SOL    HW268490   7.200   3.919   2.676 -0.0466 -1.1959 -0.8249
21215SOL     OW68491   4.441   5.550   9.498 -0.2467 -0.2270 -0.2128
21215SOL    HW168492   4.351   5.555   9.530 -0.0815  1.3888  0.1052
21215SOL    HW268493   4.440   5.478   9.436 -1.4360 -1.1021  0.7663
21216SOL     OW68494   3.484   8.103   8.779 -0.6419 -0.1684  0.1186
21216SOL    HW168495   3.574   8.129   8.801 -0.5100  1.2721 -1.8295
21216SOL    HW268496   3.464   8.032   8.840  1.5984 -0.1455  0.9873
21217SOL     OW68497   9.432   1.433   0.742 -0.4062 -0.5624 -0.7278
21217SOL    HW168498   9.521   1.466   0.757  0.3976 -2.6049 -0.5473
21217SOL    HW268499   9.376   1.509   0.751  1.0726  0.3461  1.8858
21218SOL     OW68500   9.733   2.328   2.246 -0.2314  0.9196 -0.2187
21218SOL    HW168501   9.734   2.251   2.190  0.0557 -0.2788  1.3617
21218SOL    HW268502   9.702   2.296   2.331  0.1829  2.4856  0.5752
21219SOL     OW68503   3.394   7.452   2.776  0.1515 -0.0794  0.1056
21219SOL    HW168504   3.484   7.458   2.745  0.6701 -3.5859  0.5915
21219SOL    HW268505   3.342   7.447   2.696  0.6743 -0.9059 -0.1918
21220SOL     OW68506   8.585   2.792   9.525  0.3208  0.0367  0.0580
21220SOL    HW168507   8.566   2.698   9.526  0.0968  0.0812 -0.1762
21220SOL    HW268508   8.561   2.821   9.437 -0.4133  0.4770  0.3888
21221SOL     OW68509   2.201   7.886   3.817  0.1345  0.5909 -0.7329
21221SOL    HW168510   2.280   7.832   3.822  1.4497  2.4368 -0.6375
21221SOL    HW268511   2.139   7.842   3.874  1.4177 -0.3796 -0.0174
21222SOL     OW68512   8.406   6.959   5.187  0.3148  0.4212 -0.2520
21222SOL    HW168513   8.349   6.920   5.253 -0.6322  1.1919 -0.5914
21222SOL    HW268514   8.358   6.948   5.105 -0.7256  3.5461 -0.1945
21223SOL     OW68515   9.360   7.795   5.734  0.3203 -0.5640  0.2502
21223SOL    HW168516   9.399   7.869   5.782  0.6274 -0.9221  0.5615
21223SOL    HW268517   9.269   7.793   5.763 -0.0810  0.5538 -0.8096
21224SOL     OW68518   7.565   9.695   5.521  0.0219 -0.7208 -0.3152
21224SOL    HW168519   7.658   9.687   5.540  0.5411  0.3495 -2.2020
21224SOL    HW268520   7.553   9.786   5.495 -1.1752 -1.2849 -1.9051
21225SOL     OW68521   7.645   8.829   6.768  0.4532  0.2210  0.3081
21225SOL    HW168522   7.685   8.912   6.796  1.1957 -0.3279  0.9135
21225SOL    HW268523   7.661   8.826   6.674 -1.3283  1.6899 -0.0995
21226SOL     OW68524   6.313   6.465   5.861  0.0005  0.2954  0.1402
21226SOL    HW168525   6.304   6.381   5.816 -0.1670  0.5727 -0.3550
21226SOL    HW268526   6.396   6.500   5.829  0.1221  0.2728  0.4270
21227SOL     OW68527   3.492   6.530   2.616  0.3437  0.1365  0.3387
21227SOL    HW168528   3.443   6.588   2.558 -2.1449 -1.7842  0.3340
21227SOL    HW268529   3.424   6.486   2.668  2.1185 -2.0771  0.9374
21228SOL     OW68530   2.555   0.560   3.849 -0.1516  0.4819 -0.0330
21228SOL    HW168531   2.509   0.476   3.850  0.0305  0.3829  0.1720
21228SOL    HW268532   2.537   0.598   3.934  0.1965  0.4138  0.0725
21229SOL     OW68533   8.945   6.224   4.846  0.7129  0.4522 -0.5001
21229SOL    HW168534   8.941   6.130   4.833  0.4259  0.4121 -0.1424
21229SOL    HW268535   8.870   6.244   4.903  0.2963  1.0088 -1.2167
21230SOL     OW68536   3.290   9.026   5.081 -0.3328 -0.4022  0.8412
21230SOL    HW168537   3.304   9.063   5.168  2.3593 -1.5022  1.0016
21230SOL    HW268538   3.267   9.101   5.027  0.7616  0.8112  1.9695
21231SOL     OW68539   7.902   6.098   3.709 -0.4645  0.2615 -0.4861
21231SOL    HW168540   7.904   6.019   3.763 -0.2400  0.9018  0.4778
21231SOL    HW268541   7.957   6.078   3.633 -1.4652 -0.9538 -0.9093
21232SOL     OW68542   1.465   8.008   4.291  0.3326  0.3398  0.0016
21232SOL    HW168543   1.475   7.917   4.319 -1.2496  0.8091  2.4276
21232SOL    HW268544   1.392   8.007   4.230 -1.1014  0.1915  1.6491
21233SOL     OW68545   1.023   3.086   6.946  0.4342  0.1321  0.0195
21233SOL    HW168546   0.971   3.152   6.901  0.9656  0.2938 -0.3682
21233SOL    HW268547   1.022   3.010   6.888 -2.3070 -1.1858  1.5772
21234SOL     OW68548   8.415   3.272   2.186  0.5521  0.2416 -0.0639
21234SOL    HW168549   8.485   3.208   2.187  0.3146 -0.0348 -0.9242
21234SOL    HW268550   8.336   3.221   2.168  0.1119  0.5383  0.9606
21235SOL     OW68551   8.483   1.893   4.267  0.1622  0.2218  0.2948
21235SOL    HW168552   8.577   1.913   4.258  0.2897 -0.2553  0.5366
21235SOL    HW268553   8.442   1.978   4.280  0.4972  0.4969 -0.3691
21236SOL     OW68554   5.592   8.151   7.605 -0.4298  0.5116  0.0391
21236SOL    HW168555   5.677   8.130   7.567 -0.3421 -1.8002  1.3276
21236SOL    HW268556   5.529   8.101   7.554 -0.5061 -1.1374  1.6664
21237SOL     OW68557   7.294   4.842   4.914 -0.8793  0.5302  0.5443
21237SOL    HW168558   7.379   4.885   4.924  0.1915 -0.7672 -1.9816
21237SOL    HW268559   7.304   4.759   4.960  0.4075 -0.9468 -2.1592
21238SOL     OW68560   5.244   4.272   1.067  0.0385  0.2348 -0.0300
21238SOL    HW168561   5.152   4.257   1.088  0.1217 -1.0523 -0.4862
21238SOL    HW268562   5.292   4.228   1.137  0.2945 -0.8017 -0.8287
21239SOL     OW68563   2.642   7.293   4.885  0.5640  0.6289 -0.1843
21239SOL    HW168564   2.721   7.247   4.858  1.4526  1.7551  0.4333
21239SOL    HW268565   2.633   7.365   4.821 -0.4011  0.0726 -0.7039
21240SOL     OW68566   0.698   8.691   1.236 -0.0498  0.6072 -0.0124
21240SOL    HW168567   0.692   8.636   1.314  0.1671  0.9164  0.2250
21240SOL    HW268568   0.792   8.700   1.220 -0.0996 -0.0361 -0.7275
21241SOL     OW68569   6.213   3.741   8.052 -0.0166  0.2191 -0.0291
21241SOL    HW168570   6.165   3.756   7.971 -0.7688  0.1286  0.3948
21241SOL    HW268571   6.161   3.678   8.100 -0.0415  0.9384  0.9226
21242SOL     OW68572   7.748   9.713   6.294  0.1155  0.7722  0.6003
21242SOL    HW168573   7.802   9.640   6.262 -0.2918 -0.8713  3.3401
21242SOL    HW268574   7.810   9.776   6.329  0.4139 -0.7204  2.9548
21243SOL     OW68575   9.099   7.344   0.057 -0.6034  0.4509 -0.1763
21243SOL    HW168576   9.154   7.332  -0.020 -0.3709  0.9587 -0.0932
21243SOL    HW268577   9.065   7.433   0.049  0.1869  0.8518  0.7948
21244SOL     OW68578   2.833   4.675   7.649  0.5521  0.3956 -0.6567
21244SOL    HW168579   2.863   4.762   7.676  0.9720  0.2002 -0.4695
21244SOL    HW268580   2.913   4.630   7.621  0.2789  0.2103 -1.1558
21245SOL     OW68581   9.375   8.935   3.234 -0.5295  0.2198 -0.6117
21245SOL    HW168582   9.412   9.020   3.258 -1.3263  0.7055 -1.0899
21245SOL    HW268583   9.358   8.941   3.140  2.1566 -1.5091 -1.3472
21246SOL     OW68584   1.760   7.195   3.043  0.0646 -0.5937 -0.0967
21246SOL    HW168585   1.710   7.169   3.120 -0.7813 -0.3173 -0.5342
21246SOL    HW268586   1.699   7.250   2.993  0.9456  0.0827 -0.4490
21247SOL     OW68587   2.727   2.411   6.702 -0.0730 -0.1108 -0.1807
21247SOL    HW168588   2.745   2.337   6.644 -0.6315 -0.5293  0.1687
21247SOL    HW268589   2.744   2.489   6.648  1.1278 -0.4806 -0.3592
21248SOL     OW68590   1.477   7.879   2.421 -0.2500 -0.8462 -0.2260
21248SOL    HW168591   1.455   7.972   2.420  1.7236 -0.3118  0.7969
21248SOL    HW268592   1.429   7.844   2.496  0.3349 -0.2718  0.4255
21249SOL     OW68593   8.151   2.036   0.657  0.4668 -0.0991 -0.0874
21249SOL    HW168594   8.171   2.113   0.603  0.6469  0.5985  0.9610
21249SOL    HW268595   8.223   2.030   0.719  0.0449 -0.6489  0.3629
21250SOL     OW68596   1.229   6.440   1.633  0.0376  0.0183 -0.0683
21250SOL    HW168597   1.274   6.356   1.632 -1.7061 -0.9534 -1.4642
21250SOL    HW268598   1.162   6.432   1.701 -0.2653  0.2201 -0.3408
21251SOL     OW68599   0.088   3.819   1.935 -0.1925 -0.5397  0.3314
21251SOL    HW168600   0.085   3.787   1.845 -2.0221 -0.2369  0.2615
21251SOL    HW268601   0.073   3.913   1.928 -3.6517 -0.9236  1.1061
21252SOL     OW68602   9.175   7.610   9.321 -0.2626 -0.7051  0.0556
21252SOL    HW168603   9.119   7.625   9.397 -0.9005  0.4393 -0.6091
21252SOL    HW268604   9.115   7.615   9.246  0.2996 -2.0947 -0.5177
21253SOL     OW68605   2.078   5.678   3.371  0.0641 -0.6507  0.0422
21253SOL    HW168606   2.025   5.740   3.422 -0.0021 -1.0734  0.4919
21253SOL    HW268607   2.105   5.612   3.434  1.1141 -0.4537 -0.1938
21254SOL     OW68608   5.105   2.970   4.773  0.2307 -0.4713 -0.1486
21254SOL    HW168609   5.044   2.933   4.710 -0.8550 -0.4564  0.8511
21254SOL    HW268610   5.051   3.028   4.828  1.2552 -0.0084  0.4063
21255SOL     OW68611   5.526   0.811   7.954  0.0362  0.1045 -0.1635
21255SOL    HW168612   5.464   0.831   8.024  1.1617  1.3256  0.5240
21255SOL    HW268613   5.584   0.744   7.991  2.1991  2.5099  1.0949
21256SOL     OW68614   7.988   6.781   5.529  0.8752 -0.0902 -0.2454
21256SOL    HW168615   7.986   6.876   5.540  0.6802 -0.1473  0.2781
21256SOL    HW268616   7.909   6.750   5.575  0.1827 -0.3948 -1.5890
21257SOL     OW68617   8.437   0.236   4.868 -0.4193  0.9098  0.0072
21257SOL    HW168618   8.444   0.294   4.943 -2.1780  0.8688  0.2528
21257SOL    HW268619   8.365   0.272   4.816 -1.2817 -0.7750 -0.0472
21258SOL     OW68620   0.252   2.278   2.192 -0.6407 -0.5567 -0.0098
21258SOL    HW168621   0.187   2.242   2.132  0.2211 -0.8728 -0.7752
21258SOL    HW268622   0.267   2.367   2.161 -0.6388 -0.5129  0.1150
21259SOL     OW68623   0.781   3.158   6.817  0.2518  0.0645 -0.8811
21259SOL    HW168624   0.709   3.216   6.791 -0.8960 -1.5699 -1.4654
21259SOL    HW268625   0.745   3.105   6.888  0.2728 -1.9283 -2.2831
21260SOL     OW68626   5.233   5.878   2.885 -0.1099 -0.4532  0.2556
21260SOL    HW168627   5.152   5.908   2.845 -0.0607  0.0650  0.5373
21260SOL    HW268628   5.204   5.824   2.960 -0.1961  0.1545  0.6650
21261SOL     OW68629   8.732   1.762   1.592  0.3378  0.2539  0.2948
21261SOL    HW168630   8.760   1.851   1.571 -1.5917  1.2446  1.6208
21261SOL    HW268631   8.796   1.732   1.656  1.4057  0.4077 -0.6790
21262SOL     OW68632   2.672   2.977   6.578  0.0685 -0.3221 -0.1654
21262SOL    HW168633   2.704   2.928   6.503  0.3059 -0.3497 -0.0487
21262SOL    HW268634   2.731   2.951   6.650  1.0497  1.1373 -0.3993
21263SOL     OW68635   2.106   9.717   5.213  0.4295 -0.4427 -0.2359
21263SOL    HW168636   2.124   9.664   5.135 -0.8068 -0.0213 -0.8349
21263SOL    HW268637   2.058   9.657   5.271 -1.1395  0.0187 -0.9925
21264SOL     OW68638   0.112   9.480   4.580  0.1728  0.0149  0.5006
21264SOL    HW168639   0.142   9.571   4.575 -0.2363  0.0924 -1.3071
21264SOL    HW268640   0.191   9.428   4.564  0.0014  0.1381 -0.8624
21265SOL     OW68641   4.012   6.136   0.297 -0.7520  0.0613  0.2678
21265SOL    HW168642   4.107   6.137   0.284 -0.7557 -2.0467 -0.3579
21265SOL    HW268643   3.983   6.223   0.269  0.9253  0.5992  0.0633
21266SOL     OW68644   5.290   3.982   0.771  0.3374 -0.0830 -0.0611
21266SOL    HW168645   5.232   4.000   0.697 -1.0470 -1.2911  0.6861
21266SOL    HW268646   5.231   3.955   0.842  1.8628 -2.5716  0.3731
21267SOL     OW68647   6.212   4.371   4.966  0.6316 -0.4476 -0.9304
21267SOL    HW168648   6.239   4.443   5.023  1.0222 -0.3626 -1.2164
21267SOL    HW268649   6.200   4.411   4.880 -1.9727 -0.1728 -0.5159
21268SOL     OW68650   8.799   4.329   5.535 -0.2045  0.8445  0.6113
21268SOL    HW168651   8.728   4.338   5.598 -0.2507  0.1440  0.6673
21268SOL    HW268652   8.877   4.361   5.581 -0.5814  2.2716  0.3199
21269SOL     OW68653   4.025   3.403   6.920  0.0126 -0.0860  0.2685
21269SOL    HW168654   3.986   3.457   6.990 -2.0919 -0.4313 -0.5838
21269SOL    HW268655   4.001   3.448   6.839 -0.0423 -1.2497 -0.3698
21270SOL     OW68656   1.169   4.306   5.814 -0.0525  0.3849 -0.3708
21270SOL    HW168657   1.216   4.330   5.734 -0.3298 -2.2018 -1.4210
21270SOL    HW268658   1.080   4.340   5.800 -0.2831 -0.6017 -1.5231
21271SOL     OW68659   7.083   9.734   6.722  0.3851 -0.2014  0.2124
21271SOL    HW168660   7.076   9.822   6.760 -0.7076 -0.2780  0.2427
21271SOL    HW268661   7.004   9.689   6.753  1.8637 -1.8414  1.7942
21272SOL     OW68662   1.096   0.252   3.383 -0.8375  0.0693  0.3148
21272SOL    HW168663   1.165   0.210   3.434 -0.5547  2.3764  2.0217
21272SOL    HW268664   1.109   0.219   3.294  0.9999 -1.3216  1.0261
21273SOL     OW68665   7.712   6.925   5.684  0.0018  0.6983 -0.0807
21273SOL    HW168666   7.800   6.956   5.705  0.3979 -0.1165 -0.5222
21273SOL    HW268667   7.700   6.846   5.737 -0.1292  0.3150 -0.6723
21274SOL     OW68668   9.284   7.827   8.829  0.1459  0.0385 -0.0967
21274SOL    HW168669   9.378   7.845   8.822  0.4548 -1.5896 -0.4680
21274SOL    HW268670   9.277   7.732   8.824 -1.5148  0.1133  0.1978
21275SOL     OW68671   7.869   3.568   2.322 -0.0798 -0.4505  0.7899
21275SOL    HW168672   7.816   3.489   2.331 -0.9783 -0.1547 -1.4492
21275SOL    HW268673   7.900   3.567   2.232  0.6053  1.3150  0.9613
21276SOL     OW68674   2.966   5.595   4.406 -0.1657 -0.1896 -0.3294
21276SOL    HW168675   3.007   5.621   4.489  0.2369 -0.2002 -0.5211
21276SOL    HW268676   3.014   5.644   4.339 -0.9620  0.3687 -0.5017
21277SOL     OW68677   2.178   7.319   3.383 -0.0001 -1.0471 -0.1941
21277SOL    HW168678   2.213   7.408   3.379  0.7275 -1.3686 -1.4206
21277SOL    HW268679   2.174   7.299   3.476 -0.0238  0.2112  0.0895
21278SOL     OW68680   8.648   7.752   8.352 -0.3583 -0.4492 -0.3667
21278SOL    HW168681   8.677   7.784   8.267 -1.3772  0.7940 -0.2847
21278SOL    HW268682   8.722   7.701   8.386  0.2494 -0.5238 -1.7538
21279SOL     OW68683   3.101   6.752   3.718 -0.5983  0.4616 -0.0170
21279SOL    HW168684   3.165   6.783   3.654 -1.2767  0.1218 -0.8840
21279SOL    HW268685   3.063   6.832   3.754  0.3088  0.6645  0.5132
21280SOL     OW68686   1.211   8.421   2.821 -0.5912 -0.3135 -0.2012
21280SOL    HW168687   1.151   8.433   2.748 -0.8660  0.8289  0.1916
21280SOL    HW268688   1.215   8.507   2.863 -2.0286 -1.3929  2.3697
21281SOL     OW68689   4.006   3.884   2.800 -0.2553  0.6338 -0.8263
21281SOL    HW168690   3.923   3.925   2.825 -0.4800  1.0972 -2.2343
21281SOL    HW268691   3.982   3.822   2.731  0.1877 -1.3755  0.7470
21282SOL     OW68692   4.271   3.309   2.885 -0.4127 -0.3501 -0.1348
21282SOL    HW168693   4.219   3.242   2.930 -1.5937 -0.2721 -1.3143
21282SOL    HW268694   4.242   3.304   2.794  0.2258  1.0752 -0.4402
21283SOL     OW68695   9.152   3.284   1.392  0.6605  0.0127 -0.5740
21283SOL    HW168696   9.202   3.261   1.314  2.9050 -0.5830  0.9294
21283SOL    HW268697   9.185   3.225   1.460 -0.0106  1.5966  1.2286
21284SOL     OW68698   3.382   7.910   0.407 -0.4913  0.5295 -0.1912
21284SOL    HW168699   3.405   7.818   0.421  1.1104  1.0329  0.9298
21284SOL    HW268700   3.329   7.911   0.328 -0.9210 -1.4002  0.0290
21285SOL     OW68701   8.952   6.405   2.767  0.6011  1.0136 -0.0897
21285SOL    HW168702   8.865   6.415   2.728 -0.0839  0.0365  1.0769
21285SOL    HW268703   9.007   6.468   2.721 -0.8377  2.0040 -0.5330
21286SOL     OW68704   4.219   4.998   0.678 -0.0501 -0.3368  0.3658
21286SOL    HW168705   4.298   4.946   0.689  0.4540  0.5061  0.8769
21286SOL    HW268706   4.241   5.061   0.610  0.1739  0.7090  1.3681
21287SOL     OW68707   0.475   8.797   9.476 -0.4415  0.5920 -0.0979
21287SOL    HW168708   0.494   8.735   9.405  0.3806  0.5441  0.1562
21287SOL    HW268709   0.488   8.883   9.436 -1.3854  0.6111 -0.3944
21288SOL     OW68710   7.251   9.677   0.776  0.1851 -0.2437  0.5537
21288SOL    HW168711   7.346   9.679   0.765  0.1216 -0.1250  0.0044
21288SOL    HW268712   7.238   9.677   0.871  0.7200  1.6375  0.6680
21289SOL     OW68713   5.078   2.952   6.494 -0.5589 -0.2164 -0.3064
21289SOL    HW168714   5.166   2.981   6.520  0.2148 -0.2302 -2.7045
21289SOL    HW268715   5.021   2.982   6.565  0.7643  3.6539 -0.6433
21290SOL     OW68716   2.128   5.678   9.273 -0.3081 -0.1104 -0.3816
21290SOL    HW168717   2.126   5.753   9.332 -0.0764  0.2051 -0.7709
21290SOL    HW268718   2.038   5.647   9.270 -0.4422  0.2790 -0.3832
21291SOL     OW68719   5.208   7.392   1.126  0.3439 -0.3552  0.3419
21291SOL    HW168720   5.131   7.334   1.131  0.8075 -1.0560 -0.3477
21291SOL    HW268721   5.258   7.372   1.205 -0.4272  0.4825  1.0634
21292SOL     OW68722   7.303   8.734   9.437 -0.9956 -0.3370 -0.1941
21292SOL    HW168723   7.388   8.757   9.475  0.1530 -2.9781 -0.9643
21292SOL    HW268724   7.290   8.799   9.368 -0.6351  1.3527  1.2598
21293SOL     OW68725   6.685   3.079   5.341  0.2539 -0.0664 -0.3448
21293SOL    HW168726   6.753   3.138   5.308  0.9048 -0.0048  1.0605
21293SOL    HW268727   6.625   3.136   5.388  0.5745 -0.4358  0.5257
21294SOL     OW68728   3.261   6.959   2.726 -0.0959 -0.3091  0.4099
21294SOL    HW168729   3.211   6.879   2.711 -2.1969  1.1309 -0.7938
21294SOL    HW268730   3.232   6.989   2.812  1.5468 -1.3271  1.3984
21295SOL     OW68731   3.544   5.936   0.319 -0.0848  0.0145  0.2106
21295SOL    HW168732   3.573   5.929   0.410  1.7313  0.8422 -0.2603
21295SOL    HW268733   3.449   5.939   0.324 -0.1499 -2.4362  1.8990
21296SOL     OW68734   9.609   4.929   7.002  0.0580 -0.2556  0.2086
21296SOL    HW168735   9.560   4.997   6.957  1.1554  0.8855  0.6869
21296SOL    HW268736   9.578   4.933   7.093  0.6528  0.1139  0.3969
21297SOL     OW68737   9.672   3.191   4.630 -0.3110  0.0807 -0.0929
21297SOL    HW168738   9.624   3.255   4.578 -0.9763 -0.6085 -0.3520
21297SOL    HW268739   9.719   3.243   4.695  0.4521  0.9559 -1.2976
21298SOL     OW68740   1.022   4.181   9.044 -0.3582  0.3830  0.0633
21298SOL    HW168741   0.942   4.185   9.096 -1.3354  0.0621 -1.3596
21298SOL    HW268742   1.058   4.095   9.062 -0.4030  0.4734  0.6041
21299SOL     OW68743   7.808   9.427   7.262 -0.0156 -0.3943  0.1340
21299SOL    HW168744   7.870   9.468   7.202  0.1461 -0.2108  0.4236
21299SOL    HW268745   7.812   9.482   7.340 -0.9911 -0.0327 -0.0649
21300SOL     OW68746   6.421   3.186   4.712  0.4052 -0.2051  0.0733
21300SOL    HW168747   6.420   3.090   4.708 -2.1904 -0.3064  1.1926
21300SOL    HW268748   6.512   3.209   4.729  0.8698 -2.5511  1.1141
21301SOL     OW68749   4.536   2.066   2.314 -0.0756 -0.1855  0.0504
21301SOL    HW168750   4.551   1.998   2.380 -0.8641 -0.4277 -0.0119
21301SOL    HW268751   4.590   2.039   2.239 -0.8549 -1.0987 -0.2113
21302SOL     OW68752   3.933   2.558   3.790  0.4106 -0.1264  0.4403
21302SOL    HW168753   3.980   2.475   3.793  0.4465 -0.0881  1.0242
21302SOL    HW268754   3.978   2.613   3.854 -0.2998 -0.0163  0.8435
21303SOL     OW68755   3.647   1.727   6.145  0.2528 -0.3458 -0.8011
21303SOL    HW168756   3.655   1.822   6.153  0.3248 -0.3615 -0.6854
21303SOL    HW268757   3.554   1.709   6.160  0.5662 -0.4901  1.2110
21304SOL     OW68758   1.394   3.918   3.348  0.7612  0.0204 -0.6503
21304SOL    HW168759   1.319   3.975   3.362  0.7590 -0.1710  0.1727
21304SOL    HW268760   1.357   3.840   3.306  0.4920 -0.0590 -0.2782
21305SOL     OW68761   0.471   2.020   8.935  0.0398 -0.5398 -0.7688
21305SOL    HW168762   0.444   2.025   9.027  0.8106  1.1670 -0.5929
21305SOL    HW268763   0.429   2.095   8.893  1.6282  0.1274 -1.2469
21306SOL     OW68764   3.337   2.896   2.832 -0.1948  0.7782  0.7796
21306SOL    HW168765   3.335   2.840   2.909  0.9047 -0.6890 -0.1931
21306SOL    HW268766   3.276   2.856   2.770 -0.6487  1.6233  0.6505
21307SOL     OW68767   1.283   7.448   0.986  0.0883  0.1416 -0.6229
21307SOL    HW168768   1.348   7.401   1.038  0.0992  2.5400  1.7820
21307SOL    HW268769   1.264   7.390   0.912  1.5341 -2.6446  1.0213
21308SOL     OW68770   4.945   4.368   1.399 -0.5091  0.4865 -0.0569
21308SOL    HW168771   4.960   4.328   1.313 -0.2902  2.2942 -0.9296
21308SOL    HW268772   4.855   4.347   1.421  0.0206 -1.6529  0.2255
21309SOL     OW68773   0.934   6.436   1.289 -0.1270 -0.2853  0.0482
21309SOL    HW168774   0.844   6.418   1.262 -0.7076  0.1249  1.6282
21309SOL    HW268775   0.960   6.359   1.340 -0.5441  0.6897  1.8165
21310SOL     OW68776   4.746   5.467   9.197 -0.0266  0.0030  0.4193
21310SOL    HW168777   4.661   5.432   9.171  0.1174 -0.2368  0.2750
21310SOL    HW268778   4.810   5.406   9.161  0.2477  0.6448 -0.2207
21311SOL     OW68779   7.229   2.619   5.567 -0.0648 -0.4569 -0.2435
21311SOL    HW168780   7.233   2.659   5.654 -0.7159 -0.3355 -0.2684
21311SOL    HW268781   7.284   2.541   5.574 -1.1868 -1.1878  0.6605
21312SOL     OW68782   3.563   9.492   2.533 -0.0403 -0.1684  0.0779
21312SOL    HW168783   3.529   9.423   2.477 -1.0759  0.1084  0.3459
21312SOL    HW268784   3.511   9.486   2.613  0.5671  0.2500  0.5108
21313SOL     OW68785   6.159   7.972   1.916  0.1340  0.3361 -0.0688
21313SOL    HW168786   6.248   7.956   1.948  0.0574  0.6590  0.3251
21313SOL    HW268787   6.161   7.943   1.825  0.9420  1.2983 -0.3836
21314SOL     OW68788   7.674   1.705   4.370  0.0970 -0.4397  0.2578
21314SOL    HW168789   7.615   1.645   4.325 -0.7932  1.1835 -0.8713
21314SOL    HW268790   7.625   1.736   4.446 -0.5141  0.7919 -0.5964
21315SOL     OW68791   2.091   1.059   7.498  0.2121  0.6990 -0.6609
21315SOL    HW168792   2.076   1.150   7.469  0.6111  0.9341 -0.1405
21315SOL    HW268793   2.107   1.011   7.417  0.3113  1.1547 -0.9191
21316SOL     OW68794   0.162   2.066   4.901  0.6960  0.2190 -0.1229
21316SOL    HW168795   0.101   2.027   4.963 -0.5017  1.0642 -0.7488
21316SOL    HW268796   0.164   2.006   4.827 -0.6357  0.9923 -0.8004
21317SOL     OW68797   9.397   0.756   9.407 -0.0594  0.5497  0.2699
21317SOL    HW168798   9.459   0.687   9.382  0.0381  0.9485 -0.5953
21317SOL    HW268799   9.331   0.710   9.460  0.5291 -0.0276  0.5164
21318SOL     OW68800   1.267   5.548   4.879 -0.3087  0.5423  0.1502
21318SOL    HW168801   1.224   5.628   4.849 -0.8925  0.9270  1.9379
21318SOL    HW268802   1.280   5.560   4.973  1.2931 -0.6939  0.1419
21319SOL     OW68803   5.643   0.667   7.078  0.2229 -0.0071 -0.6965
21319SOL    HW168804   5.726   0.635   7.115 -0.1745 -0.0369  0.2097
21319SOL    HW268805   5.596   0.587   7.053 -0.3010 -0.1104  0.5321
21320SOL     OW68806   9.285   2.335   3.616  0.3908  0.4385 -0.0070
21320SOL    HW168807   9.362   2.326   3.559  1.0962 -0.7973  1.0788
21320SOL    HW268808   9.321   2.363   3.700 -0.4005  0.3410  0.3749
21321SOL     OW68809   9.483   6.189   1.243 -0.6542 -0.5541 -0.0557
21321SOL    HW168810   9.526   6.168   1.160  0.4265 -2.0965  0.8543
21321SOL    HW268811   9.401   6.140   1.241 -1.2444  0.4347 -0.7401
21322SOL     OW68812   5.273   2.558   5.081  0.6073  0.4247  0.1797
21322SOL    HW168813   5.210   2.629   5.078  0.6975  0.4864 -0.1964
21322SOL    HW268814   5.235   2.489   5.026  0.8329  0.4346  0.0089
21323SOL     OW68815   3.458   8.939   9.358 -0.0034  0.0981  0.3333
21323SOL    HW168816   3.466   8.893   9.442 -0.2735  1.7519  1.3078
21323SOL    HW268817   3.528   9.005   9.360 -1.6412  1.9002  0.4483
21324SOL     OW68818   3.728   5.584   5.677 -0.4209 -0.0203 -0.6639
21324SOL    HW168819   3.772   5.581   5.762  0.8951 -0.6753 -1.3340
21324SOL    HW268820   3.636   5.596   5.698  0.0795  1.7903  0.7927
21325SOL     OW68821   6.023   4.370   5.517 -0.0385 -1.0415 -0.2331
21325SOL    HW168822   5.948   4.316   5.542 -0.0848 -0.7751  0.2182
21325SOL    HW268823   6.091   4.348   5.581  0.3400 -1.4385 -0.7708
21326SOL     OW68824   8.511   7.860   7.435  0.6249  0.2203  0.3971
21326SOL    HW168825   8.586   7.857   7.495  1.4065  1.6814 -0.4716
21326SOL    HW268826   8.467   7.942   7.455 -0.2537 -0.2041  0.2807
21327SOL     OW68827   1.691   3.694   6.108  0.1521 -0.2346  0.0848
21327SOL    HW168828   1.636   3.665   6.035  1.1024  1.0820 -1.1887
21327SOL    HW268829   1.692   3.618   6.168 -0.8647 -1.2409 -1.1106
21328SOL     OW68830   7.736   3.743   0.546 -0.4022  0.2545 -0.5311
21328SOL    HW168831   7.711   3.772   0.458  2.6591  1.6718 -1.0606
21328SOL    HW268832   7.736   3.647   0.540  0.7015  0.3095 -2.4443
21329SOL     OW68833   6.843   7.116   2.968 -0.7428 -0.1679  0.0072
21329SOL    HW168834   6.751   7.105   2.944 -1.0621  0.0506  1.0760
21329SOL    HW268835   6.848   7.203   3.007 -0.3772 -0.7153  1.2353
21330SOL     OW68836   3.766   8.861   8.426 -0.7120 -0.6111 -0.2730
21330SOL    HW168837   3.749   8.955   8.436  2.5823  0.4111 -2.6139
21330SOL    HW268838   3.704   8.833   8.359 -0.3100  0.4639 -1.1273
21331SOL     OW68839   8.812   0.350   8.991  0.1227  0.7405  0.4008
21331SOL    HW168840   8.800   0.427   9.046  0.8135 -0.5987  2.5417
21331SOL    HW268841   8.899   0.317   9.014  0.4438  0.0935 -1.5185
21332SOL     OW68842   3.271   6.461   0.844 -0.0163 -0.4356  0.5269
21332SOL    HW168843   3.262   6.373   0.809  0.1596  0.3318 -1.6066
21332SOL    HW268844   3.182   6.493   0.855 -0.1165 -0.0066 -1.2004
21333SOL     OW68845   6.194   1.638   7.073 -0.2001 -0.2645 -0.2461
21333SOL    HW168846   6.249   1.702   7.027 -0.4140 -1.3318 -2.1065
21333SOL    HW268847   6.193   1.561   7.015  0.8644 -2.3800  2.3780
21334SOL     OW68848   6.711   9.459   6.102 -0.0022 -0.1144  0.5090
21334SOL    HW168849   6.803   9.478   6.087 -0.5937  1.5059 -1.4841
21334SOL    HW268850   6.711   9.373   6.145  2.3623 -1.1449 -1.3135
21335SOL     OW68851   9.698   7.392   9.051 -0.7228 -0.4477  0.4010
21335SOL    HW168852   9.779   7.421   9.009 -0.3138  1.3482  2.2490
21335SOL    HW268853   9.667   7.319   8.996 -0.2938  1.6839 -2.9660
21336SOL     OW68854   4.251   2.930   3.133 -0.1653 -0.1413 -0.0918
21336SOL    HW168855   4.273   2.840   3.159  0.7520 -0.6860 -2.5491
21336SOL    HW268856   4.227   2.973   3.216  0.2612 -2.3703  1.2782
21337SOL     OW68857   9.219   9.163   8.906 -0.2164  0.2600  0.0096
21337SOL    HW168858   9.283   9.146   8.837 -0.8436 -0.1808 -0.4782
21337SOL    HW268859   9.268   9.150   8.988  0.7291  1.5292 -0.3237
21338SOL     OW68860   1.662   9.603   7.457 -0.2365  0.2392 -0.3701
21338SOL    HW168861   1.745   9.558   7.437 -0.7743 -0.9452 -0.0319
21338SOL    HW268862   1.600   9.568   7.392 -0.2276  1.9953 -1.3837
21339SOL     OW68863   1.441   3.469   5.605 -0.7679 -0.6910  0.0568
21339SOL    HW168864   1.524   3.423   5.594  1.5692  2.8873  1.1147
21339SOL    HW268865   1.406   3.435   5.688  1.0361 -0.3798  0.9861
21340SOL     OW68866   6.774   0.897   7.390 -0.2062  0.0958  0.6989
21340SOL    HW168867   6.760   0.804   7.409 -0.1810  0.3258  1.9242
21340SOL    HW268868   6.866   0.912   7.408 -0.4485  0.5870  1.5898
21341SOL     OW68869   3.402   3.078   7.285  0.1292  0.8110  0.2454
21341SOL    HW168870   3.463   3.148   7.308  0.1430  1.0047 -0.3640
21341SOL    HW268871   3.419   3.009   7.348  0.3246  1.2408  0.6647
21342SOL     OW68872   6.821   9.019   0.542  0.0471 -0.5535  0.9070
21342SOL    HW168873   6.904   8.977   0.566  1.7495  1.5896 -0.7917
21342SOL    HW268874   6.826   9.106   0.581 -1.6477 -0.5253  1.1362
21343SOL     OW68875   4.975   9.070   6.836 -0.1079 -0.0456  0.1324
21343SOL    HW168876   4.973   8.980   6.804  1.4741  0.0344 -0.2794
21343SOL    HW268877   4.914   9.117   6.779  1.0269 -0.3500 -1.3950
21344SOL     OW68878   4.844   7.973   3.101  0.1952  0.2046  0.5599
21344SOL    HW168879   4.937   7.952   3.095 -0.4164 -3.2754  1.1902
21344SOL    HW268880   4.806   7.934   3.022 -0.7197  2.0772  0.0157
21345SOL     OW68881   6.834   2.046   3.497  0.4425  0.5278 -0.5377
21345SOL    HW168882   6.804   2.022   3.409  0.8369 -0.1972 -0.4869
21345SOL    HW268883   6.895   1.976   3.521  0.8835  1.0926  0.0290
21346SOL     OW68884   2.364   8.361   2.256  0.4064  0.5653  0.0892
21346SOL    HW168885   2.440   8.406   2.292 -0.3222 -0.0800  2.6163
21346SOL    HW268886   2.334   8.418   2.185  3.6672  0.4291 -1.5993
21347SOL     OW68887   5.350   2.738   8.263 -0.3266  0.5229  0.4041
21347SOL    HW168888   5.256   2.735   8.282 -0.5713  1.0466 -0.6300
21347SOL    HW268889   5.363   2.824   8.222  0.5561  0.3546  0.3271
21348SOL     OW68890   7.407   8.984   0.362  0.4016 -0.6001  0.0135
21348SOL    HW168891   7.468   9.038   0.413 -1.4062  1.0191  0.5731
21348SOL    HW268892   7.432   8.894   0.383  0.9378  0.0113  2.2914
21349SOL     OW68893   3.624   4.267   6.277 -0.0826  0.1703 -0.1613
21349SOL    HW168894   3.599   4.214   6.353  0.3121  0.1921 -0.0141
21349SOL    HW268895   3.551   4.258   6.216 -0.5623  0.4261  0.3623
21350SOL     OW68896   4.743   4.070   2.671 -0.2050  0.0520  0.1579
21350SOL    HW168897   4.689   4.131   2.622  1.7111  1.1707 -0.6935
21350SOL    HW268898   4.821   4.120   2.694  1.3146 -1.9517 -0.2977
21351SOL     OW68899   0.319   3.177   6.650 -0.3885  0.1377 -0.3836
21351SOL    HW168900   0.239   3.228   6.636  0.6525  1.5902 -1.4367
21351SOL    HW268901   0.299   3.119   6.723 -1.5571  2.3041  1.1378
21352SOL     OW68902   1.533   3.480   7.184 -0.2747 -0.4116 -0.9214
21352SOL    HW168903   1.519   3.399   7.233 -0.2170 -0.1860 -0.5264
21352SOL    HW268904   1.601   3.527   7.233 -0.7883  0.1861 -0.7600
21353SOL     OW68905   4.419   3.503   8.196 -0.1618  0.0061 -0.3336
21353SOL    HW168906   4.403   3.435   8.130 -0.4035 -2.5369  2.1754
21353SOL    HW268907   4.332   3.541   8.213 -0.5468 -1.1060  0.2859
21354SOL     OW68908   7.321   5.865   1.538  0.0895 -0.3665 -0.4569
21354SOL    HW168909   7.273   5.789   1.505 -0.5292 -0.4264  0.5171
21354SOL    HW268910   7.255   5.916   1.585  1.2569 -1.5035  2.7277
21355SOL     OW68911   8.824   3.511   1.500  0.7503  0.0377 -0.4570
21355SOL    HW168912   8.814   3.600   1.466  0.2966  0.0617 -0.2667
21355SOL    HW268913   8.849   3.522   1.591 -0.8846 -0.0118  0.0287
21356SOL     OW68914   8.818   3.657   3.878 -0.4604 -0.8564 -0.1356
21356SOL    HW168915   8.803   3.676   3.785  1.3512  2.1182  0.0286
21356SOL    HW268916   8.801   3.741   3.922  1.7561 -1.3126  1.7588
21357SOL     OW68917   0.121   0.866   4.630 -0.1614 -0.0439  0.1652
21357SOL    HW168918   0.038   0.830   4.662 -1.2286  0.8873 -1.4300
21357SOL    HW268919   0.111   0.869   4.535  1.4021  0.8447 -0.0081
21358SOL     OW68920   8.466   3.381   5.462 -0.2694  0.1984  0.1318
21358SOL    HW168921   8.400   3.445   5.433  0.2178  0.2006 -1.0036
21358SOL    HW268922   8.414   3.309   5.498 -0.9972 -0.4124 -1.9813
21359SOL     OW68923   8.585   2.234   6.563 -0.6199  0.1816 -0.3279
21359SOL    HW168924   8.580   2.170   6.491  1.1162  1.0347 -1.2675
21359SOL    HW268925   8.641   2.304   6.529  0.5135  0.4785  1.9617
21360SOL     OW68926   7.308   4.261   5.304 -0.0607 -0.0243 -0.2631
21360SOL    HW168927   7.323   4.265   5.398 -0.3044  1.5153 -0.2683
21360SOL    HW268928   7.254   4.183   5.292 -2.4568  1.2752  1.2388
21361SOL     OW68929   1.309   5.134   4.739 -0.3986 -0.4311  0.5922
21361SOL    HW168930   1.264   5.217   4.749 -0.0631 -0.0156 -1.0352
21361SOL    HW268931   1.248   5.078   4.691 -0.4920 -1.0363  1.3802
21362SOL     OW68932   9.126   1.145   9.726 -0.9900  0.3595  0.2012
21362SOL    HW168933   9.185   1.129   9.652  0.0138 -0.3062  1.1167
21362SOL    HW268934   9.100   1.237   9.716 -1.6310  0.0268 -1.4918
21363SOL     OW68935   4.543   5.775   8.859  0.7303 -0.1638  0.5265
21363SOL    HW168936   4.562   5.846   8.797 -0.9679  0.8487  1.1022
21363SOL    HW268937   4.537   5.819   8.944 -1.0053 -0.8476  0.8012
21364SOL     OW68938   4.922   8.333   2.413  0.1949  0.4167 -0.2075
21364SOL    HW168939   4.938   8.284   2.333 -0.0828  0.5307 -0.3351
21364SOL    HW268940   4.844   8.385   2.394  1.3745  2.1224 -0.6408
21365SOL     OW68941   5.371   8.726   1.803 -0.5644 -0.4557  0.3721
21365SOL    HW168942   5.323   8.718   1.721 -1.5376 -2.1992  1.0520
21365SOL    HW268943   5.371   8.820   1.822 -0.0810  0.0076 -1.7267
21366SOL     OW68944   8.320   7.572   1.038 -0.3855  0.3045 -0.1864
21366SOL    HW168945   8.322   7.614   0.952 -0.1370  2.6850  0.8819
21366SOL    HW268946   8.323   7.645   1.100  1.9963 -1.3415  1.8736
21367SOL     OW68947   6.464   2.073   4.376 -0.3695 -0.4833 -0.0121
21367SOL    HW168948   6.411   2.006   4.333 -0.6086 -0.6630  0.5555
21367SOL    HW268949   6.401   2.127   4.423 -0.0611 -0.6792  0.6417
21368SOL     OW68950   0.303   8.042   6.422 -0.3372 -0.1223  0.1946
21368SOL    HW168951   0.379   8.062   6.475  0.4485  0.8409 -1.2299
21368SOL    HW268952   0.235   8.017   6.485  1.1058 -0.9140  1.4964
21369SOL     OW68953   7.206   1.822   9.725 -0.4973  0.4283 -0.7416
21369SOL    HW168954   7.274   1.760   9.751 -0.4275 -0.1533 -2.1679
21369SOL    HW268955   7.239   1.861   9.644 -1.3847  0.9315 -0.8783
21370SOL     OW68956   4.565   3.084   1.875 -0.2177  0.4561 -0.4441
21370SOL    HW168957   4.514   3.114   1.799 -1.8628 -0.2782  0.3276
21370SOL    HW268958   4.563   2.988   1.869 -0.7703  0.3735  0.7664
21371SOL     OW68959   8.256   1.343   2.643 -0.3303  0.1279 -0.4865
21371SOL    HW168960   8.295   1.256   2.651 -0.4500 -0.0185 -1.3751
21371SOL    HW268961   8.272   1.368   2.552  0.6572  1.5088  0.0449
21372SOL     OW68962   0.185   6.187   6.474 -0.1844 -0.0493 -0.1774
21372SOL    HW168963   0.219   6.134   6.402 -1.8762  0.3514 -1.3354
21372SOL    HW268964   0.093   6.202   6.451 -1.0836 -0.7327  2.5333
21373SOL     OW68965   2.911   9.222   3.842  0.2391 -0.2851  0.1437
21373SOL    HW168966   2.955   9.201   3.924  0.7386  2.7781  0.7912
21373SOL    HW268967   2.978   9.211   3.775  0.9159  0.6323  0.6413
21374SOL     OW68968   2.310   2.305   9.168  0.1545 -0.2968 -0.0424
21374SOL    HW168969   2.283   2.324   9.258 -1.2839  1.5939 -0.7941
21374SOL    HW268970   2.366   2.228   9.175  1.2605  0.6409  2.6371
21375SOL     OW68971   9.005   1.817   3.549  0.2095  0.2186 -0.5108
21375SOL    HW168972   8.953   1.896   3.534  0.3896  0.1978 -1.2927
21375SOL    HW268973   9.084   1.848   3.592 -0.7314  0.1691  1.3489
21376SOL     OW68974   1.903   7.132   6.969 -0.0934 -0.2233 -0.2206
21376SOL    HW168975   1.825   7.084   6.997  0.4629 -0.5138  0.8875
21376SOL    HW268976   1.976   7.075   6.993  0.5192  0.6026 -0.0814
21377SOL     OW68977   0.167   8.535   0.356  0.1400  0.2601 -0.1011
21377SOL    HW168978   0.173   8.627   0.330 -1.0780  0.2630 -0.4032
21377SOL    HW268979   0.128   8.537   0.443  0.1738  0.0341 -0.0802
21378SOL     OW68980   3.667   8.279   2.684 -0.3377  0.3161  0.0381
21378SOL    HW168981   3.650   8.285   2.590 -0.3382  0.4018  0.0434
21378SOL    HW268982   3.760   8.300   2.693 -0.4488  0.8016  0.1056
21379SOL     OW68983   6.389   1.814   7.978  0.4605  0.1120 -0.0674
21379SOL    HW168984   6.455   1.852   7.920 -0.0949  2.6719  0.8347
21379SOL    HW268985   6.425   1.825   8.066 -0.7645  0.8070  0.3785
21380SOL     OW68986   3.364   3.447   1.861  0.2371  0.0551 -0.5191
21380SOL    HW168987   3.343   3.458   1.953 -0.5588 -0.1467 -0.6666
21380SOL    HW268988   3.447   3.398   1.860 -0.0341 -0.4234  0.0849
21381SOL     OW68989   1.948   1.964   9.672 -0.1538  0.3708  0.0917
21381SOL    HW168990   1.981   1.950   9.761 -0.8001  0.4752  0.3510
21381SOL    HW268991   1.862   1.922   9.672 -0.7375  1.5148 -0.0767
21382SOL     OW68992   5.643   7.026   0.426 -0.2996 -0.3365  0.6352
21382SOL    HW168993   5.560   7.041   0.470 -0.1288 -3.0731  2.1220
21382SOL    HW268994   5.695   6.976   0.488  1.8450 -0.1704 -0.8991
21383SOL     OW68995   8.330   6.599   6.056 -0.5296  0.2868  0.8196
21383SOL    HW168996   8.416   6.638   6.043 -1.6919  2.4768 -1.0851
21383SOL    HW268997   8.328   6.524   5.997 -0.5176  1.3061 -0.5104
21384SOL     OW68998   5.625   3.769   7.619 -0.3817  0.1282 -0.6218
21384SOL    HW168999   5.684   3.830   7.662 -1.3196  0.8638 -0.3601
21384SOL    HW269000   5.597   3.709   7.688  0.9669 -0.9821 -0.9866
21385SOL     OW69001   8.796   4.442   2.018 -0.7002  0.5918  0.0344
21385SOL    HW169002   8.848   4.492   1.955 -0.9367 -0.3488 -0.9367
21385SOL    HW269003   8.860   4.390   2.065 -0.0190  3.8978  3.2329
21386SOL     OW69004   0.176   7.495   8.925 -0.3138 -0.1774  0.0586
21386SOL    HW169005   0.170   7.569   8.986 -0.2207  0.3087 -0.5061
21386SOL    HW269006   0.192   7.536   8.840 -2.8356 -0.6895 -0.7365
21387SOL     OW69007   1.131   8.343   3.076  0.2128  0.4254  0.1610
21387SOL    HW169008   1.201   8.289   3.113  1.4363  0.9755 -1.2210
21387SOL    HW269009   1.163   8.366   2.988 -0.9833  2.0705  0.1092
21388SOL     OW69010   4.926   3.327   5.061 -0.1380  0.3723 -0.0613
21388SOL    HW169011   4.834   3.346   5.042 -0.4454 -0.3335  0.6401
21388SOL    HW269012   4.959   3.407   5.103 -0.1073  1.0431 -1.3247
21389SOL     OW69013   1.340   2.525   5.359  0.2601 -0.1135  0.2547
21389SOL    HW169014   1.272   2.591   5.344  0.4241  0.3930  1.5698
21389SOL    HW269015   1.378   2.549   5.443 -0.8020 -2.8582  1.6398
21390SOL     OW69016   1.883   0.734   5.561 -0.1120 -0.9438 -0.0804
21390SOL    HW169017   1.839   0.819   5.566 -1.6470 -1.7081  0.1158
21390SOL    HW269018   1.926   0.735   5.476 -0.5369 -0.1599 -0.3048
21391SOL     OW69019   6.627   0.312   1.308 -0.2682 -0.1982  0.0156
21391SOL    HW169020   6.552   0.294   1.366 -0.1708  0.4995  0.3668
21391SOL    HW269021   6.600   0.389   1.258  0.0388 -0.2110 -0.1683
21392SOL     OW69022   0.663   0.548   7.589  0.5713  0.1035 -0.5514
21392SOL    HW169023   0.637   0.596   7.668 -0.4662 -0.3165 -0.6242
21392SOL    HW269024   0.759   0.542   7.595  0.5151  0.1704  0.6223
21393SOL     OW69025   7.808   5.269   8.867 -0.1830  0.4111 -0.5051
21393SOL    HW169026   7.732   5.250   8.813 -1.5590  3.5199  0.0900
21393SOL    HW269027   7.862   5.327   8.813  0.0466  0.9399  0.2740
21394SOL     OW69028   7.032   5.652   8.315 -0.5381  0.4339 -0.0162
21394SOL    HW169029   6.988   5.727   8.355 -0.3224  0.8287 -0.5005
21394SOL    HW269030   7.106   5.691   8.267 -0.5114 -0.0722 -0.3949
21395SOL     OW69031   9.634   0.831   4.044 -0.5693  0.1441  0.4124
21395SOL    HW169032   9.684   0.788   3.975  0.2546  0.6308  0.6933
21395SOL    HW269033   9.546   0.840   4.008 -0.5053 -0.8805 -0.0201
21396SOL     OW69034   3.354   2.251   3.843 -0.0530  0.0978 -0.2255
21396SOL    HW169035   3.311   2.306   3.779  0.4207  0.5622 -0.1570
21396SOL    HW269036   3.285   2.194   3.878 -0.3397 -0.0493 -1.0257
21397SOL     OW69037   2.697   6.283   2.801 -0.1729  0.2673 -0.2821
21397SOL    HW169038   2.771   6.293   2.861  0.0680 -1.3598 -0.2474
21397SOL    HW269039   2.631   6.343   2.834  0.4305  0.3470  0.8427
21398SOL     OW69040   3.977   4.432   1.584 -1.1517 -0.1063  0.2021
21398SOL    HW169041   3.896   4.480   1.597 -0.5185  0.9519  0.3410
21398SOL    HW269042   3.998   4.396   1.670 -0.2375  1.6469  0.7561
21399SOL     OW69043   2.463   5.795   4.810 -0.1744  0.2329 -0.2372
21399SOL    HW169044   2.539   5.826   4.761  0.6468 -0.4665  0.5783
21399SOL    HW269045   2.471   5.837   4.895 -0.9797  0.5376 -0.2979
21400SOL     OW69046   6.784   5.731   5.885 -0.4134 -0.4773  0.2180
21400SOL    HW169047   6.857   5.758   5.941  0.2315  0.3119 -0.9681
21400SOL    HW269048   6.823   5.671   5.821 -0.7534  0.0886 -0.5354
21401SOL     OW69049   8.604   5.401   0.837 -0.2434  0.0580  0.0261
21401SOL    HW169050   8.688   5.388   0.794 -0.3017 -1.5023  0.2940
21401SOL    HW269051   8.539   5.398   0.767 -0.2207 -0.9893  0.0240
21402SOL     OW69052   4.299   8.081   2.551 -0.0848  0.2183 -0.2037
21402SOL    HW169053   4.263   8.062   2.638 -3.7894 -0.3283 -1.6848
21402SOL    HW269054   4.389   8.049   2.556 -0.7622 -1.7303  2.8109
21403SOL     OW69055   9.011   2.407   7.537 -0.8333 -0.3766 -0.2739
21403SOL    HW169056   9.091   2.454   7.512 -1.4040  0.1832 -1.1169
21403SOL    HW269057   8.988   2.443   7.623  0.3020 -1.1936  0.3889
21404SOL     OW69058   5.435   5.412   3.831  0.8579 -0.2532  0.0020
21404SOL    HW169059   5.344   5.383   3.821  1.2491 -1.8122  0.7362
21404SOL    HW269060   5.484   5.332   3.850  2.2848  0.6620  0.3039
21405SOL     OW69061   3.790   3.611   7.757  0.1578  0.3842  0.0901
21405SOL    HW169062   3.873   3.579   7.791 -0.3350 -0.5160  0.4834
21405SOL    HW269063   3.797   3.601   7.662  1.0683  1.7576 -0.0186
21406SOL     OW69064   9.245   1.094   7.886  0.2374 -0.3433  0.3173
21406SOL    HW169065   9.327   1.125   7.847  1.0543 -0.5308  1.8065
21406SOL    HW269066   9.271   1.058   7.971 -1.5460  0.6746  1.3439
21407SOL     OW69067   3.385   4.659   7.824  0.2118 -0.0333  0.2138
21407SOL    HW169068   3.434   4.630   7.747 -1.0644  0.3654 -0.7809
21407SOL    HW269069   3.451   4.668   7.893  1.2395 -1.2761 -0.5760
21408SOL     OW69070   6.959   1.539   3.407 -0.9118  0.2537 -0.0641
21408SOL    HW169071   7.024   1.576   3.347 -0.5454  0.2810  0.3366
21408SOL    HW269072   6.880   1.591   3.392 -0.2050  1.7206  1.0066
21409SOL     OW69073   6.512   9.177   7.650 -0.2192  0.1542  0.5105
21409SOL    HW169074   6.430   9.204   7.691 -1.3011 -1.2971 -0.5728
21409SOL    HW269075   6.485   9.123   7.575  1.7286 -0.7642  0.3944
21410SOL     OW69076   4.871   4.756   3.206  0.0559  0.0683  0.0949
21410SOL    HW169077   4.775   4.749   3.210  0.1334 -0.1455  2.5516
21410SOL    HW269078   4.896   4.797   3.288  2.1736 -0.8443 -0.0346
21411SOL     OW69079   3.155   7.973   4.759 -0.0023  0.2452 -0.1206
21411SOL    HW169080   3.244   7.995   4.786  0.8024 -1.8941 -0.8538
21411SOL    HW269081   3.134   7.893   4.807 -1.2391  0.2628 -0.5799
21412SOL     OW69082   8.479   5.063   5.833 -0.0525  0.0620  0.2628
21412SOL    HW169083   8.454   5.127   5.899 -0.6469  0.5215 -0.3948
21412SOL    HW269084   8.484   5.113   5.751  1.6724 -0.2912  0.1197
21413SOL     OW69085   8.972   3.349   2.322 -0.4799 -0.3707  0.1278
21413SOL    HW169086   9.059   3.310   2.314 -0.7566 -0.8670 -0.5013
21413SOL    HW269087   8.938   3.314   2.405  0.3433  0.7131  0.9709
21414SOL     OW69088   3.244   2.930   6.767  0.3457 -0.1310 -0.0215
21414SOL    HW169089   3.201   2.845   6.780  0.9543 -0.4502 -0.0813
21414SOL    HW269090   3.336   2.914   6.785  0.6790  0.2118 -1.3257
21415SOL     OW69091   1.655   5.522   6.199 -0.5238  0.2234 -0.3224
21415SOL    HW169092   1.741   5.496   6.166  0.1388  0.9219  0.7846
21415SOL    HW269093   1.641   5.468   6.277 -0.3758  1.1609  0.3857
21416SOL     OW69094   8.057   4.762   3.584  0.4408 -0.2601  0.1456
21416SOL    HW169095   8.117   4.731   3.517  0.6380 -1.5871  0.8933
21416SOL    HW269096   8.105   4.831   3.630  1.0315 -0.6520  0.1237
21417SOL     OW69097   7.186   7.333   4.461  0.1771 -0.5412  0.0860
21417SOL    HW169098   7.100   7.359   4.427 -0.2116 -0.2235  1.2556
21417SOL    HW269099   7.220   7.413   4.501  1.2726 -0.5257 -0.8316
21418SOL     OW69100   1.306   0.529   9.464  0.6508  0.3080  0.3025
21418SOL    HW169101   1.349   0.603   9.507 -0.6371  1.4755 -0.3724
21418SOL    HW269102   1.221   0.521   9.507  0.4465 -0.2634 -0.1908
21419SOL     OW69103   7.617   8.226   7.376 -0.5758  0.4581  0.4619
21419SOL    HW169104   7.710   8.248   7.370 -0.3389 -0.5207  0.2774
21419SOL    HW269105   7.598   8.226   7.470 -0.1571 -0.2178  0.5541
21420SOL     OW69106   9.080   4.471   8.029 -0.1746 -0.0624  0.4040
21420SOL    HW169107   9.071   4.393   8.084  0.5048 -0.9841 -0.7637
21420SOL    HW269108   8.990   4.493   8.005 -0.2851 -1.5025 -0.6198
21421SOL     OW69109   7.773   9.710   3.436 -1.0542 -0.1533  0.1257
21421SOL    HW169110   7.759   9.616   3.444 -0.8496 -0.8621 -4.8682
21421SOL    HW269111   7.867   9.720   3.421 -1.2976  0.5741 -1.1024
21422SOL     OW69112   1.674   3.961   6.577  0.2886 -0.4289  0.3853
21422SOL    HW169113   1.683   3.872   6.611 -0.3307 -0.9566 -0.7725
21422SOL    HW269114   1.757   3.979   6.534  0.2603 -0.6035  0.2595
21423SOL     OW69115   5.968   7.868   4.860 -0.3180 -0.3915 -0.1920
21423SOL    HW169116   5.916   7.928   4.809  2.2339  2.1335 -0.0937
21423SOL    HW269117   5.965   7.785   4.812 -0.6436  0.9693 -2.6434
21424SOL     OW69118   4.829   1.943   0.988  0.8832  0.1863 -0.0586
21424SOL    HW169119   4.754   1.903   1.033  2.6514 -1.9230  1.2341
21424SOL    HW269120   4.862   2.008   1.050  1.3764 -0.4303  0.3456
21425SOL     OW69121   4.227   7.430   5.134 -0.2289 -0.7391  0.1050
21425SOL    HW169122   4.293   7.462   5.196  0.7861  1.1933 -1.8337
21425SOL    HW269123   4.151   7.486   5.149 -0.1670 -0.6190 -0.0251
21426SOL     OW69124   0.927   1.929   8.896  0.5235  0.4726  0.7025
21426SOL    HW169125   0.990   1.975   8.840  0.3449  1.4567  1.2970
21426SOL    HW269126   0.881   1.998   8.943 -1.1524 -0.2054  0.1470
21427SOL     OW69127   1.255   5.745   6.046  0.6277 -0.5351 -0.6521
21427SOL    HW169128   1.258   5.682   6.118 -0.8337  0.6095  0.4943
21427SOL    HW269129   1.346   5.752   6.016  1.2924 -1.0648  1.0971
21428SOL     OW69130   5.208   2.121   4.185 -0.6271  0.0717 -0.0117
21428SOL    HW169131   5.168   2.086   4.105 -0.7456  0.1619  0.0075
21428SOL    HW269132   5.290   2.161   4.155 -0.4424 -0.3020 -0.0210
21429SOL     OW69133   4.309   6.322   1.490  0.7283  0.1657 -0.1443
21429SOL    HW169134   4.214   6.324   1.491  0.5101 -3.0356 -1.4524
21429SOL    HW269135   4.333   6.258   1.557  1.6881 -1.4479 -1.9183
21430SOL     OW69136   2.894   7.804   3.504 -0.5142  0.3498  0.4249
21430SOL    HW169137   2.829   7.854   3.454 -0.9357 -0.3452  0.2590
21430SOL    HW269138   2.971   7.860   3.505 -0.3005  0.1572 -1.4975
21431SOL     OW69139   5.049   9.292   7.565 -0.0228  0.6203 -0.3780
21431SOL    HW169140   5.060   9.198   7.572 -0.0955  0.7352  5.1359
21431SOL    HW269141   4.963   9.303   7.524 -1.2019 -1.8819  1.1854
21432SOL     OW69142   4.142   0.034   2.227 -0.1279 -0.0196  0.0323
21432SOL    HW169143   4.134  -0.003   2.140  1.5131 -2.0469  0.6606
21432SOL    HW269144   4.091  -0.025   2.283  0.3807  0.1551  0.6954
21433SOL     OW69145   0.480   7.846   8.277  0.5134 -0.8192  0.2180
21433SOL    HW169146   0.503   7.825   8.368  0.2585  1.3224  0.8345
21433SOL    HW269147   0.528   7.781   8.225  1.7577 -1.2615  1.8132
21434SOL     OW69148   7.518   7.400   6.873  0.0883  0.4468  0.3699
21434SOL    HW169149   7.489   7.483   6.835 -0.3426 -0.2692 -0.9318
21434SOL    HW269150   7.559   7.425   6.956 -0.8800  1.8549  0.4662
21435SOL     OW69151   8.558   5.881   1.063 -0.0589  0.1180 -0.1075
21435SOL    HW169152   8.536   5.907   0.974 -1.2691  1.1603  0.4624
21435SOL    HW269153   8.498   5.930   1.118 -0.1324 -1.3807  1.2382
21436SOL     OW69154   4.696   7.930   6.264 -0.5159 -0.4099  0.0062
21436SOL    HW169155   4.721   7.930   6.172 -0.5944  2.1333 -0.0860
21436SOL    HW269156   4.721   7.844   6.296  3.5057  0.0578 -1.3483
21437SOL     OW69157   5.977   6.227   8.420  0.4424 -0.3634  0.6918
21437SOL    HW169158   6.015   6.150   8.379 -2.0432 -2.2763  1.6925
21437SOL    HW269159   5.953   6.198   8.508 -2.2864  0.9300  0.4795
21438SOL     OW69160   5.185   0.182   9.111  0.0006  0.3372  0.7446
21438SOL    HW169161   5.232   0.138   9.182  0.6045 -0.6969 -0.2616
21438SOL    HW269162   5.094   0.152   9.120  0.0461  0.3178  1.1600
21439SOL     OW69163   1.964   0.091   1.235 -0.4124  0.3813  0.2195
21439SOL    HW169164   1.954   0.184   1.215 -2.0978  0.1101 -0.3166
21439SOL    HW269165   1.904   0.075   1.309  1.8405  0.2431  2.1511
21440SOL     OW69166   9.640   7.716   2.552  0.4762 -0.1737 -0.4735
21440SOL    HW169167   9.679   7.733   2.466 -0.2758  1.4154 -0.5324
21440SOL    HW269168   9.670   7.628   2.574  0.8759 -0.5290 -2.2483
21441SOL     OW69169   5.597   6.640   1.179 -0.8255  0.5793 -0.6111
21441SOL    HW169170   5.616   6.638   1.273  1.0148 -0.3607 -0.9435
21441SOL    HW269171   5.513   6.596   1.170 -0.1467 -1.0221  0.4461
21442SOL     OW69172   0.136   6.182   6.769 -0.5240  0.3085 -0.4642
21442SOL    HW169173   0.188   6.102   6.763 -0.4130  0.3289  0.1664
21442SOL    HW269174   0.103   6.196   6.680 -0.7622 -0.5845 -0.5269
21443SOL     OW69175   6.254   8.935   9.755 -0.1711 -0.0646 -0.6510
21443SOL    HW169176   6.337   8.919   9.709  0.2559  0.2253 -0.0012
21443SOL    HW269177   6.258   9.026   9.782  0.2051 -0.5737  1.1295
21444SOL     OW69178   1.847   1.020   2.419 -0.1541 -0.0150  0.1782
21444SOL    HW169179   1.852   0.964   2.497 -0.7047  0.3620  0.4892
21444SOL    HW269180   1.934   1.012   2.379  0.9586  1.5948  2.0853
21445SOL     OW69181   4.156   4.922   4.024 -0.0389 -0.2160  0.2488
21445SOL    HW169182   4.158   4.969   4.108  0.5223  1.3637 -0.6040
21445SOL    HW269183   4.063   4.924   3.999  0.2666  2.9701 -1.0598
21446SOL     OW69184   4.353   9.023   3.915 -0.2063 -0.0651  0.3306
21446SOL    HW169185   4.446   9.022   3.891 -0.0249  3.8125  0.1436
21446SOL    HW269186   4.350   8.977   3.999  1.5910 -1.5452 -0.3399
21447SOL     OW69187   1.228   8.929   0.322 -0.1278  0.2436 -0.4710
21447SOL    HW169188   1.175   8.957   0.397  1.9345  0.9500  0.8168
21447SOL    HW269189   1.254   8.839   0.344 -0.3858  0.0684 -0.8684
21448SOL     OW69190   5.663   9.667   2.341 -0.0548 -0.7856 -0.9066
21448SOL    HW169191   5.587   9.627   2.382 -0.8354  0.9211 -0.6110
21448SOL    HW269192   5.689   9.737   2.400  2.1013 -1.6241 -0.7412
21449SOL     OW69193   2.553   6.999   5.531 -0.2162 -0.2286 -0.3328
21449SOL    HW169194   2.547   6.905   5.547 -0.2775 -0.6030 -2.3269
21449SOL    HW269195   2.472   7.035   5.566  0.1105 -0.7847  1.0778
21450SOL     OW69196   6.689   4.419   1.048  0.2470 -0.0886 -0.2730
21450SOL    HW169197   6.725   4.334   1.022  1.0349 -0.2352  1.2004
21450SOL    HW269198   6.765   4.478   1.048 -0.4713  0.9489 -2.4237
21451SOL     OW69199   2.265   5.099   7.750  0.2252  0.1590 -0.1191
21451SOL    HW169200   2.229   5.096   7.839 -1.3118 -2.4165 -0.7229
21451SOL    HW269201   2.189   5.117   7.694  0.7495 -0.5609 -1.0896
21452SOL     OW69202   4.958   2.408   4.310 -0.1757 -0.1653  0.0477
21452SOL    HW169203   4.872   2.374   4.336 -0.2447 -0.2225 -0.2464
21452SOL    HW269204   4.939   2.494   4.273 -0.4831 -1.2608 -2.5724
21453SOL     OW69205   6.985   0.863   9.660  0.0440 -0.0935  0.3239
21453SOL    HW169206   6.956   0.813   9.737 -4.3142 -0.1926 -1.1170
21453SOL    HW269207   7.025   0.798   9.603 -0.8041 -0.9346  0.6589
21454SOL     OW69208   5.430   2.705   6.201 -0.4600 -0.3411 -0.7263
21454SOL    HW169209   5.345   2.662   6.193 -0.8197 -0.1266  1.3430
21454SOL    HW269210   5.478   2.651   6.263  1.2828 -0.9268 -2.4878
21455SOL     OW69211   3.045   1.507   9.160 -0.0728 -0.0314  0.0926
21455SOL    HW169212   2.969   1.564   9.164 -0.7281 -0.9381  0.8388
21455SOL    HW269213   3.040   1.454   9.239  1.7654  0.4235  0.5711
21456SOL     OW69214   7.122   2.260   2.509  0.0961 -0.3855 -0.4414
21456SOL    HW169215   7.143   2.336   2.563  1.0865 -0.3137 -0.8903
21456SOL    HW269216   7.060   2.209   2.561  1.0444 -0.3380  0.7710
21457SOL     OW69217   4.280   0.567   4.814 -0.8388  0.1806 -0.0275
21457SOL    HW169218   4.322   0.506   4.753 -1.7782 -1.0253  0.4892
21457SOL    HW269219   4.353   0.610   4.858 -0.1221 -1.2665  0.2723
21458SOL     OW69220   1.217   8.338   7.012  0.8015 -0.0405  0.0891
21458SOL    HW169221   1.251   8.258   7.052 -2.9721 -1.6645  0.4539
21458SOL    HW269222   1.205   8.316   6.919 -0.0252  0.1624  0.1386
21459SOL     OW69223   5.855   0.183   3.228  0.1708 -0.0745  0.4556
21459SOL    HW169224   5.763   0.159   3.223  0.8930 -3.0733 -0.9784
21459SOL    HW269225   5.874   0.225   3.144  0.2179  0.1722  0.5873
21460SOL     OW69226   1.446   0.340   8.704 -0.2260  0.2842 -0.1214
21460SOL    HW169227   1.447   0.245   8.692  0.5811  0.2320  0.2582
21460SOL    HW269228   1.381   0.372   8.642 -1.6772 -0.6669  0.8423
21461SOL     OW69229   2.531   1.825   7.483 -0.1457 -0.1786  0.4629
21461SOL    HW169230   2.611   1.781   7.510 -1.0722 -1.0746  1.9231
21461SOL    HW269231   2.492   1.856   7.565 -2.8828 -2.6043  0.2251
21462SOL     OW69232   6.049   6.312   0.100  0.4124  0.0613 -0.0807
21462SOL    HW169233   6.031   6.401   0.068 -1.0574 -0.1262  0.1742
21462SOL    HW269234   5.964   6.278   0.125  1.2197 -0.6070  1.9774
21463SOL     OW69235   5.605   8.333   4.568 -0.0261 -0.5051  0.7616
21463SOL    HW169236   5.669   8.318   4.638  0.0451  1.4977  1.1704
21463SOL    HW269237   5.575   8.423   4.581 -1.2538 -0.6380 -0.8020
21464SOL     OW69238   1.260   4.675   9.566  0.4041 -0.1938 -0.1556
21464SOL    HW169239   1.185   4.713   9.611 -2.1390 -1.3351 -3.0598
21464SOL    HW269240   1.303   4.621   9.632 -1.3921  0.3846  1.5906
21465SOL     OW69241   3.683   1.673   3.316  0.3707  0.4102  0.6276
21465SOL    HW169242   3.676   1.582   3.344 -0.8347  0.1104 -0.5883
21465SOL    HW269243   3.699   1.669   3.222  0.0900  1.4497  0.5211
21466SOL     OW69244   6.755   9.424   4.419  0.0087  0.2350 -0.1380
21466SOL    HW169245   6.831   9.480   4.406 -0.0616  0.9246  2.0012
21466SOL    HW269246   6.791   9.337   4.437  0.1880  0.0829 -1.1557
21467SOL     OW69247   7.080   4.912   6.037  0.3242  0.1378 -0.5958
21467SOL    HW169248   7.063   5.004   6.015  0.7997  0.2264 -0.6067
21467SOL    HW269249   7.033   4.898   6.119 -2.0679 -0.3942 -1.9649
21468SOL     OW69250   0.643   5.093   1.544  0.3012 -0.2724 -0.3895
21468SOL    HW169251   0.625   5.169   1.599 -0.2848  0.0267 -0.9780
21468SOL    HW269252   0.585   5.025   1.578 -0.6117  0.1343 -1.0942
21469SOL     OW69253   4.120   5.082   6.812 -0.1789  0.2975  0.1377
21469SOL    HW169254   4.065   5.008   6.788 -0.1433  0.0602  0.7479
21469SOL    HW269255   4.059   5.150   6.841 -0.3892  1.4795 -2.7867
21470SOL     OW69256   9.602   9.482   0.415  0.5688 -0.2371 -0.1301
21470SOL    HW169257   9.682   9.472   0.467  1.0883 -1.4149 -1.1084
21470SOL    HW269258   9.619   9.559   0.360 -0.2212  1.3836  1.7996
21471SOL     OW69259   1.991   5.345   8.235  0.4096 -0.2196 -0.3237
21471SOL    HW169260   1.989   5.416   8.171 -1.8092 -1.3735 -1.6427
21471SOL    HW269261   1.910   5.357   8.286  1.0542 -0.6244  0.8372
21472SOL     OW69262   0.558   4.570   1.714  0.1497 -0.1881  0.2360
21472SOL    HW169263   0.501   4.585   1.790  0.9407  2.2535  0.4314
21472SOL    HW269264   0.645   4.557   1.752 -0.0597 -3.2300 -0.0993
21473SOL     OW69265   4.294   8.405   6.889  0.5880  0.3341 -0.4420
21473SOL    HW169266   4.298   8.328   6.946  0.3515  0.6092 -0.0483
21473SOL    HW269267   4.238   8.467   6.936  1.5249  1.1101 -0.3183
21474SOL     OW69268   9.647   7.249   6.275 -0.2719 -0.2513  0.2955
21474SOL    HW169269   9.633   7.273   6.366  0.5304 -0.6464  0.5272
21474SOL    HW269270   9.695   7.167   6.278  0.0754 -0.0905 -0.4815
21475SOL     OW69271   9.257   4.636   3.880  0.6216 -0.5858  0.4053
21475SOL    HW169272   9.210   4.634   3.796 -0.7418  1.6449  1.0264
21475SOL    HW269273   9.348   4.619   3.857  0.4804  1.1084 -1.7374
21476SOL     OW69274   6.360   8.437   6.778 -0.3328 -0.6016 -0.0237
21476SOL    HW169275   6.352   8.453   6.872  0.1083  0.6047 -0.1711
21476SOL    HW269276   6.448   8.402   6.767  1.1578  2.9358 -0.3794
21477SOL     OW69277   8.272   4.483   3.120  0.1580  0.1803  0.9456
21477SOL    HW169278   8.256   4.539   3.044  0.9357  0.9116  1.3044
21477SOL    HW269279   8.260   4.394   3.087  1.4147  0.4376 -0.2831
21478SOL     OW69280   3.721   2.132   0.489 -0.4632  0.4653 -0.5624
21478SOL    HW169281   3.736   2.222   0.517 -1.3821  0.9163 -1.4225
21478SOL    HW269282   3.739   2.133   0.395 -0.0310 -0.3634 -0.4991
21479SOL     OW69283   7.143   6.909   9.583 -0.1928 -0.8585  0.4526
21479SOL    HW169284   7.184   6.859   9.513  2.5071 -0.2450  1.4865
21479SOL    HW269285   7.172   6.999   9.569  0.1353 -0.6687  2.1534
21480SOL     OW69286   6.148   3.637   4.795 -0.4126  0.1132  0.3152
21480SOL    HW169287   6.132   3.543   4.804  0.2884 -0.0833 -0.3443
21480SOL    HW269288   6.066   3.679   4.820 -1.1542 -0.7378 -0.6165
21481SOL     OW69289   5.732   2.392   8.664  0.3859  0.2816  0.1881
21481SOL    HW169290   5.716   2.442   8.745 -0.8600  0.3515 -0.0858
21481SOL    HW269291   5.646   2.380   8.626  0.7970 -1.1382 -0.3327
21482SOL     OW69292   3.650   5.840   7.963 -0.4092  0.5914  0.0806
21482SOL    HW169293   3.583   5.777   7.937  0.0376  0.6661 -1.3352
21482SOL    HW269294   3.650   5.838   8.058 -2.3410  0.5031  0.1094
21483SOL     OW69295   0.278   7.657   2.602 -0.2249 -0.0277  0.2734
21483SOL    HW169296   0.292   7.703   2.685  1.6294 -0.8965  0.4927
21483SOL    HW269297   0.217   7.587   2.622 -1.8791  1.3371  0.2700
21484SOL     OW69298   7.135   8.724   3.114 -0.1083  0.3046 -0.5533
21484SOL    HW169299   7.057   8.758   3.070 -0.4641  0.1611 -0.0474
21484SOL    HW269300   7.203   8.788   3.095  0.3044 -0.7788 -3.0355
21485SOL     OW69301   8.789   4.455   6.626 -0.1350 -0.3182 -0.1147
21485SOL    HW169302   8.700   4.419   6.616 -1.4259  2.3141  0.8449
21485SOL    HW269303   8.796   4.519   6.555  0.4471  0.4971  0.6736
21486SOL     OW69304   1.620   8.456   1.887  0.6577 -0.8627  0.5331
21486SOL    HW169305   1.557   8.386   1.872  0.3295 -0.6110  0.7521
21486SOL    HW269306   1.623   8.467   1.982 -1.8606  1.7481  0.4365
21487SOL     OW69307   7.287   8.717   3.620  0.2055 -0.0002 -0.2734
21487SOL    HW169308   7.268   8.629   3.651  1.1819 -0.0203  0.3177
21487SOL    HW269309   7.346   8.753   3.686 -0.9592  1.4678  0.0078
21488SOL     OW69310   7.971   5.333   6.965  0.6886 -0.0026  0.4285
21488SOL    HW169311   7.999   5.424   6.977  0.3998  0.0263  0.9062
21488SOL    HW269312   8.046   5.291   6.923 -0.5050  1.3019 -3.3813
21489SOL     OW69313   4.553   7.996   3.790 -0.4010  0.4071 -0.6472
21489SOL    HW169314   4.501   7.920   3.762  0.4723 -0.2821 -0.4502
21489SOL    HW269315   4.574   8.041   3.708 -0.4146  0.0965 -0.8240
21490SOL     OW69316   3.220   2.908   2.091  0.1329  0.1033  0.3152
21490SOL    HW169317   3.297   2.913   2.147  1.7496  0.7421 -1.8138
21490SOL    HW269318   3.215   2.994   2.049  0.1891 -0.8989 -1.9198
21491SOL     OW69319   9.250   7.857   6.185  0.0038  0.0210 -0.8443
21491SOL    HW169320   9.265   7.910   6.263 -0.5467  1.2973 -1.5819
21491SOL    HW269321   9.228   7.920   6.117  2.1188 -0.9064 -2.4842
21492SOL     OW69322   0.668   8.174   1.481  0.5141 -0.3938  0.4061
21492SOL    HW169323   0.670   8.181   1.385  1.3495 -0.2430  0.4255
21492SOL    HW269324   0.757   8.150   1.505  0.3333 -0.3320  1.1599
21493SOL     OW69325   3.693   5.052   9.347 -0.6582  0.0589  0.1759
21493SOL    HW169326   3.662   4.963   9.327 -2.5563  0.9445 -1.1020
21493SOL    HW269327   3.638   5.082   9.419 -1.3597  0.8517 -0.6575
21494SOL     OW69328   9.307   1.603   4.933  0.1191 -0.1764  0.1594
21494SOL    HW169329   9.255   1.645   4.864  1.0281  0.0718 -0.3959
21494SOL    HW269330   9.268   1.634   5.015 -0.8061 -0.2599 -0.2343
21495SOL     OW69331   7.923   4.006   8.229  0.4402  0.6790  0.0873
21495SOL    HW169332   7.880   3.947   8.167  1.7253 -0.3956  0.1659
21495SOL    HW269333   7.925   4.090   8.183  0.2598  0.2009 -0.8341
21496SOL     OW69334   7.860   7.313   4.576 -0.0622 -0.0281 -0.6870
21496SOL    HW169335   7.819   7.234   4.610  1.3525 -0.7725 -0.6411
21496SOL    HW269336   7.817   7.328   4.492 -0.7178 -0.5365 -0.4464
21497SOL     OW69337   6.889   4.612   1.129  0.2740 -0.2901 -0.3889
21497SOL    HW169338   6.913   4.668   1.055  0.4088 -1.3622 -1.1865
21497SOL    HW269339   6.972   4.577   1.161  0.2827  0.6981  0.7359
21498SOL     OW69340   7.295   7.643   1.844 -0.1146 -0.3632 -0.1864
21498SOL    HW169341   7.382   7.683   1.848 -0.8555  1.3269  0.0555
21498SOL    HW269342   7.249   7.693   1.776 -1.3920 -0.1343  0.7966
21499SOL     OW69343   0.581   1.412   1.286  0.3767 -0.5309 -0.2481
21499SOL    HW169344   0.636   1.351   1.336 -0.2303  0.7285  2.0987
21499SOL    HW269345   0.501   1.363   1.268  0.9900 -1.3300 -0.9099
21500SOL     OW69346   8.432   9.111   4.217  0.1188 -0.0851 -0.4077
21500SOL    HW169347   8.524   9.135   4.202  1.1152 -2.1518  1.7731
21500SOL    HW269348   8.389   9.129   4.134  3.4400 -3.2660 -3.1466
21501SOL     OW69349   5.122   3.024   3.321 -0.0832  0.0096  0.3576
21501SOL    HW169350   5.139   2.951   3.382  0.5095 -1.0373 -1.0110
21501SOL    HW269351   5.108   2.981   3.237  0.8621  1.5226 -0.6010
21502SOL     OW69352   3.136   1.735   3.619  0.5998  0.1729 -0.3216
21502SOL    HW169353   3.191   1.710   3.545  1.1264  0.2611  0.0320
21502SOL    HW269354   3.147   1.830   3.626  1.7502 -0.0151  0.7906
21503SOL     OW69355   1.500   9.328   8.806 -0.3435  0.0668  0.5532
21503SOL    HW169356   1.561   9.395   8.775  0.6128 -0.8095  0.4836
21503SOL    HW269357   1.552   9.273   8.865 -1.1841 -0.4336  0.8473
21504SOL     OW69358   2.785   7.645   4.056 -0.2980  0.2080  0.3667
21504SOL    HW169359   2.799   7.694   3.975 -0.4940  0.7942  0.6877
21504SOL    HW269360   2.769   7.555   4.026 -1.2489  0.5804 -0.2976
21505SOL     OW69361   1.326   6.827   2.831  0.6056 -0.2596  0.3355
21505SOL    HW169362   1.399   6.884   2.805 -1.2188  0.9771 -2.4484
21505SOL    HW269363   1.266   6.885   2.877 -0.8458 -0.0473 -1.7241
21506SOL     OW69364   9.255   2.257   4.020 -0.3288  0.2623 -0.1782
21506SOL    HW169365   9.330   2.300   3.979  0.3907  0.0639  0.8788
21506SOL    HW269366   9.179   2.302   3.983  0.3112  0.6811 -1.0349
21507SOL     OW69367   3.270   6.319   4.931 -0.7089  0.3942  0.4442
21507SOL    HW169368   3.260   6.340   5.024  0.7191 -0.4420  0.8303
21507SOL    HW269369   3.260   6.403   4.886 -1.8270  0.7471  1.2986
21508SOL     OW69370   3.765   9.751   3.140 -0.2655  0.6520  0.2126
21508SOL    HW169371   3.739   9.659   3.134  1.1851 -0.0132  2.7312
21508SOL    HW269372   3.683   9.799   3.148 -1.0044 -0.8253  2.4485
21509SOL     OW69373   2.542   2.240   4.578  0.1795  0.3305 -0.0456
21509SOL    HW169374   2.543   2.220   4.484  1.7446  0.3851 -0.0537
21509SOL    HW269375   2.512   2.330   4.583 -2.3782 -0.4085 -0.2943
21510SOL     OW69376   2.105   8.555   1.725  0.3133  0.3808  0.0578
21510SOL    HW169377   2.098   8.591   1.636 -2.3058 -1.4823 -0.6265
21510SOL    HW269378   2.079   8.628   1.782 -1.3063  0.6897 -1.0048
21511SOL     OW69379   8.174   8.097   1.017 -0.3967 -0.8658 -0.0856
21511SOL    HW169380   8.102   8.038   0.993 -3.0008  1.6373  1.0277
21511SOL    HW269381   8.139   8.150   1.089  0.2628  4.5424 -3.2349
21512SOL     OW69382   1.131   4.442   1.110  0.1862  0.6442  0.2804
21512SOL    HW169383   1.162   4.351   1.106 -3.1833 -0.6781  0.5471
21512SOL    HW269384   1.187   4.484   1.175  0.4085 -1.9350  1.8983
21513SOL     OW69385   6.574   0.799   9.285  0.4936 -0.0831  0.3126
21513SOL    HW169386   6.551   0.883   9.325 -0.2686  0.1218 -0.5220
21513SOL    HW269387   6.660   0.778   9.320  0.7969  1.1645  0.3496
21514SOL     OW69388   5.465   3.429   3.423 -0.3601  0.0482  0.0498
21514SOL    HW169389   5.376   3.456   3.445  0.2149  1.2186  1.0781
21514SOL    HW269390   5.458   3.335   3.407 -1.4591 -0.3119  2.1830
21515SOL     OW69391   8.578   7.485   4.395  0.4536  0.1304  0.4666
21515SOL    HW169392   8.485   7.465   4.402  0.4935  0.2516  1.4647
21515SOL    HW269393   8.612   7.474   4.484  1.8427 -2.0815 -0.2551
21516SOL     OW69394   4.010   0.692   8.243 -0.6523 -0.3438 -0.5667
21516SOL    HW169395   3.929   0.710   8.194 -1.3343  0.2427  0.7039
21516SOL    HW269396   4.058   0.775   8.241  0.1269 -0.8102 -1.6678
21517SOL     OW69397   9.456   4.312   0.130 -0.7270  0.4822  0.3300
21517SOL    HW169398   9.400   4.320   0.052 -0.6902 -0.8023  0.1569
21517SOL    HW269399   9.491   4.223   0.125  1.6964  1.3701  0.1909
21518SOL     OW69400   5.585   8.242   2.775  0.1219 -0.0766  0.3596
21518SOL    HW169401   5.669   8.212   2.740  0.1236  0.9449 -0.5598
21518SOL    HW269402   5.577   8.197   2.859  0.3896 -2.2183 -0.6673
21519SOL     OW69403   8.546   2.840   3.653  0.1538  0.2958 -0.1563
21519SOL    HW169404   8.628   2.871   3.691  1.0185 -1.5378 -0.3962
21519SOL    HW269405   8.561   2.842   3.558  0.0960 -0.4154 -0.1916
21520SOL     OW69406   5.885   0.192   4.834  0.3746 -0.0838  0.3435
21520SOL    HW169407   5.826   0.177   4.760 -0.6242 -1.3471  1.3540
21520SOL    HW269408   5.859   0.278   4.868 -1.8741 -1.1822  1.5984
21521SOL     OW69409   2.322   2.336   8.817  0.9412  0.5603 -0.0501
21521SOL    HW169410   2.407   2.313   8.781  1.6037  1.7138  0.7357
21521SOL    HW269411   2.328   2.316   8.911  0.9495  2.2153  0.3300
21522SOL     OW69412   6.039   4.031   5.660  0.5738  0.2445  0.4155
21522SOL    HW169413   6.063   3.939   5.647 -0.5074 -0.0079  0.0403
21522SOL    HW269414   5.987   4.053   5.583  3.1560  2.0574 -0.9278
21523SOL     OW69415   2.627   2.933   8.189 -0.1068 -0.5178  0.1535
21523SOL    HW169416   2.567   2.894   8.252 -2.7450  2.5734 -0.1999
21523SOL    HW269417   2.684   2.989   8.241  0.0455 -0.6298  0.1096
21524SOL     OW69418   5.758   5.651   0.426 -0.7697 -0.0350  0.6814
21524SOL    HW169419   5.844   5.683   0.398 -1.4420  1.9365  0.6699
21524SOL    HW269420   5.778   5.584   0.491  0.7816 -0.0186  0.2680
21525SOL     OW69421   0.215   8.829   4.405  0.6755 -0.0976 -0.3133
21525SOL    HW169422   0.291   8.883   4.384  2.3405 -2.1796 -0.0397
21525SOL    HW269423   0.187   8.794   4.320  2.0741 -1.7753 -0.1680
21526SOL     OW69424   4.560   3.646   5.947 -0.4673  0.8463 -0.1968
21526SOL    HW169425   4.616   3.702   6.001 -2.5070  1.8034  1.0609
21526SOL    HW269426   4.576   3.557   5.980 -3.0104  1.5219  3.6203
21527SOL     OW69427   8.084   4.111   5.466  0.7654 -0.4682  0.2075
21527SOL    HW169428   8.098   4.202   5.490  1.2048 -0.7220  0.9448
21527SOL    HW269429   8.166   4.066   5.488  0.0214 -1.3306  1.3858
21528SOL     OW69430   1.352   9.191   4.114 -0.0938  0.0721  0.0428
21528SOL    HW169431   1.443   9.187   4.086 -0.1952  0.1123 -0.3026
21528SOL    HW269432   1.349   9.262   4.177  0.0277  0.3627 -0.2791
21529SOL     OW69433   7.398   7.805   2.866  0.0616  0.3632  0.4521
21529SOL    HW169434   7.307   7.788   2.842  0.4815 -0.2948 -0.7674
21529SOL    HW269435   7.392   7.867   2.938 -1.3211  1.8882 -0.8634
21530SOL     OW69436   3.157   4.795   6.496  0.1753 -0.2222 -0.4775
21530SOL    HW169437   3.243   4.816   6.531  0.5867 -0.3816 -1.3631
21530SOL    HW269438   3.106   4.875   6.509  0.3478 -0.2332  0.3471
21531SOL     OW69439   1.859   0.873   8.222 -0.4338  0.4765  0.1639
21531SOL    HW169440   1.855   0.850   8.315  0.8853  0.0666  0.1345
21531SOL    HW269441   1.774   0.845   8.187 -1.4812  1.8505  1.4853
21532SOL     OW69442   1.277   1.359   6.659  0.5241  0.3458 -0.0094
21532SOL    HW169443   1.245   1.269   6.670 -0.8531  0.5227 -1.9095
21532SOL    HW269444   1.324   1.357   6.576  2.1472  0.9967  0.8620
21533SOL     OW69445   7.595   3.635   6.374 -0.0332 -0.3635  0.5767
21533SOL    HW169446   7.655   3.570   6.412 -0.3393 -1.4619 -0.7078
21533SOL    HW269447   7.653   3.697   6.330  0.2566 -2.3095 -2.0504
21534SOL     OW69448   7.042   9.193   5.819  0.8349 -0.2055 -0.3526
21534SOL    HW169449   6.992   9.168   5.897  0.0037 -2.1524 -1.4435
21534SOL    HW269450   7.133   9.172   5.841  0.7398  0.1504  0.4183
21535SOL     OW69451   2.554   0.399   1.504 -1.4327  0.5427  0.0060
21535SOL    HW169452   2.522   0.437   1.423 -0.0742 -1.0724 -1.3615
21535SOL    HW269453   2.509   0.315   1.511 -0.5923  0.0965  0.2205
21536SOL     OW69454   0.969   1.918   3.838 -0.3681  0.1319 -0.0446
21536SOL    HW169455   0.970   1.845   3.901  0.0796  2.0167  2.2898
21536SOL    HW269456   1.014   1.883   3.761  1.3945 -1.5734  1.6196
21537SOL     OW69457   1.892   1.925   6.747 -0.4890 -0.3134 -0.2875
21537SOL    HW169458   1.987   1.941   6.751 -0.3320 -0.8258 -1.5372
21537SOL    HW269459   1.854   2.001   6.790  0.4770  0.1482 -0.2095
21538SOL     OW69460   1.521   9.702   2.373 -0.2854 -0.8121  0.6007
21538SOL    HW169461   1.477   9.719   2.457  0.3558 -1.1369  1.0080
21538SOL    HW269462   1.581   9.630   2.391 -0.5331 -1.2539 -0.2824
21539SOL     OW69463   3.155   4.995   5.770 -0.1158 -0.0745  0.6186
21539SOL    HW169464   3.247   5.003   5.797  0.0426 -0.8218  0.3198
21539SOL    HW269465   3.131   5.084   5.743 -0.2062  0.6540  2.9054
21540SOL     OW69466   1.690   0.133   0.492 -0.1504 -0.0574  0.2455
21540SOL    HW169467   1.730   0.074   0.556  1.6960  2.0102  1.1161
21540SOL    HW269468   1.683   0.217   0.537 -3.4948  0.2920 -0.6610
21541SOL     OW69469   9.040   1.875   7.616 -0.5793 -0.4512 -0.6050
21541SOL    HW169470   9.018   1.931   7.542  0.8000  1.3430  0.2695
21541SOL    HW269471   9.105   1.814   7.582  0.0075  0.3291 -0.8906
21542SOL     OW69472   6.488   0.165   2.941 -0.3460 -0.0783 -0.1179
21542SOL    HW169473   6.561   0.180   2.881  0.9981 -0.5182  1.3573
21542SOL    HW269474   6.529   0.153   3.026 -1.9177 -3.1926  0.3356
21543SOL     OW69475   8.010   7.304   4.882  0.2036  0.4597 -0.1600
21543SOL    HW169476   8.017   7.400   4.878 -0.9132  0.5356 -0.4366
21543SOL    HW269477   7.977   7.285   4.970  0.3289  0.3302 -0.1402
21544SOL     OW69478   8.803   9.311   0.189  0.8111  0.1993  0.2024
21544SOL    HW169479   8.740   9.322   0.260  1.2870  1.3853  0.4769
21544SOL    HW269480   8.854   9.393   0.190  3.0181 -1.0911  0.6528
21545SOL     OW69481   4.757   1.034   8.212 -0.2811 -0.0706 -0.6007
21545SOL    HW169482   4.792   1.008   8.126 -0.7146 -2.4552 -0.1192
21545SOL    HW269483   4.705   1.112   8.194 -0.1710 -0.3881 -2.4809
21546SOL     OW69484   6.237   4.873   5.331  0.3234 -0.6171  0.1394
21546SOL    HW169485   6.256   4.817   5.407  1.2805 -1.2167 -0.5159
21546SOL    HW269486   6.150   4.910   5.349  0.8800 -0.0466  1.9459
21547SOL     OW69487   4.666   2.083   5.920  0.0099 -0.0091 -0.1839
21547SOL    HW169488   4.742   2.124   5.879 -0.2451 -0.3512 -1.0131
21547SOL    HW269489   4.591   2.126   5.879 -0.2586  0.8774  1.1861
21548SOL     OW69490   0.016   0.731   1.723 -0.0217  0.5001 -0.0658
21548SOL    HW169491   0.027   0.802   1.660  0.4180 -0.5345 -1.1871
21548SOL    HW269492   0.020   0.652   1.670 -0.8701 -0.3576  1.1126
21549SOL     OW69493   4.463   5.553   6.082  1.1756 -0.7457  0.1645
21549SOL    HW169494   4.444   5.644   6.104 -0.0614 -0.8538 -0.3717
21549SOL    HW269495   4.529   5.526   6.145 -0.1835 -0.1998  1.9028
21550SOL     OW69496   4.310   5.034   6.626  0.5517  0.1758  0.3630
21550SOL    HW169497   4.332   5.112   6.576  1.6548 -0.4489 -0.1634
21550SOL    HW269498   4.246   5.064   6.690  0.3774  1.3418 -0.3296
21551SOL     OW69499   4.565   7.103   1.181 -0.6416 -0.1128 -0.7306
21551SOL    HW169500   4.485   7.131   1.138 -0.3621 -0.5002 -1.5133
21551SOL    HW269501   4.553   7.129   1.273 -0.7192  1.8235 -1.2544
21552SOL     OW69502   5.368   6.072   0.533  0.3169  0.4137  0.4384
21552SOL    HW169503   5.295   6.016   0.507  0.3213 -0.2958  1.8332
21552SOL    HW269504   5.334   6.122   0.608  1.0449  0.5527  0.6805
21553SOL     OW69505   8.620   9.051   9.436  0.2571 -0.1596  0.0087
21553SOL    HW169506   8.606   9.070   9.529 -0.6610 -2.4418  0.3990
21553SOL    HW269507   8.539   9.007   9.408  1.3819 -1.4780 -1.2926
21554SOL     OW69508   7.890   3.059   6.398 -0.4927  0.0399  0.0925
21554SOL    HW169509   7.941   3.073   6.319 -0.6408 -2.3504 -0.5038
21554SOL    HW269510   7.812   3.114   6.387 -0.0574  0.4712 -0.9481
21555SOL     OW69511   8.995   7.984   3.151 -0.3412  0.0307 -0.4301
21555SOL    HW169512   8.945   7.908   3.122 -0.2669 -0.0655 -0.3085
21555SOL    HW269513   9.085   7.951   3.161 -0.6775 -0.3896  1.6278
21556SOL     OW69514   9.038   2.819   3.277 -0.2654  0.1564  0.1362
21556SOL    HW169515   9.067   2.780   3.195 -0.5469  0.7715 -0.2574
21556SOL    HW269516   9.096   2.781   3.343 -0.3515 -0.7190 -0.2751
21557SOL     OW69517   6.896   8.532   5.357 -0.0032  0.1702  0.3582
21557SOL    HW169518   6.810   8.563   5.330  0.5014  1.4981  0.2105
21557SOL    HW269519   6.955   8.607   5.342  1.4319 -1.1118 -0.8552
21558SOL     OW69520   3.929   6.251   2.864 -0.3884 -0.3997 -0.0256
21558SOL    HW169521   3.890   6.327   2.820  0.4701 -0.7387 -1.4191
21558SOL    HW269522   3.870   6.178   2.843  0.3255 -0.6781 -1.1519
21559SOL     OW69523   0.680   6.203   7.005 -0.1950  0.1070 -0.0055
21559SOL    HW169524   0.702   6.130   6.948  0.5114 -1.6408  2.3214
21559SOL    HW269525   0.587   6.193   7.023  0.4830 -2.4994  3.0148
21560SOL     OW69526   2.380   6.223   8.021 -0.1438 -0.4268 -0.0024
21560SOL    HW169527   2.383   6.256   7.931 -1.6516 -0.1887  0.0109
21560SOL    HW269528   2.469   6.233   8.053 -0.5068  4.0719  0.1597
21561SOL     OW69529   9.396   3.556   1.903  0.5943  0.1520  0.2706
21561SOL    HW169530   9.438   3.600   1.977 -2.1468  0.8497  1.5213
21561SOL    HW269531   9.372   3.626   1.843 -0.5706  0.0123  0.5525
21562SOL     OW69532   0.904   0.449   7.686 -0.4199 -0.4463 -0.2202
21562SOL    HW169533   0.893   0.364   7.644 -0.0690 -0.5785 -0.0476
21562SOL    HW269534   0.979   0.438   7.745 -0.4083 -0.0371 -0.1513
21563SOL     OW69535   4.114   7.991   4.921 -0.2770  0.1652 -0.2992
21563SOL    HW169536   4.082   7.907   4.953  0.1017  0.5881  1.2560
21563SOL    HW269537   4.120   7.979   4.826  0.1575 -1.6994 -0.0836
21564SOL     OW69538   6.710   5.546   1.848 -0.4761  0.2502  0.3838
21564SOL    HW169539   6.732   5.522   1.939 -0.1344 -0.4798  0.1191
21564SOL    HW269540   6.632   5.600   1.856 -2.8098 -2.8965  0.9152
21565SOL     OW69541   5.632   0.209   2.825  0.1413  0.0812  0.1828
21565SOL    HW169542   5.648   0.217   2.919  1.7480  0.8188 -0.1262
21565SOL    HW269543   5.682   0.132   2.799 -0.4337 -0.2163 -0.0492
21566SOL     OW69544   2.922   5.447   4.936  0.1193 -0.2576 -0.0541
21566SOL    HW169545   2.836   5.407   4.945 -0.1512 -0.0539 -1.4648
21566SOL    HW269546   2.908   5.521   4.878  1.2191 -0.1208 -0.1732
21567SOL     OW69547   2.524   8.408   6.466 -0.2972 -0.3613 -0.1138
21567SOL    HW169548   2.465   8.479   6.439 -1.2381 -1.3570 -0.7657
21567SOL    HW269549   2.475   8.328   6.448  0.6020 -1.1823  0.9465
21568SOL     OW69550   7.707   1.302   9.608  0.3645  0.1504  0.1648
21568SOL    HW169551   7.753   1.226   9.573  0.6444  0.0394  0.7564
21568SOL    HW269552   7.621   1.268   9.635  0.5215  0.0162  0.5102
21569SOL     OW69553   0.879   3.804   8.196  0.3397 -0.0838 -0.1444
21569SOL    HW169554   0.823   3.871   8.236  2.6986  1.2579  1.1470
21569SOL    HW269555   0.856   3.723   8.242 -2.2869 -0.1738 -1.4586
21570SOL     OW69556   0.161   4.066   8.773 -0.4983 -0.8447 -0.4458
21570SOL    HW169557   0.117   4.020   8.701  1.0513 -1.4453 -1.0574
21570SOL    HW269558   0.153   4.007   8.848  1.8464 -2.3866 -1.3347
21571SOL     OW69559   3.724   1.219   1.860  0.0148 -0.0688  0.4053
21571SOL    HW169560   3.784   1.154   1.897  0.3766 -0.6019 -1.0444
21571SOL    HW269561   3.782   1.282   1.816 -0.4296 -0.0996 -0.2453
21572SOL     OW69562   4.540   1.407   9.079 -0.0430 -0.0640 -0.5903
21572SOL    HW169563   4.630   1.388   9.052  0.8745  1.9580  0.7366
21572SOL    HW269564   4.487   1.338   9.038  2.0721 -1.2387 -1.5275
21573SOL     OW69565   7.233   8.218   6.732  0.3131  0.1600  0.5764
21573SOL    HW169566   7.253   8.168   6.653 -0.1020  1.0278 -0.0864
21573SOL    HW269567   7.273   8.167   6.803  1.0360 -0.4143 -0.2243
21574SOL     OW69568   3.173   0.634   2.664 -0.3022  0.4942  0.4783
21574SOL    HW169569   3.251   0.689   2.651 -0.3338  0.1906 -1.2276
21574SOL    HW269570   3.180   0.567   2.596  0.3843 -2.4448  3.1969
21575SOL     OW69571   4.149   8.736   9.189 -0.2445  0.0976  0.4912
21575SOL    HW169572   4.195   8.679   9.128 -1.0961 -0.5893  0.4803
21575SOL    HW269573   4.199   8.728   9.271  0.1908  0.0860  0.2277
21576SOL     OW69574   4.888   4.517   5.953  0.0420  0.3164 -0.7047
21576SOL    HW169575   4.804   4.560   5.937 -0.6948 -0.4292  0.9186
21576SOL    HW269576   4.934   4.577   6.011 -0.1286 -0.0922 -0.1356
21577SOL     OW69577   8.527   5.191   9.588 -0.2319  0.0457 -0.1687
21577SOL    HW169578   8.468   5.175   9.515  0.0787 -1.6047 -0.0918
21577SOL    HW269579   8.471   5.225   9.658 -0.8846 -0.3595 -0.4901
21578SOL     OW69580   0.624   5.604   8.211  0.4893 -0.0968  0.6271
21578SOL    HW169581   0.543   5.612   8.161  1.4046  1.4231 -0.7352
21578SOL    HW269582   0.660   5.693   8.211  2.2417 -0.7735  1.0087
21579SOL     OW69583   1.948   8.389   1.940 -0.0026 -0.2326 -0.0108
21579SOL    HW169584   2.044   8.388   1.943  0.0854  2.8277  0.7122
21579SOL    HW269585   1.922   8.402   2.031 -0.9831  1.4322 -0.4973
21580SOL     OW69586   7.709   7.843   9.488  0.0263  0.3336  0.3858
21580SOL    HW169587   7.748   7.772   9.539  1.2165  0.5457 -0.1938
21580SOL    HW269588   7.678   7.906   9.553  0.9036  0.2844  0.8526
21581SOL     OW69589   6.701   1.404   7.168  0.7753  0.5327  0.4009
21581SOL    HW169590   6.727   1.462   7.240 -0.9411  0.4171  1.1571
21581SOL    HW269591   6.714   1.315   7.203  1.4206  0.4512 -0.0173
21582SOL     OW69592   3.798   5.788   4.273 -0.4803  0.6076  0.0202
21582SOL    HW169593   3.772   5.818   4.360  1.2682  1.3387  0.3351
21582SOL    HW269594   3.779   5.861   4.215  0.7064  1.0992  0.2320
21583SOL     OW69595   8.095   3.274   7.675  0.5179 -0.1242 -0.0690
21583SOL    HW169596   8.040   3.267   7.597  0.8132 -1.4859 -0.1790
21583SOL    HW269597   8.179   3.304   7.642  0.5413 -0.3637 -0.2335
21584SOL     OW69598   5.772   1.568   8.055 -0.2683  0.4164  0.1572
21584SOL    HW169599   5.783   1.530   7.968 -0.3642  0.6811  0.0276
21584SOL    HW269600   5.677   1.577   8.065 -0.3709 -1.2265  0.9903
21585SOL     OW69601   1.676   2.171   8.145  0.3258  0.0169 -0.0876
21585SOL    HW169602   1.736   2.126   8.205  1.8653  2.2850  0.1923
21585SOL    HW269603   1.620   2.101   8.110  0.6187 -1.6552  2.5254
21586SOL     OW69604   5.126   4.091   8.443  0.0734  0.6086  0.7338
21586SOL    HW169605   5.190   4.050   8.385 -1.2980  0.0109 -0.4195
21586SOL    HW269606   5.158   4.073   8.532  1.2932  0.0203  0.1912
21587SOL     OW69607   9.478   4.076   5.509 -0.2137  0.0343 -0.0355
21587SOL    HW169608   9.400   4.110   5.466  0.0621 -0.5613 -1.0197
21587SOL    HW269609   9.472   4.110   5.599  0.0470  2.7331 -0.9444
21588SOL     OW69610   4.582   2.558   4.140  0.6378  0.1646 -0.6562
21588SOL    HW169611   4.501   2.571   4.091  1.1160  2.1226 -1.0061
21588SOL    HW269612   4.554   2.549   4.231 -0.0395 -0.3820 -0.9055
21589SOL     OW69613   6.039   7.025   2.544  0.5975 -0.3262 -0.2973
21589SOL    HW169614   6.004   6.951   2.592  0.6773 -1.2627 -1.6240
21589SOL    HW269615   5.976   7.040   2.473  2.1440 -1.2055 -1.9451
21590SOL     OW69616   2.521   5.750   9.304  0.4327 -0.3013  0.2646
21590SOL    HW169617   2.602   5.736   9.353 -1.7244 -0.9077  4.0645
21590SOL    HW269618   2.503   5.844   9.314  0.8163 -0.0736 -0.9720
21591SOL     OW69619   7.515   2.654   8.285  0.4862 -0.2783 -0.2063
21591SOL    HW169620   7.422   2.664   8.264  1.4230  1.7196 -4.7756
21591SOL    HW269621   7.539   2.736   8.328  0.1414 -0.9751  1.3826
21592SOL     OW69622   9.495   8.007   5.915  0.4551  0.4698 -0.4501
21592SOL    HW169623   9.538   8.032   5.833  1.4965 -1.7864 -0.6501
21592SOL    HW269624   9.540   7.928   5.943 -1.1980  0.0711  1.2883
21593SOL     OW69625   9.091   1.292   3.351 -0.2167  0.1406  0.4320
21593SOL    HW169626   9.118   1.331   3.434 -0.6104  0.3412  0.4672
21593SOL    HW269627   9.117   1.357   3.285 -0.0412  0.0488  0.4093
21594SOL     OW69628   2.284   9.722   4.719 -0.2493  0.3985  0.0950
21594SOL    HW169629   2.350   9.654   4.702 -1.4884 -0.8363 -0.0045
21594SOL    HW269630   2.333   9.794   4.758  0.8037 -1.5239  2.5867
21595SOL     OW69631   9.195   6.653   7.893 -0.4359  0.0782  0.3936
21595SOL    HW169632   9.228   6.732   7.850  0.7554 -1.1285 -0.9937
21595SOL    HW269633   9.232   6.655   7.981 -0.4149  1.0473  0.3686
21596SOL     OW69634   3.551   6.182   9.103  0.0537 -0.0630 -0.7969
21596SOL    HW169635   3.579   6.108   9.157 -0.3674 -0.0589 -0.5707
21596SOL    HW269636   3.464   6.204   9.135 -0.3490 -0.2858 -1.7153
21597SOL     OW69637   3.845   8.512   6.501 -0.0630 -0.2787  0.0898
21597SOL    HW169638   3.812   8.596   6.471  0.3656 -0.6386 -1.4760
21597SOL    HW269639   3.931   8.531   6.539 -0.3397  0.0912  0.5445
21598SOL     OW69640   3.133   3.315   1.728 -0.1617  0.2772  0.1200
21598SOL    HW169641   3.150   3.343   1.638 -0.5600  0.6232  0.1501
21598SOL    HW269642   3.188   3.372   1.782 -0.5224  0.6132  0.1421
21599SOL     OW69643   6.507   5.744   1.008  0.1030  0.5132 -0.5081
21599SOL    HW169644   6.435   5.808   1.009 -1.6317 -1.3504 -0.2726
21599SOL    HW269645   6.548   5.752   1.094 -0.5511  0.8204 -0.2176
21600SOL     OW69646   0.418   5.415   7.082  0.2754  0.3057 -0.1444
21600SOL    HW169647   0.326   5.413   7.109  0.6481  1.8148  1.4164
21600SOL    HW269648   0.455   5.334   7.117  0.1796  1.0923  1.9314
21601SOL     OW69649   8.887   9.217   4.000  0.1917  0.2605 -0.1494
21601SOL    HW169650   8.897   9.159   3.924  1.0862 -1.0122  0.8962
21601SOL    HW269651   8.895   9.305   3.963  0.4445 -0.3108 -1.5516
21602SOL     OW69652   5.814   3.055   1.813 -0.8502  0.7757 -0.0472
21602SOL    HW169653   5.840   2.964   1.830  0.0402  0.8927 -0.6688
21602SOL    HW269654   5.721   3.058   1.833 -0.8834 -0.2694  0.0115
21603SOL     OW69655   8.241   6.297   9.484  0.2149 -0.3364 -0.0787
21603SOL    HW169656   8.148   6.275   9.470 -0.2638  0.6030  1.3537
21603SOL    HW269657   8.255   6.374   9.429  0.0128 -0.1938  0.0670
21604SOL     OW69658   1.832   2.202   4.170  0.0360  0.3317 -0.1224
21604SOL    HW169659   1.864   2.193   4.260  0.6472 -0.0115 -0.3708
21604SOL    HW269660   1.753   2.254   4.179 -1.0147 -1.3233  0.8422
21605SOL     OW69661   5.815   7.215   6.664 -0.5265 -0.3022  0.0743
21605SOL    HW169662   5.735   7.183   6.622 -0.5322  0.4513 -0.4941
21605SOL    HW269663   5.844   7.141   6.717 -1.0427 -0.9363 -0.5018
21606SOL     OW69664   6.172   3.351   4.791  0.6171  0.0456  0.9171
21606SOL    HW169665   6.264   3.335   4.769  1.1080 -0.3121  3.0096
21606SOL    HW269666   6.131   3.265   4.787  0.0733  0.3466 -1.0532
21607SOL     OW69667   9.650   4.947   2.326  0.1583  0.1521  0.0779
21607SOL    HW169668   9.628   4.860   2.359 -0.6856  0.8229  1.3692
21607SOL    HW269669   9.677   4.932   2.235 -2.1100 -1.2029 -0.4585
21608SOL     OW69670   7.335   7.218   1.635  0.0271 -0.1904  0.0928
21608SOL    HW169671   7.280   7.261   1.700 -0.1312  1.9407 -1.3438
21608SOL    HW269672   7.278   7.205   1.560  1.2695  1.6646 -1.2677
21609SOL     OW69673   4.612   9.277   0.477 -0.1065  0.3220 -0.0353
21609SOL    HW169674   4.589   9.228   0.555  0.2666  2.8532  1.7789
21609SOL    HW269675   4.532   9.322   0.451 -0.2841 -0.6576 -1.2816
21610SOL     OW69676   9.387   5.804   7.852 -0.8659  0.0860  0.1887
21610SOL    HW169677   9.298   5.816   7.886 -0.9249 -1.4612  0.6229
21610SOL    HW269678   9.439   5.870   7.899 -0.9818 -1.8042  3.2458
21611SOL     OW69679   5.521   9.590   3.647  0.1369 -0.2616  0.1427
21611SOL    HW169680   5.448   9.619   3.703 -2.1211  0.2652 -2.8334
21611SOL    HW269681   5.552   9.670   3.605  1.7643 -0.6510  0.5092
21612SOL     OW69682   4.045   1.592   3.361 -0.8058  0.4016  0.0486
21612SOL    HW169683   4.127   1.578   3.407 -1.2870  1.4181  1.2571
21612SOL    HW269684   3.986   1.524   3.395 -1.3595  1.5581  1.4730
21613SOL     OW69685   4.385   0.840   8.783 -0.1185 -0.2824 -0.0605
21613SOL    HW169686   4.314   0.881   8.831 -0.2661 -2.3483  1.6396
21613SOL    HW269687   4.378   0.874   8.694 -2.5978  0.3222  0.3151
21614SOL     OW69688   4.562   7.978   2.533  0.3098  0.8308 -0.0024
21614SOL    HW169689   4.533   7.912   2.595  0.7445 -0.3579 -1.0346
21614SOL    HW269690   4.634   8.023   2.577 -1.1347  1.8692  1.4214
21615SOL     OW69691   4.300   2.014   1.598  0.1132 -0.1080 -0.1678
21615SOL    HW169692   4.281   1.928   1.560 -0.8619 -0.5454  1.1852
21615SOL    HW269693   4.391   2.031   1.577  0.4240 -1.6518 -0.1572
21616SOL     OW69694   7.509   5.934   9.372  0.2784 -0.6076  0.3622
21616SOL    HW169695   7.556   5.850   9.369  0.3822 -0.5202 -1.8131
21616SOL    HW269696   7.577   5.999   9.356 -0.0166 -0.1802  0.8171
21617SOL     OW69697   1.991   4.419   0.397 -0.4547 -0.0405 -0.1555
21617SOL    HW169698   2.067   4.361   0.393 -0.5310 -0.0797 -1.6906
21617SOL    HW269699   1.926   4.371   0.448 -0.2595 -1.0091 -0.8072
21618SOL     OW69700   3.504   9.027   4.694 -1.2680  0.1384 -0.0284
21618SOL    HW169701   3.498   8.940   4.655  0.2845  0.5633 -1.2834
21618SOL    HW269702   3.501   9.011   4.789  0.0009 -1.3807 -0.2143
21619SOL     OW69703   4.974   2.127   7.887 -0.0780 -0.2522  0.1185
21619SOL    HW169704   4.986   2.119   7.982 -0.0384 -0.0165  0.1326
21619SOL    HW269705   5.054   2.170   7.857  0.2824 -1.0653 -0.1279
21620SOL     OW69706   0.024   7.666   3.415  0.1975  0.2454  0.4067
21620SOL    HW169707   0.099   7.693   3.468  0.1505 -0.4299  0.8174
21620SOL    HW269708   0.039   7.708   3.330  0.7507  0.5707  0.6578
21621SOL     OW69709   3.680   6.941   5.468  0.4000  0.1063  0.1549
21621SOL    HW169710   3.752   6.958   5.530  0.1686 -2.1731  1.1280
21621SOL    HW269711   3.712   6.871   5.412 -0.3477  0.4432 -0.7218
21622SOL     OW69712   9.702   8.896   5.094  0.4012  0.2398  0.1463
21622SOL    HW169713   9.667   8.808   5.089 -0.8966  0.7309  0.2724
21622SOL    HW269714   9.779   8.895   5.038 -0.6948 -0.4543 -1.3980
21623SOL     OW69715   1.821   5.204   9.612 -0.2640 -0.1246 -0.0078
21623SOL    HW169716   1.777   5.119   9.618  0.5962 -0.5371  0.6791
21623SOL    HW269717   1.896   5.196   9.671  0.3266  0.8055 -0.6164
21624SOL     OW69718   1.023   5.537   7.208  0.7315  0.5929  0.0249
21624SOL    HW169719   1.059   5.549   7.119 -1.3488 -0.3490 -1.0042
21624SOL    HW269720   0.929   5.548   7.197  0.3696 -0.2059  2.0218
21625SOL     OW69721   1.309   1.184   6.331 -0.2105  0.1870  0.0845
21625SOL    HW169722   1.363   1.195   6.252 -0.0750  1.4371  0.3267
21625SOL    HW269723   1.371   1.161   6.399 -0.2022  0.0119  0.0178
21626SOL     OW69724   9.322   5.525   6.493 -0.8795 -0.0676 -0.0634
21626SOL    HW169725   9.292   5.504   6.582 -3.6776  0.6038 -0.7438
21626SOL    HW269726   9.417   5.537   6.502 -1.1664  0.8774  3.0263
21627SOL     OW69727   5.129   6.656   9.018  0.2569  0.1791 -0.1607
21627SOL    HW169728   5.135   6.675   8.924 -0.2835 -0.2573 -0.2897
21627SOL    HW269729   5.219   6.653   9.048  0.4088  1.4120 -0.4445
21628SOL     OW69730   1.232   5.297   7.232  0.4253 -0.1636 -0.2302
21628SOL    HW169731   1.250   5.282   7.139  0.0904  2.2659 -0.7553
21628SOL    HW269732   1.319   5.303   7.272  0.6467  0.8108 -0.8027
21629SOL     OW69733   3.891   5.861   2.430  0.1259  0.0321 -0.2525
21629SOL    HW169734   3.915   5.951   2.408 -1.7606  0.8297  0.7509
21629SOL    HW269735   3.832   5.834   2.359 -0.3975  0.0804  0.1623
21630SOL     OW69736   3.765   1.738   7.330  0.0371  0.8196 -0.6827
21630SOL    HW169737   3.705   1.796   7.376  0.2273 -1.0164  2.0771
21630SOL    HW269738   3.848   1.745   7.377  0.0226 -1.7085 -0.1238
21631SOL     OW69739   6.464   9.097   6.478 -0.2513 -0.0189 -0.2484
21631SOL    HW169740   6.525   9.139   6.539 -0.4784 -0.9443  0.6521
21631SOL    HW269741   6.404   9.166   6.452  0.8599  0.7839 -0.7364
21632SOL     OW69742   8.815   5.953   3.166  0.4744  0.6393 -0.3409
21632SOL    HW169743   8.866   6.004   3.229  2.4219 -0.7344 -0.7270
21632SOL    HW269744   8.825   6.000   3.083 -0.4269  1.3505 -0.0642
21633SOL     OW69745   3.736   0.600   9.434 -0.3023  0.5515 -0.2734
21633SOL    HW169746   3.735   0.689   9.400  0.2822  0.4843 -0.4927
21633SOL    HW269747   3.646   0.569   9.426 -0.1711  0.5005 -1.8962
21634SOL     OW69748   4.244   5.016   2.556  0.1485  0.4136  0.3287
21634SOL    HW169749   4.184   5.001   2.628  0.1905  0.2342  0.3270
21634SOL    HW269750   4.188   5.025   2.479  0.1724 -1.0594  0.1043
21635SOL     OW69751   6.883   2.986   3.559  0.6293 -0.1116  0.3923
21635SOL    HW169752   6.849   3.074   3.542 -0.1475 -0.2970  0.8945
21635SOL    HW269753   6.810   2.928   3.537  1.3835 -0.7019 -0.6679
21636SOL     OW69754   0.721   1.157   8.036 -0.5035  0.2658  0.3463
21636SOL    HW169755   0.794   1.141   8.095  0.6713  2.4475 -0.3852
21636SOL    HW269756   0.762   1.187   7.954 -2.1542  2.6903  0.2742
21637SOL     OW69757   1.861   7.769   8.078 -0.3149  0.6781  0.3850
21637SOL    HW169758   1.796   7.797   8.014 -0.5122 -1.0477 -0.2160
21637SOL    HW269759   1.915   7.847   8.093 -0.9862  1.4407 -0.9758
21638SOL     OW69760   3.235   4.676   5.304 -0.0565 -0.0082 -0.6783
21638SOL    HW169761   3.228   4.758   5.254  0.9042  0.2269 -0.4432
21638SOL    HW269762   3.327   4.650   5.295 -0.0172 -0.2954  0.4532
21639SOL     OW69763   8.657   5.912   7.924  0.3243  0.7877 -0.0301
21639SOL    HW169764   8.739   5.892   7.879 -0.1515  0.2084 -0.6641
21639SOL    HW269765   8.648   5.842   7.990  0.6030  1.1542  0.3976
21640SOL     OW69766   1.706   4.536   0.701  0.2809  0.2351 -0.5780
21640SOL    HW169767   1.640   4.470   0.722 -0.5904  0.7543 -1.6005
21640SOL    HW269768   1.658   4.604   0.653  1.4896  0.7884 -1.0412
21641SOL     OW69769   2.848   6.581   6.115 -0.3000  0.7546 -0.1892
21641SOL    HW169770   2.879   6.636   6.043  0.7052  0.6806  0.1801
21641SOL    HW269771   2.865   6.633   6.194  2.3672 -0.7480  0.3465
21642SOL     OW69772   0.116   6.011   7.429  0.2660 -0.3086 -0.0773
21642SOL    HW169773   0.059   6.063   7.485 -0.0045 -1.5739  0.8595
21642SOL    HW269774   0.100   5.920   7.455  1.0551 -0.8519 -1.3495
21643SOL     OW69775   2.666   2.259   6.962 -0.3318 -0.2179 -0.1542
21643SOL    HW169776   2.702   2.289   6.879  1.4443  0.1840  0.6997
21643SOL    HW269777   2.705   2.173   6.975 -1.7271 -0.8955 -0.3999
21644SOL     OW69778   0.818   0.787   5.807 -0.1314 -0.4835 -0.1596
21644SOL    HW169779   0.779   0.705   5.778 -0.1838 -0.4527 -0.1774
21644SOL    HW269780   0.913   0.774   5.799 -0.1566 -0.2315 -1.0323
21645SOL     OW69781   0.569   8.206   8.068 -0.2064  0.1375  0.3031
21645SOL    HW169782   0.653   8.250   8.056 -0.7184  1.2596  0.6394
21645SOL    HW269783   0.538   8.191   7.978 -0.8984  2.2860  0.1173
21646SOL     OW69784   2.681   7.614   8.177 -0.0749 -0.4254  0.3649
21646SOL    HW169785   2.658   7.521   8.179  1.8454 -0.9485  0.2251
21646SOL    HW269786   2.744   7.624   8.249 -0.2569  0.7751  0.3729
21647SOL     OW69787   4.959   9.428   7.785  0.2758 -0.2594  0.0688
21647SOL    HW169788   5.003   9.379   7.716 -1.0087 -0.0525 -0.9474
21647SOL    HW269789   5.018   9.501   7.804  1.0279 -0.7769 -0.2150
21648SOL     OW69790   3.076   8.741   3.051  0.7877  0.3958  0.6627
21648SOL    HW169791   3.094   8.673   3.116  1.4579  0.7039  0.8083
21648SOL    HW269792   3.160   8.757   3.009  1.3161  3.0385  2.4660
21649SOL     OW69793   1.792   9.233   6.220  0.7128  0.6083 -0.4396
21649SOL    HW169794   1.792   9.272   6.308  0.6589  1.4119 -0.7898
21649SOL    HW269795   1.873   9.182   6.217  0.4018  0.0442  0.3010
21650SOL     OW69796   3.054   7.969   5.360  0.2327  0.3692 -0.1433
21650SOL    HW169797   3.075   7.973   5.267  0.6898  2.0764 -0.0040
21650SOL    HW269798   2.961   7.994   5.365  0.1552  0.0876 -0.1485
21651SOL     OW69799   0.121   6.988   7.331 -0.0941 -0.2620 -0.1395
21651SOL    HW169800   0.049   6.926   7.323 -1.9665  1.6967  0.5921
21651SOL    HW269801   0.133   7.022   7.242 -2.2067  1.5571  0.1732
21652SOL     OW69802   5.363   6.374   0.496  0.2434  0.4901  0.2620
21652SOL    HW169803   5.271   6.347   0.496  0.2280  0.5428  0.4397
21652SOL    HW269804   5.391   6.361   0.587  0.9845 -1.5168 -0.1938
21653SOL     OW69805   6.450   7.241   1.389  0.3149  0.0768 -0.0996
21653SOL    HW169806   6.464   7.211   1.479 -1.7711 -1.5149 -0.2299
21653SOL    HW269807   6.434   7.161   1.339  1.4590  0.9212 -1.9481
21654SOL     OW69808   1.825   3.462   9.520  0.4750  0.1836  0.0988
21654SOL    HW169809   1.789   3.512   9.593  0.0924  1.1326 -0.7186
21654SOL    HW269810   1.841   3.374   9.556 -0.2428  0.4703  1.1532
21655SOL     OW69811   7.973   9.432   9.181 -0.9744 -0.1772  0.0255
21655SOL    HW169812   7.947   9.343   9.202 -0.6457 -0.5450 -1.0361
21655SOL    HW269813   7.933   9.448   9.095  1.2320 -0.3213 -1.0939
21656SOL     OW69814   2.669   4.609   2.555  0.2703 -0.4200 -0.0371
21656SOL    HW169815   2.613   4.630   2.630  2.1453 -0.1032  1.3625
21656SOL    HW269816   2.612   4.560   2.495 -2.1641  2.0022  0.0884
21657SOL     OW69817   8.799   2.468   0.212  0.2188 -0.1252 -0.2823
21657SOL    HW169818   8.810   2.482   0.306  0.8541  0.1926 -0.3956
21657SOL    HW269819   8.810   2.555   0.174  0.0408 -0.2658 -0.6571
21658SOL     OW69820   3.526   0.160   4.163  0.2978  0.2356 -0.7269
21658SOL    HW169821   3.583   0.116   4.099  0.8290 -0.2036  0.0375
21658SOL    HW269822   3.572   0.241   4.185  0.1849  0.3183 -0.7949
21659SOL     OW69823   6.327   7.890   1.053  0.0066 -0.1264  0.5332
21659SOL    HW169824   6.379   7.824   1.099  0.6256 -0.0275 -0.0065
21659SOL    HW269825   6.238   7.876   1.083 -0.1850 -2.3636 -0.8416
21660SOL     OW69826   6.258   4.077   5.411  0.5132  0.1518  0.2877
21660SOL    HW169827   6.272   4.131   5.489 -0.0055  3.4717 -1.6957
21660SOL    HW269828   6.346   4.053   5.382  0.9369  1.9240  0.0098
21661SOL     OW69829   1.086   8.890   8.206  0.3740  0.1479 -0.0655
21661SOL    HW169830   1.150   8.926   8.146 -0.5557  0.5934 -0.8229
21661SOL    HW269831   1.072   8.958   8.271  1.1183 -0.1965  0.4718
21662SOL     OW69832   5.300   0.577   8.905 -0.1450  0.1992 -0.1454
21662SOL    HW169833   5.293   0.603   8.997  3.1368  1.8599 -0.2300
21662SOL    HW269834   5.331   0.486   8.908 -0.5396  0.0725  0.3342
21663SOL     OW69835   1.971   3.415   2.154  1.0849 -0.2146  0.3030
21663SOL    HW169836   1.928   3.383   2.234 -0.7855  0.3653 -0.4040
21663SOL    HW269837   2.053   3.366   2.150  1.3365 -0.1077  2.6746
21664SOL     OW69838   6.904   8.062   3.572 -0.2976  0.2929  0.2840
21664SOL    HW169839   6.969   8.109   3.519 -0.8124  2.0417  1.1169
21664SOL    HW269840   6.923   8.088   3.662 -2.0167  0.7385  0.5660
21665SOL     OW69841   0.402   2.906   9.240 -0.0800 -0.2384  0.2790
21665SOL    HW169842   0.380   2.970   9.307 -0.8338 -2.2655  2.0943
21665SOL    HW269843   0.481   2.864   9.273  0.5844 -0.0697 -1.0386
21666SOL     OW69844   6.772   0.570   7.975  0.1809 -0.3308 -0.1436
21666SOL    HW169845   6.721   0.645   7.943 -0.4710 -0.4181  0.6725
21666SOL    HW269846   6.717   0.530   8.041  1.2030 -0.5937  0.5742
21667SOL     OW69847   4.114   4.809   0.932 -0.0596 -0.0015  0.0165
21667SOL    HW169848   4.097   4.751   0.858  0.6326  1.1471 -1.0792
21667SOL    HW269849   4.031   4.856   0.945  0.5666  1.7926 -1.8925
21668SOL     OW69850   1.292   4.409   0.645  0.9215 -0.1897  0.2253
21668SOL    HW169851   1.237   4.331   0.634  0.9369  0.1272 -3.1131
21668SOL    HW269852   1.230   4.482   0.650  0.9536 -0.2358  2.1292
21669SOL     OW69853   1.823   2.724   6.916 -0.0668  0.2956  0.3744
21669SOL    HW169854   1.917   2.712   6.906 -0.0061 -0.5737  1.6340
21669SOL    HW269855   1.803   2.803   6.867  1.5260  1.1605  1.0290
21670SOL     OW69856   9.423   6.571   9.425  0.3588  0.5991 -0.4825
21670SOL    HW169857   9.393   6.497   9.477  0.7825 -0.4742 -1.7369
21670SOL    HW269858   9.505   6.543   9.387  0.9565  2.0356 -0.3288
21671SOL     OW69859   5.145   4.083   2.509 -0.2148 -0.9726 -0.3823
21671SOL    HW169860   5.098   4.000   2.504  0.0004 -1.1007 -0.2991
21671SOL    HW269861   5.082   4.145   2.544 -0.4313 -1.0599 -0.6181
21672SOL     OW69862   0.511   2.503   4.888 -0.3937 -0.5118 -0.3448
21672SOL    HW169863   0.437   2.510   4.828 -2.2262 -2.7357  1.4470
21672SOL    HW269864   0.541   2.412   4.878  0.1070 -0.5348  1.1234
21673SOL     OW69865   4.846   2.724   0.267 -0.2846 -0.0339  0.3938
21673SOL    HW169866   4.757   2.689   0.267  0.2633 -1.5663  2.2804
21673SOL    HW269867   4.840   2.804   0.318 -0.6701  0.1660  0.0422
21674SOL     OW69868   6.025   0.640   8.250  0.2332 -0.2207  0.0107
21674SOL    HW169869   6.035   0.698   8.175  1.3938 -0.4108  0.0036
21674SOL    HW269870   6.041   0.697   8.326  0.3213 -0.3005  0.0526
21675SOL     OW69871   5.062   5.746   2.221 -0.0938  0.2967 -0.3883
21675SOL    HW169872   5.104   5.675   2.172  0.5354 -0.9467  1.7931
21675SOL    HW269873   5.107   5.825   2.193  1.6799 -0.6369 -0.2869
21676SOL     OW69874   4.583   3.954   7.703 -0.0792  0.1092 -0.5917
21676SOL    HW169875   4.639   3.981   7.776 -0.2874 -4.6681  1.7817
21676SOL    HW269876   4.645   3.924   7.636  0.2266 -0.7907  0.0711
21677SOL     OW69877   1.937   3.995   2.708 -0.3780 -0.3679  0.7506
21677SOL    HW169878   1.985   4.071   2.676 -0.8981 -0.8016 -1.1641
21677SOL    HW269879   1.901   3.954   2.629 -2.4680 -1.0213  1.9596
21678SOL     OW69880   0.390   8.999   5.627 -0.6149  0.6964 -0.0118
21678SOL    HW169881   0.484   8.999   5.647 -0.7585 -1.1043  0.8889
21678SOL    HW269882   0.348   8.979   5.711 -1.5739 -1.7249 -0.9838
21679SOL     OW69883   2.175   7.866   9.063  0.2575  1.0058 -0.0792
21679SOL    HW169884   2.241   7.830   9.003 -0.0607 -0.1320  0.2151
21679SOL    HW269885   2.100   7.808   9.052 -0.1377  1.3580  0.7289
21680SOL     OW69886   4.062   9.581   1.082  0.1498  0.1099 -0.1206
21680SOL    HW169887   4.042   9.491   1.057 -1.9162  0.8657 -1.4105
21680SOL    HW269888   4.157   9.580   1.099  0.2574 -2.1879 -0.5126
21681SOL     OW69889   3.946   6.794   6.623  0.5486 -0.0544 -0.0966
21681SOL    HW169890   3.871   6.738   6.643  0.7488 -0.2081  0.2094
21681SOL    HW269891   4.019   6.757   6.671  0.5293  0.8764  0.6832
21682SOL     OW69892   7.673   6.320   6.270  0.1921 -0.3163 -0.0241
21682SOL    HW169893   7.613   6.253   6.303  0.4863 -0.1427  0.8856
21682SOL    HW269894   7.734   6.272   6.214 -1.7511 -0.2736 -2.3492
21683SOL     OW69895   7.505   4.582   0.932 -0.2737  0.2057 -0.0111
21683SOL    HW169896   7.564   4.508   0.920 -0.7074 -0.2457  0.5560
21683SOL    HW269897   7.553   4.642   0.988 -1.0032 -0.9793  1.9951
21684SOL     OW69898   9.605   2.709   5.983  0.1548 -0.6973  0.7104
21684SOL    HW169899   9.550   2.768   6.035 -0.2061 -0.3989  0.0073
21684SOL    HW269900   9.693   2.724   6.017  0.1294  0.5528  0.3016
21685SOL     OW69901   1.319   3.180   5.397  0.5521 -0.1784 -0.0788
21685SOL    HW169902   1.341   3.252   5.338  1.3145 -0.7809 -0.5468
21685SOL    HW269903   1.276   3.115   5.341  0.9134 -0.5798  0.1047
21686SOL     OW69904   3.152   5.952   1.717 -0.2438  0.2760  0.5420
21686SOL    HW169905   3.142   6.018   1.785  1.9066  0.7096  0.5278
21686SOL    HW269906   3.173   5.872   1.764 -0.8643  0.0673  0.4702
21687SOL     OW69907   6.797   7.543   8.961 -0.3943  0.6701 -0.1832
21687SOL    HW169908   6.734   7.573   8.896  0.6191  0.0966 -1.4729
21687SOL    HW269909   6.870   7.605   8.953  0.5156 -0.4647 -0.9096
21688SOL     OW69910   2.526   7.700   2.462 -0.6779 -0.8251 -0.2691
21688SOL    HW169911   2.563   7.622   2.503  1.0426 -0.3537 -0.8392
21688SOL    HW269912   2.579   7.773   2.496 -1.0762 -0.1120 -1.1352
21689SOL     OW69913   7.494   8.218   4.733 -0.4142  0.0736  0.1709
21689SOL    HW169914   7.542   8.244   4.655 -1.5443  4.0885  0.5983
21689SOL    HW269915   7.408   8.192   4.701  0.2381 -1.8641 -0.1327
21690SOL     OW69916   6.502   9.099   0.554 -0.3149  0.5032 -0.0596
21690SOL    HW169917   6.517   9.059   0.469 -1.8583 -1.3246  0.4424
21690SOL    HW269918   6.456   9.181   0.535 -0.1644  0.3749 -1.0057
21691SOL     OW69919   6.050   7.374   9.746 -0.6896  0.0724  0.5551
21691SOL    HW169920   6.106   7.304   9.714  0.3781  0.7744  0.8061
21691SOL    HW269921   5.971   7.368   9.693  0.4673  0.3542 -1.3034
21692SOL     OW69922   1.307   5.437   5.337  0.3874 -0.4827 -0.0371
21692SOL    HW169923   1.360   5.515   5.355 -0.9701  0.0115  2.3093
21692SOL    HW269924   1.359   5.386   5.276  2.9507  0.6039  1.0895
21693SOL     OW69925   0.567   5.723   5.787  0.4405  0.2024 -0.1726
21693SOL    HW169926   0.637   5.658   5.795 -0.2073 -0.6159 -0.9821
21693SOL    HW269927   0.586   5.788   5.855  1.0822 -0.8598  0.6811
21694SOL     OW69928   7.324   9.685   3.226  0.6029  0.4623 -0.0081
21694SOL    HW169929   7.366   9.743   3.289 -1.4503 -0.6568  2.5858
21694SOL    HW269930   7.379   9.606   3.225  0.7448  0.5577  0.2294
21695SOL     OW69931   4.352   1.340   9.538  0.5782  0.3065 -0.4053
21695SOL    HW169932   4.423   1.337   9.473  1.6898 -0.0500  0.7919
21695SOL    HW269933   4.392   1.309   9.619 -0.5846  1.4653  0.6561
21696SOL     OW69934   3.221   2.638   2.732  0.5870 -0.6452 -0.0626
21696SOL    HW169935   3.310   2.611   2.754  0.4929 -1.8235 -1.0406
21696SOL    HW269936   3.194   2.579   2.662 -1.7221 -1.7150  1.5920
21697SOL     OW69937   1.879   1.342   1.299  0.3179  0.2387  0.0126
21697SOL    HW169938   1.822   1.417   1.285 -0.9235 -0.8508 -0.9622
21697SOL    HW269939   1.899   1.344   1.393  0.4432  1.8421 -0.0144
21698SOL     OW69940   3.845   0.810   4.677  0.2023  0.0901 -0.1738
21698SOL    HW169941   3.769   0.777   4.726  0.7007  0.0944  0.6307
21698SOL    HW269942   3.884   0.875   4.736  1.5451 -0.8027 -0.0325
21699SOL     OW69943   2.761   6.381   5.560 -0.1146  1.0109  0.0198
21699SOL    HW169944   2.705   6.427   5.497  0.4719  2.2643  0.3748
21699SOL    HW269945   2.700   6.336   5.618 -0.6806 -1.3743 -2.2082
21700SOL     OW69946   9.507   1.572   5.169 -0.0583  0.3763 -0.2680
21700SOL    HW169947   9.451   1.600   5.097  0.4182  3.2738  0.3631
21700SOL    HW269948   9.454   1.586   5.248  1.0223  1.9078  0.2354
21701SOL     OW69949   5.018   2.987   7.867 -0.4342  0.3920 -0.0116
21701SOL    HW169950   5.046   2.948   7.784  0.0475  0.4453  0.1229
21701SOL    HW269951   4.997   3.077   7.846  2.1828  1.1935  0.3632
21702SOL     OW69952   6.941   9.104   5.568  0.1795 -0.1950  0.5457
21702SOL    HW169953   6.992   9.154   5.632  1.2843  0.6777 -0.9384
21702SOL    HW269954   6.856   9.091   5.610  0.3554  1.6671  1.5993
21703SOL     OW69955   6.103   7.541   1.172  0.7863 -0.1251 -1.0359
21703SOL    HW169956   6.031   7.481   1.189  0.5760  0.3068 -0.3633
21703SOL    HW269957   6.178   7.504   1.219  1.4355 -1.3780 -2.9340
21704SOL     OW69958   0.929   7.208   1.282 -0.1313 -0.4398  0.0057
21704SOL    HW169959   0.853   7.250   1.321  1.6675  1.3444  1.8339
21704SOL    HW269960   0.944   7.131   1.336  1.2793  1.0529  1.8859
21705SOL     OW69961   2.213   9.512   8.115  0.2438 -0.2590  0.8227
21705SOL    HW169962   2.225   9.534   8.207 -0.2863 -1.5189  1.2128
21705SOL    HW269963   2.119   9.494   8.107 -0.2985  2.5003 -0.5874
21706SOL     OW69964   0.939   8.100   7.982  0.3148  0.1850  0.0440
21706SOL    HW169965   0.979   8.148   8.055  2.0639 -0.5622 -0.3824
21706SOL    HW269966   0.956   8.155   7.906 -0.5199  0.4210  0.0230
21707SOL     OW69967   7.077   6.693   6.307  0.1553  0.2425 -0.1118
21707SOL    HW169968   6.991   6.655   6.326 -0.6269  0.3828 -2.9498
21707SOL    HW269969   7.121   6.695   6.392 -2.0196 -1.3354  1.1715
21708SOL     OW69970   8.518   7.165   4.260  0.3734  0.7127  0.2229
21708SOL    HW169971   8.476   7.140   4.178  0.1979  0.5516  0.3623
21708SOL    HW269972   8.538   7.258   4.249 -1.6777  1.2719  0.8424
21709SOL     OW69973   9.567   3.823   7.310 -0.0322  0.1914 -0.0820
21709SOL    HW169974   9.605   3.742   7.276  0.4026  0.7151 -0.8798
21709SOL    HW269975   9.488   3.837   7.256  1.5639  1.9174 -2.1379
21710SOL     OW69976   3.950   6.371   4.986 -0.0233  0.2023 -0.3113
21710SOL    HW169977   3.872   6.370   5.043  1.4047  0.1874  1.7427
21710SOL    HW269978   3.979   6.462   4.987  0.3549  0.0826 -0.5164
21711SOL     OW69979   6.702   5.746   2.792  0.5082  0.4602 -0.2042
21711SOL    HW169980   6.670   5.762   2.703 -0.4967  0.7263  0.1880
21711SOL    HW269981   6.756   5.822   2.812  3.3075 -1.0071 -1.6828
21712SOL     OW69982   7.711   7.255   3.205  0.9163  0.0540 -0.1577
21712SOL    HW169983   7.642   7.225   3.146  0.1562  0.4426  0.5128
21712SOL    HW269984   7.767   7.310   3.151 -0.0704  0.8474 -0.4120
21713SOL     OW69985   7.953   6.893   8.686 -0.4191 -0.6932 -0.1890
21713SOL    HW169986   8.027   6.836   8.708  0.6734  0.3432 -1.0429
21713SOL    HW269987   7.886   6.872   8.751  1.2588 -0.4149  1.7350
21714SOL     OW69988   0.586   4.697   2.433  0.1723 -0.2150 -0.2943
21714SOL    HW169989   0.602   4.742   2.351  0.8686  0.2927  0.1049
21714SOL    HW269990   0.659   4.724   2.490  0.7520 -2.0431 -0.1192
21715SOL     OW69991   5.279   9.157   4.107 -0.1870 -0.1268  0.6526
21715SOL    HW169992   5.348   9.108   4.151 -0.0677  0.6170  1.3106
21715SOL    HW269993   5.325   9.214   4.046 -0.3043 -0.5403  0.1683
21716SOL     OW69994   3.756   5.440   9.493  0.1694 -0.1921  0.0915
21716SOL    HW169995   3.778   5.509   9.431  0.6852  0.6266  1.1552
21716SOL    HW269996   3.666   5.415   9.469  0.4470 -0.0972 -1.1371
21717SOL     OW69997   0.869   8.318   5.444  0.7121 -0.4418 -0.4100
21717SOL    HW169998   0.920   8.274   5.512  0.1068 -1.6434 -0.7107
21717SOL    HW269999   0.864   8.255   5.373  0.9798  0.6410 -1.4265
21718SOL     OW70000   4.637   8.803   6.294 -0.4820  0.1163 -0.1487
21718SOL    HW170001   4.687   8.823   6.215  0.8942 -1.2149  0.3527
21718SOL    HW270002   4.696   8.823   6.366 -1.9544  1.9839  0.6355
21719SOL     OW70003   8.205   4.853   2.808  0.5882 -0.2760 -0.2256
21719SOL    HW170004   8.178   4.765   2.836 -2.4863  0.1338 -1.5311
21719SOL    HW270005   8.130   4.886   2.758  1.8737  2.8913 -0.2504
21720SOL     OW70006   2.499   4.463   8.650  0.2386 -0.6723  0.7360
21720SOL    HW170007   2.587   4.491   8.671 -0.0641 -0.1082  1.2735
21720SOL    HW270008   2.475   4.514   8.573 -0.0647  0.0752  1.3167
21721SOL     OW70009   0.902   2.579   7.562  0.0844  0.3306 -0.1900
21721SOL    HW170010   0.892   2.622   7.477  1.0924 -0.9132 -0.9695
21721SOL    HW270011   0.824   2.526   7.571  0.0924  0.2760 -0.4472
21722SOL     OW70012   3.591   3.162   5.493 -0.1860 -0.0891 -0.6493
21722SOL    HW170013   3.606   3.072   5.519  0.1587 -0.1136 -0.9198
21722SOL    HW270014   3.556   3.205   5.571 -0.9678 -0.6115 -0.7103
21723SOL     OW70015   3.736   3.950   0.665 -0.0546  0.1871  0.6422
21723SOL    HW170016   3.775   4.033   0.637 -1.1727  0.7189  0.6160
21723SOL    HW270017   3.797   3.884   0.635  0.7109  0.9868  0.3970
21724SOL     OW70018   0.458   7.169   1.521 -0.0545  0.4963 -0.5739
21724SOL    HW170019   0.394   7.175   1.449  0.7660  0.6399 -1.3012
21724SOL    HW270020   0.414   7.116   1.587 -0.2387 -0.9803 -1.8222
21725SOL     OW70021   8.894   7.759   8.022 -0.3494  0.0114  0.1051
21725SOL    HW170022   8.958   7.788   7.956  1.3178 -0.5376  1.4064
21725SOL    HW270023   8.813   7.803   7.998  0.4020  0.4193 -1.8637
21726SOL     OW70024   7.030   3.979   1.837  0.5297  0.4626 -0.4415
21726SOL    HW170025   6.938   3.995   1.856  0.8959  1.8547  0.2834
21726SOL    HW270026   7.052   4.041   1.768  0.3303 -1.5634 -2.4233
21727SOL     OW70027   1.406   8.240   2.870 -0.1880  0.3082 -0.1700
21727SOL    HW170028   1.370   8.329   2.870 -0.6726  0.1396  1.3394
21727SOL    HW270029   1.363   8.196   2.943  2.8979  0.0219  1.6561
21728SOL     OW70030   5.551   7.254   6.929  0.6362 -0.1618 -0.0381
21728SOL    HW170031   5.597   7.296   6.857 -1.5551  0.7297 -0.9942
21728SOL    HW270032   5.604   7.273   7.006  2.5465 -0.3509 -1.2326
21729SOL     OW70033   4.501   9.166   8.730 -0.0806 -0.2866  0.1389
21729SOL    HW170034   4.476   9.160   8.638 -1.5896  0.6862  0.4495
21729SOL    HW270035   4.511   9.076   8.759 -3.0314 -0.7841 -0.1189
21730SOL     OW70036   9.573   6.447   0.673  0.5204 -0.3905  0.4801
21730SOL    HW170037   9.493   6.421   0.720  0.4340 -1.7597 -0.3677
21730SOL    HW270038   9.550   6.437   0.581  0.9152  1.5519  0.1413
21731SOL     OW70039   8.417   6.229   4.824 -0.2993 -0.4566  0.6881
21731SOL    HW170040   8.439   6.284   4.749 -0.3687  0.3661  1.2588
21731SOL    HW270041   8.489   6.242   4.885 -0.7854 -0.2592  1.2249
21732SOL     OW70042   5.562   6.301   2.009 -0.2602 -0.1333  0.1608
21732SOL    HW170043   5.501   6.365   1.973  1.8208  2.9247  1.6636
21732SOL    HW270044   5.632   6.296   1.945  0.6008  0.7865  0.9974
21733SOL     OW70045   5.436   4.628   5.517  0.3473  0.4814 -0.2938
21733SOL    HW170046   5.383   4.708   5.515 -0.9459 -0.3108  0.3496
21733SOL    HW270047   5.395   4.570   5.453  1.7533  0.5860 -1.3335
21734SOL     OW70048   1.716   7.094   5.546 -0.2231 -0.6487  0.2590
21734SOL    HW170049   1.745   7.030   5.481 -1.0891 -1.4882  0.6784
21734SOL    HW270050   1.777   7.168   5.536  0.1759 -1.1177 -0.9103
21735SOL     OW70051   8.461   4.758   7.327  0.3094 -0.0030  0.3626
21735SOL    HW170052   8.371   4.778   7.355 -0.1591  0.0355 -1.0974
21735SOL    HW270053   8.515   4.781   7.403 -0.7665  1.4317  0.7367
21736SOL     OW70054   8.530   3.081   6.309  0.4902  0.8547  0.3388
21736SOL    HW170055   8.517   2.988   6.292  0.7311  0.8035  0.4351
21736SOL    HW270056   8.529   3.088   6.405  1.4213  0.8153  0.3564
21737SOL     OW70057   6.566   0.833   0.373 -0.3233  0.2138 -0.7574
21737SOL    HW170058   6.573   0.846   0.467  1.6859  1.4840 -1.0270
21737SOL    HW270059   6.473   0.814   0.358 -1.2583  2.6927  1.1702
21738SOL     OW70060   1.493   6.037   6.540  0.0058  0.7703 -0.5486
21738SOL    HW170061   1.495   6.113   6.598 -1.1096  0.7405 -0.4408
21738SOL    HW270062   1.402   6.033   6.509 -0.0586 -0.7306 -0.2572
21739SOL     OW70063   5.103   4.338   9.688  0.2388 -0.2531  0.3571
21739SOL    HW170064   5.023   4.384   9.664 -0.3361  0.1188  2.7934
21739SOL    HW270065   5.147   4.321   9.604 -1.3820  1.3242 -0.8748
21740SOL     OW70066   7.688   8.669   8.548  0.5734  0.4977 -0.4616
21740SOL    HW170067   7.750   8.710   8.488  2.8503  0.7693  1.9152
21740SOL    HW270068   7.680   8.731   8.620 -2.7498  0.5901 -0.7322
21741SOL     OW70069   1.245   9.349   7.884  0.5020  0.2761  0.7542
21741SOL    HW170070   1.191   9.415   7.840 -1.7834 -0.9595  1.5429
21741SOL    HW270071   1.280   9.394   7.960  1.7423  1.4766 -0.4650
21742SOL     OW70072   2.892   2.627   2.641  0.3109  0.0037  0.3603
21742SOL    HW170073   2.936   2.712   2.629 -2.1984  1.1576 -1.5039
21742SOL    HW270074   2.883   2.593   2.552 -3.7392  0.5364  0.4214
21743SOL     OW70075   1.402   0.277   1.691 -0.0152  0.0298  0.5343
21743SOL    HW170076   1.487   0.282   1.648 -0.1994 -0.3504  0.1136
21743SOL    HW270077   1.339   0.274   1.620 -0.6455  3.4108  0.7810
21744SOL     OW70078   7.897   1.464   0.944  0.7310 -0.0820 -0.4331
21744SOL    HW170079   7.876   1.371   0.940  0.5165 -0.1097  0.9766
21744SOL    HW270080   7.957   1.473   1.018  0.4448  0.9473 -0.3037
21745SOL     OW70081   3.972   1.539   7.659 -0.4228  0.3620  0.5077
21745SOL    HW170082   4.017   1.462   7.694 -0.8356 -0.2235 -0.2170
21745SOL    HW270083   3.880   1.526   7.686 -0.7188 -0.0232 -0.6459
21746SOL     OW70084   6.270   2.403   4.943 -0.9582 -0.0981 -0.2201
21746SOL    HW170085   6.226   2.347   5.008  0.7922 -0.9918  0.2660
21746SOL    HW270086   6.317   2.468   4.996 -0.3317 -0.2181 -0.6182
21747SOL     OW70087   7.007   4.642   3.157 -0.1030  0.2507 -0.0961
21747SOL    HW170088   6.993   4.547   3.158  1.2301 -0.0005 -1.3577
21747SOL    HW270089   7.011   4.664   3.064 -2.8881  1.9988  0.0787
21748SOL     OW70090   0.763   4.693   5.743 -0.0953 -1.1166 -0.0420
21748SOL    HW170091   0.839   4.722   5.793 -1.4979  1.7074  0.6883
21748SOL    HW270092   0.688   4.732   5.789 -1.8042 -1.9271 -1.9796
21749SOL     OW70093   5.073   1.733   2.617  0.2931  0.3273  0.1569
21749SOL    HW170094   5.046   1.641   2.628  0.3200  0.4149  1.0490
21749SOL    HW270095   5.167   1.732   2.633  0.2726  0.5316  0.2890
21750SOL     OW70096   1.285   2.424   0.209 -0.1232 -0.0238 -0.4183
21750SOL    HW170097   1.211   2.472   0.246  0.9241 -0.3200  2.3141
21750SOL    HW270098   1.362   2.478   0.230  0.6192 -0.5990 -1.5493
21751SOL     OW70099   0.635   0.005   3.790  0.0320 -0.4917 -0.2245
21751SOL    HW170100   0.652  -0.061   3.722  0.5085 -0.3700 -0.2314
21751SOL    HW270101   0.558   0.052   3.759  1.4023  0.9128 -1.7507
21752SOL     OW70102   6.285   3.467   4.093 -0.1272 -0.2255 -0.2453
21752SOL    HW170103   6.308   3.392   4.148 -0.3767 -0.2117 -0.1214
21752SOL    HW270104   6.304   3.438   4.004 -3.4755 -1.7404 -0.5877
21753SOL     OW70105   1.551   3.977   4.348  0.3329  0.4283  0.1704
21753SOL    HW170106   1.641   3.993   4.374  0.9394 -1.3206 -0.6601
21753SOL    HW270107   1.545   4.011   4.259 -0.3068  1.9502  0.7704
21754SOL     OW70108   5.693   9.277   0.813  0.0961 -0.0541 -0.0622
21754SOL    HW170109   5.688   9.361   0.858 -2.0778  1.9728 -3.6991
21754SOL    HW270110   5.775   9.282   0.763  1.1474 -1.1862  1.4495
21755SOL     OW70111   5.842   5.061   5.480 -0.0045  0.0890 -0.2055
21755SOL    HW170112   5.779   4.991   5.460  0.3728 -0.1803 -0.4695
21755SOL    HW270113   5.877   5.087   5.395  0.0990  0.3685 -0.0766
21756SOL     OW70114   2.825   9.290   4.820 -0.0114  0.0554 -0.1330
21756SOL    HW170115   2.866   9.376   4.832 -0.5534  0.6023 -1.8994
21756SOL    HW270116   2.835   9.247   4.905 -0.7656  2.3032  1.1943
21757SOL     OW70117   4.794   7.067   1.789 -0.1612  0.8507  0.1026
21757SOL    HW170118   4.814   7.160   1.783  0.4173  0.7039 -0.3483
21757SOL    HW270119   4.760   7.055   1.877  1.3198  1.2037  0.7560
21758SOL     OW70120   6.996   5.452   6.908 -0.3121 -0.0003  0.2210
21758SOL    HW170121   6.920   5.410   6.947 -0.8621  0.0104 -0.7893
21758SOL    HW270122   6.959   5.513   6.843  0.5481  0.0438 -0.2534
21759SOL     OW70123   2.981   5.112   6.990 -0.2554  0.3799 -0.1985
21759SOL    HW170124   2.962   5.063   6.910  0.6598 -0.6609  0.1917
21759SOL    HW270125   3.039   5.183   6.961  5.2853 -3.3533  0.1034
21760SOL     OW70126   6.125   9.029   2.851  0.1069 -0.0729  0.1065
21760SOL    HW170127   6.165   9.112   2.875  0.0197  0.0981 -0.3430
21760SOL    HW270128   6.047   9.053   2.801 -0.3323 -0.4106  0.6120
21761SOL     OW70129   2.784   8.593   2.555  0.0467 -0.1545 -0.1665
21761SOL    HW170130   2.879   8.593   2.542 -0.1853 -0.2296 -2.0787
21761SOL    HW270131   2.763   8.684   2.577  0.6847 -0.4010  1.6594
21762SOL     OW70132   2.757   8.918   8.036  0.3651 -0.5683  0.1971
21762SOL    HW170133   2.742   8.824   8.047  1.3713 -0.8101 -0.3342
21762SOL    HW270134   2.811   8.924   7.957  1.6717  0.3291  1.1064
21763SOL     OW70135   6.827   5.299   4.509  0.4225  0.3544 -0.0883
21763SOL    HW170136   6.784   5.218   4.537  0.6066  0.3524  0.2058
21763SOL    HW270137   6.919   5.274   4.500  0.1827  0.0468 -1.9528
21764SOL     OW70138   8.156   7.889   4.797 -0.3592  0.0411 -0.2475
21764SOL    HW170139   8.163   7.952   4.868 -2.0456  0.0486 -0.0390
21764SOL    HW270140   8.227   7.827   4.812  2.2357  2.5672 -1.2259
21765SOL     OW70141   2.542   9.267   0.322  0.5658 -0.2959  0.0942
21765SOL    HW170142   2.581   9.181   0.337  1.1205 -0.0036  0.3807
21765SOL    HW270143   2.618   9.326   0.312  0.1993  0.1145 -0.3655
21766SOL     OW70144   9.122   4.679   8.484 -0.9169  0.2897 -0.2515
21766SOL    HW170145   9.156   4.663   8.572  1.2102 -1.1093 -1.2674
21766SOL    HW270146   9.138   4.772   8.468 -1.1145  0.5019  0.7287
21767SOL     OW70147   6.315   4.889   7.914 -0.0091 -0.0526 -0.3733
21767SOL    HW170148   6.345   4.825   7.849  2.3257  0.4548  0.0950
21767SOL    HW270149   6.287   4.964   7.863 -1.1940 -0.8075 -0.8702
21768SOL     OW70150   2.659   2.639   4.808  0.8127 -0.1718 -0.3829
21768SOL    HW170151   2.625   2.701   4.872  0.2018 -1.6348  0.7917
21768SOL    HW270152   2.753   2.638   4.823  0.8012  0.3071 -0.2698
21769SOL     OW70153   7.438   9.453   8.122  0.1723  0.4685 -0.2023
21769SOL    HW170154   7.438   9.548   8.111 -1.1287  0.4131 -0.8204
21769SOL    HW270155   7.385   9.438   8.201  1.1671  0.2927  0.4531
21770SOL     OW70156   8.436   7.029   3.148  0.6591 -0.0917 -0.3794
21770SOL    HW170157   8.511   7.086   3.131  1.9400 -1.8590 -0.8694
21770SOL    HW270158   8.372   7.087   3.190  0.9332  2.2868 -2.9060
21771SOL     OW70159   1.056   2.550   5.751 -0.6422  0.5746  0.4173
21771SOL    HW170160   1.138   2.521   5.790 -0.8622 -1.2206 -0.3479
21771SOL    HW270161   1.054   2.645   5.765  0.7948  0.4281  1.8375
21772SOL     OW70162   7.731   6.884   2.070  0.1509 -0.2675  0.4067
21772SOL    HW170163   7.692   6.954   2.123  1.3059  1.3422 -0.7514
21772SOL    HW270164   7.670   6.872   1.997  1.5320  2.1041 -1.2919
21773SOL     OW70165   3.852   9.510   4.346  0.0602  0.3406  0.3055
21773SOL    HW170166   3.844   9.421   4.380 -0.0749  0.5415  0.8131
21773SOL    HW270167   3.885   9.499   4.257  2.7627 -0.1072  1.2862
21774SOL     OW70168   8.360   3.986   5.722 -0.3179  0.3879  0.6354
21774SOL    HW170169   8.393   3.962   5.808  0.6925  1.3046  0.5236
21774SOL    HW270170   8.384   4.078   5.712  1.0742 -0.1348 -1.3052
21775SOL     OW70171   9.169   0.922   7.294  0.1194  0.6810 -0.4471
21775SOL    HW170172   9.143   0.901   7.204 -1.3542  1.6384 -0.2675
21775SOL    HW270173   9.131   0.853   7.347  1.6742 -0.3489 -0.5937
21776SOL     OW70174   2.531   8.679   4.809  0.7286 -0.1236  0.5208
21776SOL    HW170175   2.540   8.594   4.765 -0.7668  0.4645 -1.0231
21776SOL    HW270176   2.452   8.717   4.772  0.8815  1.5936  1.8287
21777SOL     OW70177   8.304   6.432   1.721 -0.2033 -0.3576 -0.0556
21777SOL    HW170178   8.232   6.417   1.661 -1.1068  0.8717  0.6785
21777SOL    HW270179   8.352   6.506   1.684  0.5228 -0.9668 -0.3728
21778SOL     OW70180   1.726   4.970   6.222  0.0822 -0.4849  0.1587
21778SOL    HW170181   1.743   5.029   6.148 -1.0565 -0.6858 -0.2947
21778SOL    HW270182   1.748   4.883   6.189 -0.6506 -0.6038 -0.0421
21779SOL     OW70183   6.348   6.023   2.059 -0.1407  0.0728  0.3961
21779SOL    HW170184   6.405   6.073   2.118 -2.1941  0.0318  2.5440
21779SOL    HW270185   6.263   6.066   2.066 -0.9178 -1.1219 -1.1001
21780SOL     OW70186   9.388   5.133   7.460  0.0713 -0.1921  0.2409
21780SOL    HW170187   9.311   5.189   7.456 -0.8433 -1.1648  2.4129
21780SOL    HW270188   9.405   5.108   7.370 -1.2499  1.2219 -0.4485
21781SOL     OW70189   2.293   9.036   2.154 -0.7678  0.8653  0.8975
21781SOL    HW170190   2.241   9.080   2.087 -1.2107  3.0733  2.5699
21781SOL    HW270191   2.377   9.082   2.155  0.4006 -1.1001 -0.1177
21782SOL     OW70192   7.234   8.234   9.336  0.1414  0.0147  0.8207
21782SOL    HW170193   7.182   8.282   9.400  1.1567  1.0728  0.8974
21782SOL    HW270194   7.301   8.189   9.388  0.9829  0.8957  0.5265
21783SOL     OW70195   8.003   5.476   9.699 -0.7595 -0.1158  0.1026
21783SOL    HW170196   8.073   5.411   9.699  1.2966  1.9737  0.6902
21783SOL    HW270197   7.946   5.451   9.772  0.7115 -0.5237  1.1422
21784SOL     OW70198   1.985   4.810   7.574  0.1380 -0.1101 -0.2222
21784SOL    HW170199   1.937   4.888   7.547 -2.3116 -1.9323 -1.6686
21784SOL    HW270200   1.939   4.780   7.653 -0.7982 -1.5017 -1.2289
21785SOL     OW70201   6.753   7.231   1.907 -0.8001  0.3618  0.2198
21785SOL    HW170202   6.828   7.218   1.965 -1.7372  0.1799  1.4512
21785SOL    HW270203   6.727   7.143   1.880 -0.1543  0.4663 -0.7847
21786SOL     OW70204   7.671   7.239   2.850 -0.1866  0.3781  0.3285
21786SOL    HW170205   7.637   7.182   2.781  0.4259 -2.4763  2.2033
21786SOL    HW270206   7.762   7.211   2.861 -0.3027  0.6734  2.3403
21787SOL     OW70207   3.845   4.795   6.449  0.4963  0.0840 -0.4146
21787SOL    HW170208   3.753   4.801   6.425  0.6809  0.5561 -1.0421
21787SOL    HW270209   3.883   4.878   6.420  1.3987 -0.6617 -1.4690
21788SOL     OW70210   9.582   3.486   5.459  0.3164  0.9803 -0.6522
21788SOL    HW170211   9.641   3.415   5.434 -1.7290 -0.3978 -1.8931
21788SOL    HW270212   9.602   3.502   5.551 -0.4634 -2.6806  0.3388
21789SOL     OW70213   8.822   6.714   6.349  0.6902 -0.1622 -0.5129
21789SOL    HW170214   8.862   6.663   6.278  0.4897 -1.1559  0.0748
21789SOL    HW270215   8.828   6.805   6.319  2.4329 -0.3774 -0.9041
21790SOL     OW70216   3.807   2.232   3.155 -0.2756 -0.4456 -0.2384
21790SOL    HW170217   3.894   2.195   3.142  0.1742  0.4803  0.0324
21790SOL    HW270218   3.821   2.308   3.212 -1.1757  0.0679 -0.6709
21791SOL     OW70219   0.542   9.151   7.019  0.4110  0.4604 -0.7252
21791SOL    HW170220   0.520   9.065   7.056  3.0249 -0.8022 -1.8540
21791SOL    HW270221   0.490   9.213   7.071 -1.2239 -1.7182  0.4370
21792SOL     OW70222   8.157   6.797   3.932 -0.0863  0.2734  0.1842
21792SOL    HW170223   8.198   6.732   3.989 -0.6484 -0.4780 -0.2568
21792SOL    HW270224   8.204   6.789   3.849 -0.7893 -0.2515 -0.1714
21793SOL     OW70225   1.390   4.428   6.966  0.0052 -0.0560  0.0230
21793SOL    HW170226   1.459   4.491   6.946 -0.5943  0.3036 -0.9452
21793SOL    HW270227   1.314   4.482   6.989 -1.3493 -0.2641 -3.4528
21794SOL     OW70228   0.090   3.955   7.012 -0.0982  0.0853  0.3669
21794SOL    HW170229   0.045   4.022   7.063 -0.9110 -0.3169  0.1929
21794SOL    HW270230   0.047   3.957   6.926  1.1716  0.6728 -0.2835
21795SOL     OW70231   0.344   0.133   0.594 -0.0149 -0.9992 -0.0577
21795SOL    HW170232   0.410   0.108   0.659  1.4282 -0.0214 -1.0891
21795SOL    HW270233   0.327   0.053   0.545  2.2795 -0.7578 -1.3691
21796SOL     OW70234   3.048   8.265   9.282 -0.0466  0.3380  0.3687
21796SOL    HW170235   3.117   8.312   9.235 -0.0507 -0.8730 -0.8904
21796SOL    HW270236   3.048   8.177   9.244  0.1188 -0.8163  2.8047
21797SOL     OW70237   1.184   7.747   3.329 -0.0504 -0.3913  0.1362
21797SOL    HW170238   1.141   7.666   3.355  0.8918 -1.0730 -0.3604
21797SOL    HW270239   1.229   7.726   3.247 -0.6586  0.9307 -0.5706
21798SOL     OW70240   1.766   9.721   4.809  0.4141 -0.2571  0.1288
21798SOL    HW170241   1.827   9.781   4.766  1.8258 -1.4758  0.3516
21798SOL    HW270242   1.697   9.778   4.842  1.0680  1.1006 -0.7325
21799SOL     OW70243   1.617   1.702   4.844 -0.3696  0.3643 -0.5792
21799SOL    HW170244   1.632   1.794   4.824  1.2486  0.2431 -0.0400
21799SOL    HW270245   1.598   1.662   4.759 -0.4954  1.0858 -0.8983
21800SOL     OW70246   2.057   0.705   1.687 -0.6372 -0.0456 -0.3764
21800SOL    HW170247   2.066   0.778   1.626 -0.3226 -0.6471 -1.0642
21800SOL    HW270248   2.039   0.746   1.772  2.9937  1.0493  0.0164
21801SOL     OW70249   2.619   4.313   7.875 -0.2772  0.2921 -0.1264
21801SOL    HW170250   2.620   4.273   7.962 -0.9931 -2.0811 -1.1145
21801SOL    HW270251   2.705   4.354   7.866 -0.3753  1.0246  1.8583
21802SOL     OW70252   1.293   6.179   1.636 -0.0245  0.0315 -0.2571
21802SOL    HW170253   1.236   6.111   1.672 -2.0943  1.3813 -0.8121
21802SOL    HW270254   1.288   6.167   1.541  0.6076  0.1703 -0.3077
21803SOL     OW70255   5.073   4.899   5.202  0.2051  0.9714 -0.3465
21803SOL    HW170256   5.159   4.940   5.204  0.1657  1.0719 -0.7227
21803SOL    HW270257   5.046   4.895   5.294  1.3911 -0.6929 -0.0142
21804SOL     OW70258   9.184   0.254   8.054 -0.5170  0.2938 -0.3773
21804SOL    HW170259   9.201   0.235   7.962 -1.1445  0.0940 -0.4610
21804SOL    HW270260   9.165   0.347   8.056  2.0106  0.8594 -0.0525
21805SOL     OW70261   5.185   8.007   6.928 -0.4426 -0.0454 -0.2323
21805SOL    HW170262   5.145   7.959   6.855  0.7028  2.0265 -2.3567
21805SOL    HW270263   5.114   8.061   6.963 -0.3564  1.1587 -1.8166
21806SOL     OW70264   2.278   7.423   8.706 -0.0233  0.0546  0.2226
21806SOL    HW170265   2.310   7.334   8.716 -1.5776 -0.5538  0.0840
21806SOL    HW270266   2.322   7.473   8.776  2.4717 -0.3052 -0.9927
21807SOL     OW70267   7.874   5.678   1.451  0.4617  0.4418 -0.2498
21807SOL    HW170268   7.904   5.603   1.503  1.3277  0.3606 -0.8326
21807SOL    HW270269   7.832   5.638   1.375  0.1285  0.5555 -0.1265
21808SOL     OW70270   1.347   0.193   7.575 -0.1206 -0.4389  0.0100
21808SOL    HW170271   1.348   0.275   7.526  1.1315 -0.7645 -0.5512
21808SOL    HW270272   1.352   0.219   7.667 -0.6736  0.1261 -0.1122
21809SOL     OW70273   6.905   9.305   7.807 -0.0183  0.6320  0.2410
21809SOL    HW170274   6.862   9.322   7.724  1.5195  1.1963 -0.4857
21809SOL    HW270275   6.851   9.239   7.850  0.3909 -1.4977 -2.2789
21810SOL     OW70276   1.830   7.231   2.624  0.0673  0.5277  0.1907
21810SOL    HW170277   1.885   7.156   2.648  0.6541  0.5990 -0.8915
21810SOL    HW270278   1.821   7.225   2.529 -0.5397  1.3828  0.1859
21811SOL     OW70279   0.716   5.487   7.175 -0.0647 -0.5640  0.0882
21811SOL    HW170280   0.748   5.527   7.094  0.9769 -0.8915  0.3299
21811SOL    HW270281   0.685   5.401   7.149 -0.0791 -0.5249 -0.0249
21812SOL     OW70282   5.642   2.585   0.182  0.2243  0.4919  0.1241
21812SOL    HW170283   5.635   2.506   0.237  0.0369  0.4094 -0.0150
21812SOL    HW270284   5.735   2.606   0.182  0.1254  0.9476  1.1057
21813SOL     OW70285   2.912   6.308   3.298  0.3406 -0.2979 -0.1119
21813SOL    HW170286   2.886   6.339   3.384  0.2334  1.5348 -0.7677
21813SOL    HW270287   2.959   6.226   3.315  0.2523 -0.0202  1.6541
21814SOL     OW70288   2.605   8.531   3.013  0.0718  0.1526  0.3798
21814SOL    HW170289   2.685   8.583   3.017  0.9344 -1.2499  2.9350
21814SOL    HW270290   2.633   8.446   2.980 -0.1480 -0.6723  2.2521
21815SOL     OW70291   2.622   8.328   7.322  0.6515 -0.0935  0.1816
21815SOL    HW170292   2.698   8.283   7.284 -0.2930 -0.1923 -1.6918
21815SOL    HW270293   2.547   8.277   7.294 -0.3187  1.5960 -0.4321
21816SOL     OW70294   4.121   4.648   6.244  0.2429  0.1326  0.1524
21816SOL    HW170295   4.044   4.682   6.198 -0.1882 -0.3194  0.5299
21816SOL    HW270296   4.181   4.722   6.247 -0.1524  0.4755 -0.2014
21817SOL     OW70297   8.142   6.077   6.632  0.1890  0.4472  0.0846
21817SOL    HW170298   8.214   6.084   6.569  0.4381 -0.9582  0.1731
21817SOL    HW270299   8.185   6.077   6.717  0.2302 -1.5703  0.1039
21818SOL     OW70300   1.192   8.389   2.157 -0.1344 -0.0140  0.5236
21818SOL    HW170301   1.201   8.481   2.181 -2.0878 -0.0348  1.5427
21818SOL    HW270302   1.178   8.343   2.240  0.1539 -1.1386 -0.0266
21819SOL     OW70303   7.236   3.028   7.729 -0.2855  0.2840  0.3749
21819SOL    HW170304   7.258   2.977   7.652 -1.0321 -1.2512  1.1427
21819SOL    HW270305   7.320   3.044   7.772  0.0954  0.8509 -0.5456
21820SOL     OW70306   0.791   8.059   7.597  0.2083  0.3446 -0.0686
21820SOL    HW170307   0.722   8.107   7.551  0.5009  0.1898 -0.6879
21820SOL    HW270308   0.744   7.989   7.644 -0.2090  1.1760  0.7835
21821SOL     OW70309   1.462   7.229   6.005  0.0556 -0.3434  0.1659
21821SOL    HW170310   1.462   7.262   6.095 -1.5094 -0.8114  0.3556
21821SOL    HW270311   1.404   7.153   6.007 -0.7078  0.1511 -1.4137
21822SOL     OW70312   6.313   8.615   1.831  0.2848 -0.1214  0.0660
21822SOL    HW170313   6.401   8.619   1.794 -0.4661  1.6635 -1.7168
21822SOL    HW270314   6.293   8.521   1.835  2.3693 -0.5908  0.8912
21823SOL     OW70315   8.231   5.569   6.172  0.2356  0.3262 -0.4377
21823SOL    HW170316   8.180   5.620   6.110 -1.6065  0.3698  1.0217
21823SOL    HW270317   8.253   5.631   6.241 -1.0906 -0.5328  0.8154
21824SOL     OW70318   3.487   2.990   1.516 -0.7319  0.0922 -0.2507
21824SOL    HW170319   3.541   3.040   1.454  0.3748 -0.2913  0.3697
21824SOL    HW270320   3.449   2.920   1.463  1.3176 -1.0714 -0.2610
21825SOL     OW70321   3.135   8.240   4.077 -0.1185 -0.2370 -0.0604
21825SOL    HW170322   3.201   8.186   4.034 -0.3624 -1.6430  1.2490
21825SOL    HW270323   3.075   8.178   4.117 -1.2110  1.0133  0.3250
21826SOL     OW70324   9.448   0.058   7.792  0.2401 -0.1303  0.1104
21826SOL    HW170325   9.501   0.095   7.721 -0.1735  1.7753  0.7251
21826SOL    HW270326   9.504   0.064   7.869 -0.3533  0.6102  0.4964
21827SOL     OW70327   8.563   7.397   4.706  0.5509 -0.2816  0.4331
21827SOL    HW170328   8.579   7.317   4.656  1.8090  1.2199 -1.7161
21827SOL    HW270329   8.640   7.407   4.762  1.9309  0.9749 -1.5756
21828SOL     OW70330   6.958   4.917   9.352 -0.2622 -0.1491 -0.1119
21828SOL    HW170331   7.022   4.859   9.392 -0.1798 -0.6273 -0.9093
21828SOL    HW270332   6.891   4.857   9.317  1.4100 -0.1420 -3.8916
21829SOL     OW70333   1.559   2.127   0.230 -0.2028 -0.3986 -0.1868
21829SOL    HW170334   1.564   2.203   0.287 -0.7454  0.9613 -1.8525
21829SOL    HW270335   1.470   2.094   0.240 -0.5866  0.3821 -0.8521
21830SOL     OW70336   6.223   6.499   4.695  0.1032 -0.0121 -0.4681
21830SOL    HW170337   6.174   6.485   4.776  0.0988  0.6193 -0.3579
21830SOL    HW270338   6.156   6.505   4.627  0.1473 -1.8818 -0.7555
21831SOL     OW70339   1.965   5.402   3.936  0.6166 -0.2088  0.0398
21831SOL    HW170340   2.052   5.435   3.916  0.5835 -0.7544 -1.0797
21831SOL    HW270341   1.910   5.480   3.942  0.9551  0.0644 -0.3994
21832SOL     OW70342   4.105   7.941   7.093 -0.1752  0.5075  0.6372
21832SOL    HW170343   4.058   7.870   7.050 -0.5152  1.0067  0.1739
21832SOL    HW270344   4.037   8.002   7.122 -0.1341 -0.7260  3.6354
21833SOL     OW70345   4.695   5.963   0.251  0.1214 -0.0804 -0.1150
21833SOL    HW170346   4.752   5.898   0.209 -0.2640  0.0800 -0.9110
21833SOL    HW270347   4.635   5.991   0.181 -2.3445 -1.7627  1.1637
21834SOL     OW70348   6.746   4.838   4.118  0.2974  0.3090  0.2284
21834SOL    HW170349   6.665   4.883   4.138 -0.3491  1.2532 -3.6214
21834SOL    HW270350   6.788   4.892   4.050  3.3317 -1.0125  0.8523
21835SOL     OW70351   8.783   1.550   9.587  0.2398  0.1303  0.3199
21835SOL    HW170352   8.761   1.589   9.502  0.3142 -0.0141  0.2339
21835SOL    HW270353   8.712   1.579   9.646  0.5263  0.7612  0.3648
21836SOL     OW70354   1.768   8.937   0.281  0.1375 -0.3703 -0.1554
21836SOL    HW170355   1.837   8.895   0.228  0.3394  0.1705 -0.3254
21836SOL    HW270356   1.780   9.031   0.266  1.5946 -0.0211  2.5265
21837SOL     OW70357   7.425   7.640   8.476  0.0443 -0.4069 -0.1521
21837SOL    HW170358   7.505   7.590   8.462  0.7994  0.8072 -0.3421
21837SOL    HW270359   7.445   7.727   8.441 -0.8419  0.3462  1.1522
21838SOL     OW70360   5.597   1.894   3.868  0.5365 -0.0782  0.0789
21838SOL    HW170361   5.596   1.903   3.772 -2.1897 -0.2503  0.0058
21838SOL    HW270362   5.661   1.825   3.884  0.7424 -0.3540 -1.6574
21839SOL     OW70363   6.149   7.431   3.613  0.1520 -0.1596  0.3644
21839SOL    HW170364   6.089   7.460   3.682 -0.2351 -0.5327  0.1883
21839SOL    HW270365   6.211   7.503   3.603 -0.2765  0.2352  0.5371
21840SOL     OW70366   1.701   0.271   8.179  0.2897 -0.2620 -0.1844
21840SOL    HW170367   1.689   0.239   8.089 -1.7056 -0.5972  0.1485
21840SOL    HW270368   1.684   0.195   8.234 -2.6194  0.8013  0.5569
21841SOL     OW70369   8.026   5.348   2.252  0.2578 -0.0931 -0.0745
21841SOL    HW170370   8.022   5.372   2.344 -2.0346 -2.6791  0.6365
21841SOL    HW270371   7.935   5.349   2.222  0.8132 -0.6155 -1.9472
21842SOL     OW70372   2.167   7.872   7.576  0.1706 -0.4206 -0.2796
21842SOL    HW170373   2.190   7.845   7.487 -1.8437  1.6481 -1.5390
21842SOL    HW270374   2.183   7.966   7.577 -0.8580 -0.2386  1.1945
21843SOL     OW70375   4.570   9.133   1.378 -0.2113  0.6147  0.3640
21843SOL    HW170376   4.639   9.115   1.313  1.6814  0.9889  2.1489
21843SOL    HW270377   4.509   9.061   1.369  0.9779 -0.3219 -0.5923
21844SOL     OW70378   9.217   1.730   8.273  0.1153  0.2264  0.7288
21844SOL    HW170379   9.163   1.676   8.216 -0.8280  2.3985 -0.5537
21844SOL    HW270380   9.156   1.792   8.313  1.6236  3.2282 -1.3153
21845SOL     OW70381   5.678   1.105   5.498  0.5176 -0.3907 -0.1551
21845SOL    HW170382   5.730   1.168   5.448  1.9398 -1.4554 -0.0736
21845SOL    HW270383   5.596   1.151   5.516  0.2864  0.3572 -2.6764
21846SOL     OW70384   2.319   0.793   7.165  0.2055  0.0971 -0.8300
21846SOL    HW170385   2.345   0.719   7.111  1.1262 -0.1380 -0.0860
21846SOL    HW270386   2.363   0.868   7.126  1.7297 -0.2333  0.1687
21847SOL     OW70387   8.671   9.508   1.339 -0.8931 -0.3820  0.3748
21847SOL    HW170388   8.680   9.546   1.426 -0.4773 -2.5839  1.3428
21847SOL    HW270389   8.624   9.426   1.353  0.5643 -1.5654 -1.2311
21848SOL     OW70390   3.948   4.953   9.416 -0.1189 -0.8188  0.3214
21848SOL    HW170391   3.874   4.932   9.474 -0.1813 -2.6979 -0.3750
21848SOL    HW270392   3.938   5.046   9.397 -1.7860 -0.8334  0.9758
21849SOL     OW70393   6.171   3.222   9.199 -0.3727  0.2463  0.7098
21849SOL    HW170394   6.203   3.290   9.258 -1.4117 -0.7862  2.5483
21849SOL    HW270395   6.178   3.141   9.249  0.5396 -1.0114 -1.3008
21850SOL     OW70396   2.724   2.489   8.066 -0.0523  0.0773  0.2805
21850SOL    HW170397   2.653   2.551   8.081  1.9398  2.4919  0.3256
21850SOL    HW270398   2.731   2.482   7.971 -1.2525 -1.3540  0.2612
21851SOL     OW70399   2.803   7.715   7.335  0.0734 -0.0945  0.0462
21851SOL    HW170400   2.803   7.638   7.278  0.9062 -1.0543  1.2784
21851SOL    HW270401   2.722   7.707   7.386 -0.5852  0.6711 -0.8496
21852SOL     OW70402   4.998   6.328   0.588  0.1525  0.6987 -0.1637
21852SOL    HW170403   4.955   6.363   0.510 -1.2442 -0.2563  0.1489
21852SOL    HW270404   4.949   6.249   0.609  2.0487 -0.4302  0.2569
21853SOL     OW70405   3.605   7.106   6.652  0.1291 -0.0774  0.7171
21853SOL    HW170406   3.614   7.016   6.682  1.6935  0.0995  0.8549
21853SOL    HW270407   3.613   7.101   6.557  1.3808  0.0258  0.8059
21854SOL     OW70408   4.897   0.572   5.143 -0.2704 -0.3611  0.6263
21854SOL    HW170409   4.956   0.536   5.209  0.5307  0.9453  0.6709
21854SOL    HW270410   4.877   0.498   5.086  1.6592 -0.8203  0.4550
21855SOL     OW70411   1.469   9.186   1.862  0.0884  0.5766 -0.1302
21855SOL    HW170412   1.537   9.179   1.929 -0.6436 -0.4816  0.5414
21855SOL    HW270413   1.458   9.280   1.847  2.6819  0.7748 -1.3154
21856SOL     OW70414   2.870   0.447   0.811  0.5872 -0.2938 -0.1305
21856SOL    HW170415   2.874   0.389   0.887 -0.6471 -0.7636 -0.3969
21856SOL    HW270416   2.777   0.466   0.800  0.6758 -0.7170 -1.8795
21857SOL     OW70417   9.485   0.243   1.151  0.3667 -0.2631 -0.2897
21857SOL    HW170418   9.478   0.335   1.126  3.2153 -0.4401 -2.1637
21857SOL    HW270419   9.543   0.243   1.226 -2.0465 -0.4047  1.7196
21858SOL     OW70420   3.439   4.140   4.550 -0.0146  0.2536  0.2497
21858SOL    HW170421   3.418   4.211   4.490 -0.8310 -0.9413 -0.9319
21858SOL    HW270422   3.489   4.078   4.496  2.2380  0.7045  1.7047
21859SOL     OW70423   8.365   4.235   1.508 -0.2422 -0.4130 -0.0509
21859SOL    HW170424   8.377   4.297   1.437  0.2024 -1.2120 -0.7032
21859SOL    HW270425   8.287   4.185   1.484 -0.5306 -0.1841  0.4066
21860SOL     OW70426   6.805   2.048   7.568  0.3163  0.7167  0.2229
21860SOL    HW170427   6.775   2.135   7.541 -3.8032 -1.0486 -1.8673
21860SOL    HW270428   6.831   2.005   7.486  0.1324 -0.7122  0.8725
21861SOL     OW70429   9.175   8.818   8.510 -0.6223  0.1578 -0.1099
21861SOL    HW170430   9.149   8.900   8.468 -0.8335  0.4566  0.5916
21861SOL    HW270431   9.095   8.786   8.552 -0.4798 -0.2767 -0.1601
21862SOL     OW70432   8.111   2.569   4.389 -0.5268  0.9999  0.1288
21862SOL    HW170433   8.069   2.507   4.449 -2.7895  1.2060 -1.1514
21862SOL    HW270434   8.205   2.555   4.403 -0.9553 -1.6500  0.9437
21863SOL     OW70435   2.317   5.357   5.777 -0.1255 -0.3000  0.0772
21863SOL    HW170436   2.236   5.341   5.728 -0.4404 -0.0820  0.5179
21863SOL    HW270437   2.384   5.307   5.730 -0.4729 -0.3053 -0.4187
21864SOL     OW70438   7.443   6.284   7.871 -0.7330  0.0232  0.6604
21864SOL    HW170439   7.384   6.332   7.929 -1.0132 -0.7050  0.9800
21864SOL    HW270440   7.403   6.293   7.784 -1.4908 -0.7282  0.9232
21865SOL     OW70441   3.453   1.938   1.937 -0.4115 -0.0258 -0.7380
21865SOL    HW170442   3.496   1.892   2.009  0.8794  1.1429 -0.7316
21865SOL    HW270443   3.398   1.872   1.896  0.4863 -1.2622 -0.0030
21866SOL     OW70444   3.900   2.884   3.059  0.0400 -0.0849  0.4270
21866SOL    HW170445   3.949   2.802   3.049 -2.1496 -1.5937  1.4216
21866SOL    HW270446   3.849   2.891   2.978  0.0998  0.2472  0.4147
21867SOL     OW70447   5.116   4.975   6.707 -0.2277 -0.2258  0.1636
21867SOL    HW170448   5.190   5.034   6.721  1.5919 -2.3527  0.2394
21867SOL    HW270449   5.105   4.931   6.791  0.1746 -1.7318 -0.5230
21868SOL     OW70450   4.136   1.766   4.511  0.5356 -0.3805 -0.1831
21868SOL    HW170451   4.179   1.829   4.570 -0.9827  1.7869 -1.2592
21868SOL    HW270452   4.063   1.732   4.563  1.3274 -1.2361  0.3863
21869SOL     OW70453   4.544   6.654   6.898 -0.3556  0.6422 -0.0997
21869SOL    HW170454   4.633   6.622   6.907  0.3201  2.5047  0.3013
21869SOL    HW270455   4.551   6.748   6.913 -1.9342  1.3163 -2.8406
21870SOL     OW70456   0.340   7.840   2.785  0.0828 -0.0095 -0.2596
21870SOL    HW170457   0.277   7.868   2.851  0.5936  0.5954 -0.0194
21870SOL    HW270458   0.384   7.764   2.824  0.1644  0.1542 -0.0332
21871SOL     OW70459   6.003   9.282   0.924  0.5470  0.2512 -0.3447
21871SOL    HW170460   6.066   9.211   0.936  0.5852  0.4031  0.4374
21871SOL    HW270461   5.975   9.275   0.833  2.2006  0.6171 -0.9043
21872SOL     OW70462   6.440   4.523   2.710  0.7170 -0.4241  0.2681
21872SOL    HW170463   6.419   4.615   2.696 -0.8783 -0.7340  0.3550
21872SOL    HW270464   6.459   4.489   2.623 -0.6315 -0.4221 -0.0546
21873SOL     OW70465   5.998   6.775   4.256 -0.2515 -0.3643  0.0359
21873SOL    HW170466   6.086   6.778   4.292 -0.7864  1.8752  1.3374
21873SOL    HW270467   6.009   6.731   4.171  2.0409 -0.4182  0.2853
21874SOL     OW70468   4.896   1.268   7.391 -0.2962  0.2059 -0.4897
21874SOL    HW170469   4.822   1.309   7.347 -1.9063 -2.1665 -0.1559
21874SOL    HW270470   4.885   1.292   7.483 -0.6805 -0.1571 -0.4375
21875SOL     OW70471   1.096   9.542   0.494  0.0029  0.6844 -0.3424
21875SOL    HW170472   1.074   9.605   0.563 -0.1349  2.0614 -1.6120
21875SOL    HW270473   1.074   9.457   0.532  0.8907  1.3004  1.6947
21876SOL     OW70474   5.907   3.725   3.707 -0.2217  0.1399 -0.0406
21876SOL    HW170475   5.815   3.741   3.726 -0.5944 -0.8197 -0.8964
21876SOL    HW270476   5.928   3.646   3.757 -0.3816 -0.6714 -1.2182
21877SOL     OW70477   6.310   9.707   3.999 -0.2566  0.0266 -0.0595
21877SOL    HW170478   6.288   9.795   3.969  0.1379  0.2602  0.3405
21877SOL    HW270479   6.325   9.658   3.918 -0.4100  0.3392 -0.2818
21878SOL     OW70480   8.844   5.239   1.513  0.6336 -0.3674 -0.2057
21878SOL    HW170481   8.936   5.240   1.539  0.0940  2.0636  2.1015
21878SOL    HW270482   8.804   5.172   1.568  0.7217 -0.1691  0.1012
21879SOL     OW70483   6.682   5.276   2.307 -0.4012  0.0778  0.2161
21879SOL    HW170484   6.610   5.339   2.304 -0.9979 -0.5372  1.0782
21879SOL    HW270485   6.717   5.284   2.396  1.3342  1.1330 -0.4900
21880SOL     OW70486   3.149   0.046   3.181 -0.0428  0.1671 -0.1958
21880SOL    HW170487   3.094   0.105   3.129  1.0733 -0.2464 -1.9053
21880SOL    HW270488   3.228   0.034   3.128  0.8341 -0.8574  1.2874
21881SOL     OW70489   1.190   5.401   9.073  0.4723  0.4232  0.4594
21881SOL    HW170490   1.096   5.411   9.089  0.3941  2.4372 -0.8829
21881SOL    HW270491   1.196   5.368   8.984  1.0490 -2.2489  1.4082
21882SOL     OW70492   8.522   3.573   9.350  0.1921  0.5351 -0.1936
21882SOL    HW170493   8.510   3.652   9.402  1.6486  1.8220 -1.6653
21882SOL    HW270494   8.613   3.547   9.367  0.1086 -0.1033 -0.6796
21883SOL     OW70495   9.282   5.635   5.485  0.3277  0.4006 -0.2066
21883SOL    HW170496   9.239   5.609   5.404  0.7796  0.7607 -0.5629
21883SOL    HW270497   9.211   5.639   5.549  0.1778 -1.3117 -0.2225
21884SOL     OW70498   1.637   9.242   4.771  0.3793  0.8612  0.5948
21884SOL    HW170499   1.565   9.295   4.804  1.1674  2.3195  0.0899
21884SOL    HW270500   1.702   9.306   4.741  0.1126 -0.2840 -2.9320
21885SOL     OW70501   0.445   1.830   2.545 -0.8566  0.6889 -0.2161
21885SOL    HW170502   0.402   1.764   2.599  0.5750 -0.7797 -0.8122
21885SOL    HW270503   0.377   1.897   2.530 -2.7145 -1.1681 -0.5430
21886SOL     OW70504   2.226   5.372   6.314 -0.1363  0.4983 -0.0346
21886SOL    HW170505   2.248   5.337   6.401  2.9419  0.5613 -0.6637
21886SOL    HW270506   2.198   5.296   6.264  1.7663 -0.2883  0.0050
21887SOL     OW70507   8.113   1.637   4.886 -0.2867 -0.0267  0.1872
21887SOL    HW170508   8.205   1.618   4.904 -0.6996 -1.5924  0.7988
21887SOL    HW270509   8.068   1.554   4.901 -1.9474  0.9482  0.8815
21888SOL     OW70510   5.523   5.544   1.627 -0.6241  0.4243 -0.4378
21888SOL    HW170511   5.595   5.521   1.686  0.3153  3.0333 -0.4721
21888SOL    HW270512   5.461   5.472   1.637  0.9846 -0.8270  1.2462
21889SOL     OW70513   0.324   0.589   2.637 -0.1463  0.7012 -0.5705
21889SOL    HW170514   0.402   0.577   2.583 -0.5472 -0.6867 -0.9016
21889SOL    HW270515   0.330   0.679   2.669  0.8444  1.0765 -1.7404
21890SOL     OW70516   8.234   2.748   1.828 -0.6587  0.4172 -0.2160
21890SOL    HW170517   8.327   2.767   1.845 -0.6503 -0.3247  0.5985
21890SOL    HW270518   8.187   2.808   1.885 -0.6739  0.2735 -0.0793
21891SOL     OW70519   0.214   9.635   6.802 -0.2693 -0.0001  0.3173
21891SOL    HW170520   0.273   9.562   6.782  0.5525  0.3002  1.5245
21891SOL    HW270521   0.130   9.594   6.823  0.2154 -0.6187  1.0950
21892SOL     OW70522   3.703   9.111   9.399 -0.2345  0.1033 -0.3407
21892SOL    HW170523   3.678   9.200   9.425 -0.6885 -0.0777 -0.1446
21892SOL    HW270524   3.714   9.064   9.482 -1.1885 -0.3435 -0.4494
21893SOL     OW70525   7.412   1.889   6.310 -0.0276 -0.3540  0.7586
21893SOL    HW170526   7.322   1.917   6.295  0.6010  0.3279 -2.8363
21893SOL    HW270527   7.453   1.961   6.357 -0.6959  0.7126 -0.2299
21894SOL     OW70528   8.442   5.336   0.581 -0.4729 -0.4833 -0.1170
21894SOL    HW170529   8.533   5.347   0.553 -0.0050 -2.3192  0.5514
21894SOL    HW270530   8.392   5.333   0.500  0.0594  0.3563 -0.5000
21895SOL     OW70531   4.069   6.660   1.659 -0.1257  0.2561  0.3670
21895SOL    HW170532   4.071   6.615   1.743 -0.4851 -0.2457  0.1117
21895SOL    HW270533   4.161   6.670   1.634  0.1195  2.3913  1.8443
21896SOL     OW70534   1.815   8.770   4.776  0.9132 -0.2474  0.3837
21896SOL    HW170535   1.855   8.720   4.847  0.2864  0.0843  0.9784
21896SOL    HW270536   1.767   8.840   4.820 -2.6653 -2.2193 -0.0556
21897SOL     OW70537   3.887   4.212   5.031 -0.5373  0.4909 -0.4194
21897SOL    HW170538   3.795   4.201   5.008 -0.3182 -0.5710 -0.8511
21897SOL    HW270539   3.923   4.265   4.960 -1.3186  3.1356  1.0131
21898SOL     OW70540   2.091   4.673   4.833  0.0572 -0.5627 -0.1740
21898SOL    HW170541   2.156   4.703   4.896  0.9264 -1.0528 -0.8112
21898SOL    HW270542   2.024   4.742   4.833  0.9024  0.2849  0.0136
21899SOL     OW70543   4.643   4.793   9.542 -0.0208 -0.4468  0.0484
21899SOL    HW170544   4.630   4.888   9.550  0.9357 -0.2687 -0.2852
21899SOL    HW270545   4.698   4.771   9.617  1.2374 -0.4097 -0.8377
21900SOL     OW70546   1.553   2.279   8.706 -0.7655  0.1863  0.6377
21900SOL    HW170547   1.644   2.310   8.701 -0.7637  0.0450 -0.2814
21900SOL    HW270548   1.501   2.354   8.677 -0.7841 -0.5196 -1.2403
21901SOL     OW70549   2.694   9.139   1.009  0.8351  0.4217 -0.5231
21901SOL    HW170550   2.635   9.144   1.085  1.5941  1.2725  0.0239
21901SOL    HW270551   2.666   9.059   0.963 -0.5981  0.6787 -0.1652
21902SOL     OW70552   6.413   1.007   8.445 -0.0684 -0.3414 -0.1107
21902SOL    HW170553   6.397   1.016   8.351 -0.2441 -1.6350 -0.2172
21902SOL    HW270554   6.420   1.097   8.477 -1.2000  0.1482 -1.1568
21903SOL     OW70555   0.052   4.561   4.136  0.3867  0.6536  0.1366
21903SOL    HW170556   0.114   4.536   4.204  2.5633  0.6641 -1.7151
21903SOL    HW270557  -0.013   4.491   4.136  2.6007 -1.5299 -0.4321
21904SOL     OW70558   7.160   2.458   2.341 -0.5448  0.2052  0.0742
21904SOL    HW170559   7.175   2.380   2.395 -1.6404  0.7563  1.2075
21904SOL    HW270560   7.168   2.532   2.401 -1.0688  0.8850 -0.6667
21905SOL     OW70561   5.145   7.706   0.508  0.1181  0.4938 -0.1530
21905SOL    HW170562   5.153   7.708   0.603 -0.0201 -2.0026 -0.0232
21905SOL    HW270563   5.220   7.758   0.476 -0.5634  2.4699  1.2588
21906SOL     OW70564   1.349   5.200   1.772 -0.5784 -0.6227  0.2647
21906SOL    HW170565   1.413   5.270   1.781 -0.9630 -0.1968 -0.2228
21906SOL    HW270566   1.399   5.119   1.781  0.3092 -0.3363 -1.7169
21907SOL     OW70567   9.173   5.746   9.745  0.3451  0.0325  0.0910
21907SOL    HW170568   9.268   5.744   9.756  0.5458  0.4718 -1.4335
21907SOL    HW270569   9.159   5.780   9.657 -1.1838 -1.4900 -0.3076
21908SOL     OW70570   3.120   9.336   9.477 -0.3198 -0.0436  0.1926
21908SOL    HW170571   3.028   9.360   9.465 -0.6103 -1.6478 -1.3054
21908SOL    HW270572   3.120   9.240   9.473  1.4714 -0.0501 -0.3519
21909SOL     OW70573   8.401   3.700   9.693  0.4198 -0.2500 -0.3666
21909SOL    HW170574   8.492   3.699   9.661  0.4218  1.0674 -0.4649
21909SOL    HW270575   8.401   3.767   9.761 -0.3054 -0.8221  0.2059
21910SOL     OW70576   8.385   1.542   3.475  0.6123 -0.1317  0.1788
21910SOL    HW170577   8.293   1.520   3.469  0.2556  1.3386 -0.0415
21910SOL    HW270578   8.411   1.514   3.563 -0.3889  0.6689  0.7362
21911SOL     OW70579   9.722   1.007   6.036 -0.3568 -0.1450 -0.3884
21911SOL    HW170580   9.765   0.962   6.109 -0.5784  1.1219  0.5755
21911SOL    HW270581   9.666   0.940   5.997  1.1517 -1.3470 -0.5813
21912SOL     OW70582   0.068   1.538   2.870 -0.2449  0.3751  0.2189
21912SOL    HW170583   0.010   1.600   2.915 -0.3538 -0.4880  1.3110
21912SOL    HW270584   0.094   1.476   2.938  1.2599  0.2253 -0.4513
21913SOL     OW70585   5.458   5.957   4.293 -0.4710 -0.1695 -0.0451
21913SOL    HW170586   5.367   5.987   4.287  0.2246  1.7806 -2.1601
21913SOL    HW270587   5.492   6.000   4.371 -0.8758  0.5433 -0.2541
21914SOL     OW70588   3.567   6.422   2.950  0.7634  0.0541  0.2224
21914SOL    HW170589   3.644   6.433   2.894 -0.3782 -1.1482 -1.7112
21914SOL    HW270590   3.554   6.327   2.955 -0.1362  0.2075  1.1813
21915SOL     OW70591   0.411   0.170   2.473  0.0303 -0.0984 -0.6132
21915SOL    HW170592   0.412   0.231   2.400  0.9347 -0.1788 -0.6872
21915SOL    HW270593   0.500   0.174   2.509 -0.2039 -0.5681  0.0518
21916SOL     OW70594   8.671   5.612   5.008 -0.2199 -0.1639  0.7343
21916SOL    HW170595   8.619   5.549   4.958 -1.4658  0.0175  1.7448
21916SOL    HW270596   8.741   5.639   4.948 -0.6018 -1.2958 -0.2577
21917SOL     OW70597   4.210   4.869   2.870  0.0140 -0.0326 -0.3108
21917SOL    HW170598   4.133   4.904   2.825  1.1283  1.1407 -1.4007
21917SOL    HW270599   4.209   4.776   2.850  0.3043  0.3979 -2.5957
21918SOL     OW70600   1.379   3.363   4.414 -0.5063 -0.0956 -0.7219
21918SOL    HW170601   1.339   3.382   4.329 -2.0367 -2.1909 -0.5601
21918SOL    HW270602   1.337   3.282   4.443  0.3112  0.2819  1.8366
21919SOL     OW70603   3.129   8.913   3.515 -0.1972 -0.1470 -0.0583
21919SOL    HW170604   3.224   8.909   3.503 -0.0333  1.7630  0.1890
21919SOL    HW270605   3.094   8.916   3.426  0.0143 -0.4005 -0.1501
21920SOL     OW70606   8.929   7.359   1.256 -0.1489  0.2075  0.4092
21920SOL    HW170607   8.871   7.340   1.183 -1.1456  0.3995  1.1288
21920SOL    HW270608   8.924   7.281   1.312  0.0983  0.3213  0.5955
21921SOL     OW70609   1.357   7.728   1.167 -0.3257 -0.6122  0.4001
21921SOL    HW170610   1.313   7.666   1.110 -0.5792  0.5393 -0.7062
21921SOL    HW270611   1.291   7.753   1.232 -0.3780 -1.0890  0.5346
21922SOL     OW70612   7.565   4.898   4.977  0.4798  0.1161  0.2507
21922SOL    HW170613   7.570   4.951   5.057  0.7337 -1.4336  1.3132
21922SOL    HW270614   7.572   4.807   5.008  2.1112 -0.4876 -1.6777
21923SOL     OW70615   6.139   6.186   3.737 -0.0797 -0.4095 -0.5166
21923SOL    HW170616   6.226   6.163   3.704 -0.1585 -2.8819  0.7179
21923SOL    HW270617   6.079   6.155   3.669 -0.0374 -0.0396 -0.7208
21924SOL     OW70618   9.378   7.477   8.531  0.5385  0.5085  0.9600
21924SOL    HW170619   9.460   7.428   8.532  1.2048  1.5812  1.0459
21924SOL    HW270620   9.390   7.543   8.462 -0.5457  0.2155  0.4617
21925SOL     OW70621   4.649   3.384   7.123 -0.9585 -0.0410  0.3097
21925SOL    HW170622   4.645   3.380   7.219  0.7862 -0.3221  0.3987
21925SOL    HW270623   4.657   3.293   7.095 -1.4200  0.0443 -0.1278
21926SOL     OW70624   8.635   8.270   8.679  0.4096 -0.8102 -0.4024
21926SOL    HW170625   8.663   8.353   8.719 -0.8962 -1.0259  1.0552
21926SOL    HW270626   8.565   8.295   8.620  2.1942 -0.5206 -2.5388
21927SOL     OW70627   6.678   9.456   6.654 -0.0592  0.4765  0.2876
21927SOL    HW170628   6.742   9.447   6.584 -1.6522 -0.6743 -1.0918
21927SOL    HW270629   6.707   9.395   6.721  0.6558  0.4816 -0.0083
21928SOL     OW70630   4.390   5.914   5.117  0.4190  0.2626  1.0280
21928SOL    HW170631   4.325   5.931   5.185  0.4377  2.1778  0.6090
21928SOL    HW270632   4.470   5.955   5.149  0.6537  0.4312  0.2439
21929SOL     OW70633   6.952   8.930   1.238  0.8459  0.0783 -0.2239
21929SOL    HW170634   6.976   8.858   1.296 -2.8842 -1.4504 -0.2697
21929SOL    HW270635   7.001   8.913   1.158  0.7434 -1.9927  0.0783
21930SOL     OW70636   3.359   2.492   0.971 -0.6981 -0.7828 -0.0475
21930SOL    HW170637   3.397   2.571   1.008  2.5291 -2.0163 -0.4333
21930SOL    HW270638   3.324   2.445   1.047  2.4411 -1.5132  1.1122
21931SOL     OW70639   4.452   4.447   9.571 -0.3753 -0.5877 -0.0125
21931SOL    HW170640   4.358   4.448   9.550 -0.2195  1.0667 -0.7436
21931SOL    HW270641   4.487   4.525   9.529  0.6670  0.8768  3.2437
21932SOL     OW70642   1.334   7.314   7.910  0.0280  0.2328  0.2392
21932SOL    HW170643   1.424   7.333   7.885  0.5125 -0.1424  1.6129
21932SOL    HW270644   1.326   7.219   7.898 -0.5554  0.4174 -0.9677
21933SOL     OW70645   7.453   3.163   9.581 -0.6815 -0.0882 -0.4046
21933SOL    HW170646   7.417   3.232   9.636  1.0107  1.7759 -1.4936
21933SOL    HW270647   7.505   3.110   9.641 -1.6591 -0.1916  0.3748
21934SOL     OW70648   8.008   1.896   3.956  0.8003  0.0704  0.0641
21934SOL    HW170649   7.996   1.889   3.861  2.8535  1.5995 -0.3925
21934SOL    HW270650   7.991   1.988   3.975 -1.1843 -0.5299  1.5152
21935SOL     OW70651   4.055   1.563   1.876  0.4482  0.4442  0.0645
21935SOL    HW170652   4.134   1.552   1.929  0.0425 -0.7555  0.4482
21935SOL    HW270653   4.075   1.637   1.819  2.5475 -0.9020 -1.0972
21936SOL     OW70654   5.833   8.397   0.847  0.1233 -0.0397 -0.1248
21936SOL    HW170655   5.911   8.360   0.806 -0.2231  0.7233 -1.5490
21936SOL    HW270656   5.867   8.453   0.917  0.8044 -0.4033 -0.1577
21937SOL     OW70657   2.062   6.324   5.568 -0.3307 -0.4564  1.0315
21937SOL    HW170658   2.143   6.283   5.598 -0.2610 -1.3019 -0.2349
21937SOL    HW270659   2.090   6.391   5.506 -0.5443  0.2283  1.6588
21938SOL     OW70660   3.720   1.157   3.450  0.2695  0.2282  0.6260
21938SOL    HW170661   3.672   1.075   3.452  0.1057  0.3355  1.1863
21938SOL    HW270662   3.793   1.145   3.511  0.8988  0.1081 -0.1249
21939SOL     OW70663   5.717   8.169   1.962 -0.3059 -0.0683  0.4863
21939SOL    HW170664   5.745   8.153   2.052 -1.3257  0.2946  0.8822
21939SOL    HW270665   5.655   8.242   1.968 -0.2069  0.1221 -0.5397
21940SOL     OW70666   8.501   5.902   2.198 -0.2567  0.2944 -0.0156
21940SOL    HW170667   8.428   5.911   2.260  0.5580  0.7061  0.9170
21940SOL    HW270668   8.470   5.944   2.118 -1.9755 -1.7171 -0.5066
21941SOL     OW70669   2.514   0.425   3.482 -0.4076 -0.5934  0.2542
21941SOL    HW170670   2.523   0.338   3.521  1.5567 -0.4623  0.1835
21941SOL    HW270671   2.458   0.472   3.543  0.5427 -1.1700  1.6413
21942SOL     OW70672   9.113   6.558   3.098 -0.0346 -0.4743 -0.2437
21942SOL    HW170673   9.195   6.546   3.049  0.0765  1.1968 -0.5248
21942SOL    HW270674   9.138   6.614   3.172 -1.2337  1.7751 -1.4325
21943SOL     OW70675   5.892   7.327   3.756  0.4222  0.9152 -0.1018
21943SOL    HW170676   5.953   7.374   3.813  0.1509  0.0280  0.9636
21943SOL    HW270677   5.882   7.242   3.798  0.3353  0.1619 -1.5800
21944SOL     OW70678   9.051   4.424   5.659 -0.7285  0.7142  0.7202
21944SOL    HW170679   9.062   4.518   5.677  0.2781  1.3017 -2.3146
21944SOL    HW270680   9.126   4.402   5.604 -1.8413 -1.4744 -0.0314
21945SOL     OW70681   3.521   6.087   5.770 -0.1694  0.3268 -0.2096
21945SOL    HW170682   3.502   6.108   5.861 -1.3448  1.0839 -0.6030
21945SOL    HW270683   3.435   6.068   5.731  0.3197 -0.0543 -1.1365
21946SOL     OW70684   2.852   6.585   1.490 -0.0205 -0.2614 -0.1924
21946SOL    HW170685   2.878   6.565   1.580  0.3242 -1.1687 -0.4712
21946SOL    HW270686   2.926   6.635   1.455  0.6082 -1.3446 -0.4597
21947SOL     OW70687   6.128   9.215   7.909  0.0074  0.6874 -0.2571
21947SOL    HW170688   6.202   9.155   7.902 -0.4138  0.1357 -0.0700
21947SOL    HW270689   6.094   9.222   7.819 -0.3699  0.0800 -0.1716
21948SOL     OW70690   5.323   2.099   1.356  0.8674  0.5216 -0.2328
21948SOL    HW170691   5.355   2.040   1.425  0.4527  1.2113  0.5651
21948SOL    HW270692   5.235   2.123   1.384  1.4101  2.3475  0.0193
21949SOL     OW70693   3.410   8.809   3.774 -0.3123 -0.4527 -0.0294
21949SOL    HW170694   3.478   8.756   3.816 -0.2357 -0.3749 -0.0552
21949SOL    HW270695   3.419   8.896   3.814 -0.1641 -0.3471 -0.2917
21950SOL     OW70696   7.530   9.188   1.201  0.2966  0.3389  0.2742
21950SOL    HW170697   7.477   9.190   1.121  0.7784  2.3279 -0.0541
21950SOL    HW270698   7.536   9.280   1.228 -0.1719 -0.3131  2.8386
21951SOL     OW70699   2.378   8.680   7.089 -0.2575  0.3608 -0.1974
21951SOL    HW170700   2.309   8.642   7.035 -1.6206  0.1025  1.6152
21951SOL    HW270701   2.337   8.757   7.129  0.6862  0.5225  0.4944
21952SOL     OW70702   2.151   1.638   0.590 -0.3021  0.5953  0.4417
21952SOL    HW170703   2.118   1.683   0.667 -0.5886 -0.5010  0.9806
21952SOL    HW270704   2.233   1.597   0.619  1.5807  3.1590 -0.8307
21953SOL     OW70705   1.025   2.481   4.616 -0.0786  0.0930 -0.0545
21953SOL    HW170706   1.027   2.526   4.531 -0.6999 -2.1520 -1.3407
21953SOL    HW270707   1.083   2.406   4.605  0.3819  0.1387  1.7724
21954SOL     OW70708   1.236   2.886   7.370  0.0879  0.7552  0.0133
21954SOL    HW170709   1.196   2.842   7.445  1.2860 -0.8225 -0.2140
21954SOL    HW270710   1.282   2.816   7.323  2.1910  2.2487 -0.3068
21955SOL     OW70711   0.308   8.775   2.556 -0.0736  0.3831 -0.1820
21955SOL    HW170712   0.222   8.814   2.569 -0.4533 -0.1729 -0.8966
21955SOL    HW270713   0.308   8.748   2.464  1.0527  0.8157 -0.3212
21956SOL     OW70714   0.677   2.295   5.155 -0.4243 -0.6130  0.0146
21956SOL    HW170715   0.622   2.374   5.152 -1.1428 -1.0962  0.0563
21956SOL    HW270716   0.740   2.307   5.084 -2.1205 -1.1135 -1.6963
21957SOL     OW70717   6.227   8.683   3.709  0.1681  0.1595 -0.2322
21957SOL    HW170718   6.302   8.631   3.737 -0.7661 -3.0934 -3.0905
21957SOL    HW270719   6.265   8.754   3.656  1.3090  0.0598  0.4247
21958SOL     OW70720   0.744   5.321   6.533  0.0627  0.1568 -0.6730
21958SOL    HW170721   0.650   5.307   6.519 -0.4246 -0.5180  2.4966
21958SOL    HW270722   0.783   5.236   6.513 -0.3624 -0.2552  0.1482
21959SOL     OW70723   7.139   3.572   6.768 -0.3269  0.2937 -0.4528
21959SOL    HW170724   7.053   3.550   6.730 -1.0413  1.6989  0.2939
21959SOL    HW270725   7.199   3.570   6.693 -1.2455  0.5139 -1.2164
21960SOL     OW70726   1.039   2.204   1.366 -0.0386 -0.3571  0.3494
21960SOL    HW170727   0.999   2.151   1.435 -3.1229  0.1003 -0.9057
21960SOL    HW270728   1.059   2.287   1.409 -1.0162 -0.4144  0.9557
21961SOL     OW70729   7.193   7.285   2.873 -0.1095 -0.0955 -0.3134
21961SOL    HW170730   7.245   7.210   2.843 -0.7189 -0.4558 -0.4722
21961SOL    HW270731   7.256   7.357   2.876  0.6186 -0.7421  0.4243
21962SOL     OW70732   0.797   1.775   7.432  0.0897  0.0671  0.6549
21962SOL    HW170733   0.771   1.717   7.503  1.3353 -1.6955 -0.2424
21962SOL    HW270734   0.884   1.806   7.456 -0.2242  0.9183  0.7292
21963SOL     OW70735   3.717   2.109   4.219  0.3547  0.1447  0.4472
21963SOL    HW170736   3.709   2.142   4.308 -0.5247  0.9312  0.0931
21963SOL    HW270737   3.698   2.184   4.163 -0.8708 -0.7339 -0.3749
21964SOL     OW70738   4.054   8.797   4.177 -0.0724 -0.2761  0.3565
21964SOL    HW170739   4.049   8.819   4.084 -0.1679  0.4950  0.5387
21964SOL    HW270740   4.045   8.702   4.180  1.6296 -0.5135 -0.5603
21965SOL     OW70741   5.638   4.955   0.619 -0.0200 -0.1431 -0.0566
21965SOL    HW170742   5.564   4.920   0.571  0.6107 -0.1511 -1.0537
21965SOL    HW270743   5.625   5.050   0.618 -1.1886 -0.2245  1.7604
21966SOL     OW70744   0.718   2.862   8.768 -0.1721 -0.1021 -0.0929
21966SOL    HW170745   0.650   2.809   8.808  0.5937 -0.2589  1.0435
21966SOL    HW270746   0.776   2.886   8.840  0.2704  1.1085 -0.8169
21967SOL     OW70747   0.374   6.835   3.743  0.3901  0.3036  0.1665
21967SOL    HW170748   0.376   6.778   3.819 -1.1102  1.2259  0.9529
21967SOL    HW270749   0.453   6.888   3.750  2.2954 -2.1438 -1.0566
21968SOL     OW70750   1.130   8.267   8.440 -0.2028  0.8033  0.6163
21968SOL    HW170751   1.064   8.264   8.371  0.7559  3.0143 -0.4740
21968SOL    HW270752   1.188   8.193   8.421 -1.3141 -0.0796  0.5471
21969SOL     OW70753   3.223   2.656   3.704 -0.2254  0.1875  0.2449
21969SOL    HW170754   3.282   2.681   3.633 -0.6934  0.9599  0.1170
21969SOL    HW270755   3.282   2.626   3.773  0.2102 -1.0693 -0.6426
21970SOL     OW70756   0.937   1.558   0.715 -0.3509  0.0866 -0.5007
21970SOL    HW170757   0.950   1.476   0.668  2.2155 -0.0473  0.2431
21970SOL    HW270758   0.959   1.536   0.806 -3.7966  0.6540  0.5882
21971SOL     OW70759   1.793   2.953   3.612  0.1376  0.1757 -0.0601
21971SOL    HW170760   1.780   2.899   3.534  1.5772 -0.3526  0.0390
21971SOL    HW270761   1.883   2.985   3.604 -0.0660  1.0214  0.8356
21972SOL     OW70762   0.019   5.980   5.699  0.1480 -0.3056  0.6698
21972SOL    HW170763   0.074   6.049   5.662 -0.0255 -1.3281 -1.6518
21972SOL    HW270764   0.058   5.963   5.785  0.0497  2.7885  1.4508
21973SOL     OW70765   9.728   2.521   2.524  0.2280  0.2078  0.8235
21973SOL    HW170766   9.721   2.464   2.601 -2.6957 -1.0249 -0.1851
21973SOL    HW270767   9.639   2.554   2.511 -0.1137 -1.6528 -3.3697
21974SOL     OW70768   3.549   8.999   4.970  0.7521 -0.0743 -0.0508
21974SOL    HW170769   3.608   9.072   4.991 -1.4087  2.1211 -1.1379
21974SOL    HW270770   3.470   9.016   5.022  0.9015 -2.8439  1.2548
21975SOL     OW70771   8.878   6.313   6.087 -0.1352 -0.5653  0.1446
21975SOL    HW170772   8.786   6.341   6.083 -0.5026 -1.7043  0.2344
21975SOL    HW270773   8.884   6.241   6.025  0.4427 -1.1802  0.8994
21976SOL     OW70774   7.349   8.896   0.911 -0.0191 -0.1764  0.0999
21976SOL    HW170775   7.361   8.801   0.916  3.7426  0.1562  0.8154
21976SOL    HW270776   7.348   8.915   0.817 -1.1740 -0.9029 -0.0527
21977SOL     OW70777   2.622   0.189   2.246  0.1672  0.2411 -0.2737
21977SOL    HW170778   2.540   0.144   2.263 -1.6466  3.0958 -0.6914
21977SOL    HW270779   2.628   0.193   2.151  0.1961  0.9485 -0.2537
21978SOL     OW70780   0.173   3.244   4.753  0.3430 -0.7503 -0.3249
21978SOL    HW170781   0.217   3.301   4.816  2.0496 -3.3613  1.0889
21978SOL    HW270782   0.228   3.248   4.675 -0.8022  1.1799 -1.0650
21979SOL     OW70783   3.453   6.038   1.690 -0.1120  0.1753  0.2239
21979SOL    HW170784   3.451   6.071   1.600 -0.8958  1.1232  0.5691
21979SOL    HW270785   3.361   6.032   1.715  0.0906 -0.4356  0.8458
21980SOL     OW70786   1.732   8.045   7.349  0.5356 -0.2155  0.7693
21980SOL    HW170787   1.672   8.119   7.360  1.5002  0.6828  0.1926
21980SOL    HW270788   1.679   7.978   7.306  0.0292  0.7053 -0.0890
21981SOL     OW70789   4.935   6.360   4.040 -0.3077 -0.4176  0.1764
21981SOL    HW170790   4.862   6.299   4.030 -0.2821 -0.3785 -0.2736
21981SOL    HW270791   4.899   6.432   4.093  0.3041 -1.8822  2.7552
21982SOL     OW70792   7.819   3.309   3.756  0.7470 -0.1357 -0.3418
21982SOL    HW170793   7.785   3.336   3.842  2.1992 -0.1548  0.2670
21982SOL    HW270794   7.839   3.391   3.711  0.1300 -0.1294 -0.6202
21983SOL     OW70795   5.122   8.366   5.111  0.2048  0.0106 -0.5304
21983SOL    HW170796   5.183   8.381   5.183  0.7589 -0.7158 -0.8353
21983SOL    HW270797   5.070   8.447   5.106 -0.3901 -0.2409  1.1925
21984SOL     OW70798   1.302   7.545   3.119  1.0831  0.5999 -0.1971
21984SOL    HW170799   1.318   7.621   3.063 -1.3359  0.2862 -1.4469
21984SOL    HW270800   1.351   7.474   3.077  0.3928  0.6807 -1.1849
21985SOL     OW70801   3.950   3.181   9.152  0.1738  0.5949  0.4219
21985SOL    HW170802   3.974   3.091   9.134 -2.2601 -0.1041  0.3082
21985SOL    HW270803   3.917   3.215   9.068 -2.0156  0.4786  1.1825
21986SOL     OW70804   8.961   4.270   2.133  0.4472 -0.4833  0.3910
21986SOL    HW170805   9.015   4.233   2.203 -0.8231 -2.2690  0.5096
21986SOL    HW270806   8.935   4.194   2.081 -0.9228  0.4785 -0.3851
21987SOL     OW70807   5.944   5.242   9.137  0.1391 -0.4294  0.0589
21987SOL    HW170808   5.897   5.159   9.128 -1.1094  0.2527 -0.0088
21987SOL    HW270809   5.875   5.305   9.159  1.3368  0.1975  2.3094
21988SOL     OW70810   8.633   1.783   2.825  0.0021  0.4575 -0.6484
21988SOL    HW170811   8.565   1.734   2.779 -0.9513 -0.4403  1.6062
21988SOL    HW270812   8.586   1.849   2.875  0.7690 -0.1495  0.9260
21989SOL     OW70813   2.433   5.552   4.205  0.5308  0.6599 -0.5165
21989SOL    HW170814   2.499   5.495   4.244 -0.8124 -1.2067 -0.8241
21989SOL    HW270815   2.471   5.580   4.122  0.7988 -0.7478 -0.9001
21990SOL     OW70816   0.095   0.443   4.325  0.7160 -0.5731  0.4413
21990SOL    HW170817   0.010   0.468   4.291  0.8315  0.7250  1.0686
21990SOL    HW270818   0.140   0.403   4.250  0.6287  1.3660 -0.6927
21991SOL     OW70819   1.324   8.530   7.899  0.2672  0.1281 -0.7381
21991SOL    HW170820   1.410   8.490   7.883  1.7743  2.9733 -0.4761
21991SOL    HW270821   1.331   8.617   7.859 -2.5724  0.4002 -0.8032
21992SOL     OW70822   0.829   6.159   2.331  0.5982  0.6714  0.0207
21992SOL    HW170823   0.777   6.233   2.362  1.5882  1.6404 -0.5604
21992SOL    HW270824   0.859   6.116   2.411 -0.1145  0.7934  0.3620
21993SOL     OW70825   9.078   4.782   6.571 -0.2137 -0.0482 -0.0570
21993SOL    HW170826   9.006   4.840   6.546 -0.5240 -0.1182  0.6565
21993SOL    HW270827   9.152   4.812   6.518 -1.2133 -1.2090 -2.2608
21994SOL     OW70828   1.548   2.297   1.858 -0.0062  0.1077 -0.1686
21994SOL    HW170829   1.635   2.264   1.880 -0.0335  0.0903 -0.0868
21994SOL    HW270830   1.549   2.305   1.763  0.5180  1.3067 -0.0767
21995SOL     OW70831   4.964   7.615   7.420 -0.1232 -0.3790  0.2378
21995SOL    HW170832   4.869   7.610   7.415 -0.2250  0.9974  0.4526
21995SOL    HW270833   4.983   7.605   7.514 -0.0516 -0.6912  0.1906
21996SOL     OW70834   1.490   3.385   2.082 -0.3088  0.0592  0.4575
21996SOL    HW170835   1.484   3.299   2.042  1.5362 -0.7570  1.7813
21996SOL    HW270836   1.538   3.438   2.019 -1.1165  0.0276 -0.1954
21997SOL     OW70837   4.028   5.148   4.153  0.0945  0.2246 -0.1321
21997SOL    HW170838   4.055   5.236   4.180 -0.9252  0.9338 -1.3337
21997SOL    HW270839   3.963   5.121   4.218 -0.7923  1.0457 -0.6591
21998SOL     OW70840   7.976   1.755   9.482 -0.3576 -0.3743 -0.4820
21998SOL    HW170841   7.984   1.780   9.574 -1.1461  0.8606 -0.7351
21998SOL    HW270842   8.046   1.690   9.469 -0.3158 -0.6716  1.0067
21999SOL     OW70843   9.439   1.919   7.418 -0.4581  0.1311 -0.2801
21999SOL    HW170844   9.449   1.824   7.422  0.0152  0.1939  0.1084
21999SOL    HW270845   9.506   1.948   7.356 -1.9889  0.0256 -2.1073
22000SOL     OW70846   7.290   2.639   6.883  0.1349  0.0965 -0.0126
22000SOL    HW170847   7.313   2.703   6.950 -0.5182  1.0444 -0.6673
22000SOL    HW270848   7.373   2.597   6.860  0.5011  0.3928  0.7366
22001SOL     OW70849   7.432   9.475   1.068 -0.3632  0.7275  0.0245
22001SOL    HW170850   7.456   9.445   0.980 -0.4223 -0.5783  0.4352
22001SOL    HW270851   7.336   9.477   1.067 -0.3962 -0.1202  0.3020
22002SOL     OW70852   2.384   6.511   8.902 -0.0419 -0.0002 -0.0874
22002SOL    HW170853   2.347   6.530   8.815 -0.0735  1.7167  0.2624
22002SOL    HW270854   2.389   6.415   8.906  0.4581 -0.0986 -2.1813
22003SOL     OW70855   2.719   9.144   6.541 -0.5840  0.1987  0.0017
22003SOL    HW170856   2.792   9.150   6.603  0.1217  1.5315 -0.9088
22003SOL    HW270857   2.740   9.208   6.473 -1.1255 -1.4787 -1.8477
22004SOL     OW70858   0.694   1.081   8.830 -0.8542 -0.3914  0.0308
22004SOL    HW170859   0.665   1.124   8.911 -1.2053 -0.6197  0.0294
22004SOL    HW270860   0.654   1.133   8.760  0.2884  0.4235 -0.0352
22005SOL     OW70861   1.721   2.662   8.479 -0.0342 -0.1867  0.0573
22005SOL    HW170862   1.661   2.677   8.406  0.9846  0.9611 -0.6009
22005SOL    HW270863   1.724   2.746   8.525  1.5070 -0.0035 -0.3039
22006SOL     OW70864   0.947   8.749   2.032  0.1577  0.4313  0.7667
22006SOL    HW170865   0.880   8.799   2.078  0.2966  0.1540  1.2724
22006SOL    HW270866   0.943   8.662   2.070  0.6024  0.3304  0.5911
22007SOL     OW70867   3.304   5.950   9.291  0.7399  0.0447  0.1015
22007SOL    HW170868   3.286   5.891   9.364  0.8099 -0.8670 -0.6001
22007SOL    HW270869   3.300   6.038   9.330 -0.5271 -0.3455  0.9248
22008SOL     OW70870   5.143   6.145   5.807 -0.4476 -0.4129  0.6662
22008SOL    HW170871   5.166   6.137   5.899  1.4143 -0.2951  0.2608
22008SOL    HW270872   5.209   6.204   5.771 -0.2087 -1.6186 -1.0153
22009SOL     OW70873   4.668   5.511   6.726 -0.3285 -0.4186 -0.4585
22009SOL    HW170874   4.576   5.487   6.731  0.0029 -1.9301 -0.9746
22009SOL    HW270875   4.701   5.497   6.815 -1.3086  3.6515  0.7444
22010SOL     OW70876   6.442   2.108   5.564 -0.1686 -0.2405  0.2079
22010SOL    HW170877   6.435   2.073   5.653  1.1815  0.9966  0.8508
22010SOL    HW270878   6.480   2.036   5.513 -1.4778 -1.1472  0.4840
22011SOL     OW70879   2.907   7.103   2.518  0.5126  0.2585  0.2895
22011SOL    HW170880   2.906   7.008   2.504  0.7402  0.4846 -1.3893
22011SOL    HW270881   2.815   7.129   2.514  0.3654  0.0381  1.5544
22012SOL     OW70882   9.263   6.277   3.083 -0.2214 -0.4520  0.5729
22012SOL    HW170883   9.281   6.187   3.056  0.3585 -0.7567  1.8849
22012SOL    HW270884   9.180   6.298   3.040 -0.6259 -1.7871  0.6258
22013SOL     OW70885   7.669   7.103   7.023  0.3830 -0.2978 -0.3987
22013SOL    HW170886   7.639   7.071   7.108  1.3442 -0.2073 -0.0109
22013SOL    HW270887   7.658   7.028   6.964  0.0293 -0.4646 -0.1263
22014SOL     OW70888   6.606   8.495   8.987  0.2962 -0.3864  0.0797
22014SOL    HW170889   6.531   8.526   9.037  1.0143 -0.3939  1.1778
22014SOL    HW270890   6.649   8.575   8.956  0.3741 -0.3608  0.2541
22015SOL     OW70891   5.320   7.012   2.350  0.1150  0.2947  0.5928
22015SOL    HW170892   5.245   7.057   2.388 -0.2073  1.4458 -1.2582
22015SOL    HW270893   5.396   7.048   2.394 -0.2885  0.8906  0.8071
22016SOL     OW70894   0.448   8.511   0.759  0.1619  0.2115 -0.1634
22016SOL    HW170895   0.454   8.420   0.790 -0.9023 -0.0475 -0.6733
22016SOL    HW270896   0.472   8.505   0.666  0.9556  0.5960  0.0141
22017SOL     OW70897   7.971   6.490   4.256 -0.0352  0.2671 -0.2636
22017SOL    HW170898   7.883   6.454   4.270 -0.5144  0.1961 -2.8883
22017SOL    HW270899   7.957   6.563   4.196  1.7486 -0.2807 -1.4183
22018SOL     OW70900   6.846   1.870   1.886 -0.1770 -0.2298 -0.2408
22018SOL    HW170901   6.834   1.837   1.975  1.5436 -0.0602  0.1021
22018SOL    HW270902   6.937   1.900   1.884 -0.6368  1.2294 -1.5896
22019SOL     OW70903   9.387   8.512   7.460  0.3813 -0.3628  0.0471
22019SOL    HW170904   9.310   8.569   7.455  1.6201  1.3579 -0.3000
22019SOL    HW270905   9.395   8.492   7.553  0.4412  0.8080  0.3112
22020SOL     OW70906   0.758   3.322   4.600 -0.0849  0.0281 -0.2459
22020SOL    HW170907   0.805   3.311   4.518 -0.8686  1.5829 -0.9487
22020SOL    HW270908   0.822   3.299   4.667  0.3406 -1.9934 -1.2795
22021SOL     OW70909   1.508   3.437   2.370 -0.3353 -0.4230 -0.2534
22021SOL    HW170910   1.507   3.430   2.274 -0.9443 -2.3246 -0.1494
22021SOL    HW270911   1.528   3.349   2.400  3.6632  0.8367  1.3798
22022SOL     OW70912   2.374   9.694   6.542  0.0629 -0.2621  0.0013
22022SOL    HW170913   2.375   9.789   6.534  2.4134 -0.3386 -1.7900
22022SOL    HW270914   2.392   9.677   6.635 -0.6704  0.9995  0.3976
22023SOL     OW70915   0.194   5.538   4.399  0.3436  0.3008 -0.3239
22023SOL    HW170916   0.159   5.531   4.310  1.1385  0.1842 -0.6285
22023SOL    HW270917   0.161   5.460   4.444  2.3574 -1.2331 -1.3695
22024SOL     OW70918   3.726   9.255   0.779 -0.1204 -0.0002 -0.3002
22024SOL    HW170919   3.696   9.293   0.697  2.3775  2.6544 -0.1443
22024SOL    HW270920   3.821   9.246   0.768  0.2256 -0.0676  2.1031
22025SOL     OW70921   0.457   7.222   1.185  0.0009 -0.4739  0.1228
22025SOL    HW170922   0.371   7.238   1.144  0.6799 -0.4497 -1.3418
22025SOL    HW270923   0.436   7.200   1.276 -1.5048  0.4886  0.0534
22026SOL     OW70924   0.281   0.361   5.625  0.0938 -0.3314  0.4112
22026SOL    HW170925   0.361   0.410   5.608  0.6389 -0.6493  1.9304
22026SOL    HW270926   0.252   0.390   5.711 -1.8465  0.2918 -0.3837
22027SOL     OW70927   2.792   3.136   7.805 -0.3862 -0.9012  0.6946
22027SOL    HW170928   2.845   3.078   7.859  0.5582 -1.5915 -0.9121
22027SOL    HW270929   2.831   3.130   7.718 -2.2191 -0.2929 -0.2163
22028SOL     OW70930   3.599   3.216   4.531  0.4865  0.4584  0.0212
22028SOL    HW170931   3.647   3.146   4.487  2.4768  1.9659 -0.3580
22028SOL    HW270932   3.516   3.223   4.483  0.6859 -0.9321 -0.5653
22029SOL     OW70933   0.108   6.438   6.400  0.2973  0.2953  0.3106
22029SOL    HW170934   0.162   6.499   6.349  0.2757  0.8863  0.9746
22029SOL    HW270935   0.171   6.392   6.456  0.4433 -1.0622 -0.9208
22030SOL     OW70936   5.335   1.491   1.171 -0.2048 -0.4493  0.4178
22030SOL    HW170937   5.362   1.514   1.083  0.3189 -1.9258  0.1681
22030SOL    HW270938   5.245   1.522   1.178  0.2536  1.0448 -0.0872
22031SOL     OW70939   0.687   3.962   9.716 -0.3803  0.6841 -0.6078
22031SOL    HW170940   0.714   4.026   9.650  1.2038 -0.3074 -0.9816
22031SOL    HW270941   0.738   3.987   9.794 -0.1998  0.2352 -0.5825
22032SOL     OW70942   1.598   8.402   9.587  0.2331 -0.0986  0.3698
22032SOL    HW170943   1.634   8.468   9.528 -2.2750 -0.9344 -2.4011
22032SOL    HW270944   1.673   8.370   9.637  2.0727  2.5100 -0.5343
22033SOL     OW70945   2.382   1.350   9.344 -0.3265 -0.3307  0.1530
22033SOL    HW170946   2.366   1.439   9.374  2.4642  0.2312  0.2674
22033SOL    HW270947   2.347   1.347   9.255 -0.7831  0.7605  0.2826
22034SOL     OW70948   3.378   3.496   7.381 -0.5350 -0.4882 -0.0148
22034SOL    HW170949   3.354   3.584   7.352  1.1144  0.0729  0.1997
22034SOL    HW270950   3.460   3.477   7.336  0.7128 -0.6772  2.1754
22035SOL     OW70951   2.269   6.319   3.052 -0.0873  0.1078  0.1981
22035SOL    HW170952   2.360   6.294   3.062 -0.4074 -0.8353  0.8820
22035SOL    HW270953   2.229   6.299   3.136 -0.9247  0.5346 -0.0831
22036SOL     OW70954   9.123   8.166   0.224 -0.1893 -0.4993 -0.0075
22036SOL    HW170955   9.122   8.214   0.141  0.4876 -0.3992  0.0338
22036SOL    HW270956   9.179   8.219   0.282 -0.5266 -0.6509  0.4610
22037SOL     OW70957   6.391   6.524   3.369 -0.4466  0.5101  0.1854
22037SOL    HW170958   6.453   6.586   3.407 -0.7058  1.3634 -0.7235
22037SOL    HW270959   6.367   6.467   3.441  2.0769 -0.4381  0.3695
22038SOL     OW70960   2.578   4.273   9.320 -0.0417 -0.1821 -0.1741
22038SOL    HW170961   2.550   4.196   9.271  0.4653 -1.3180  1.2439
22038SOL    HW270962   2.635   4.321   9.260 -3.0991  1.0357 -2.3681
22039SOL     OW70963   8.417   6.078   0.095 -0.6170  0.0414 -0.1929
22039SOL    HW170964   8.487   6.108   0.152 -1.6761  0.5358  0.8881
22039SOL    HW270965   8.337   6.089   0.147 -1.4123 -1.3463 -1.0563
22040SOL     OW70966   5.781   9.062   2.361  0.1856  0.4483 -0.1628
22040SOL    HW170967   5.776   9.100   2.273 -0.3519 -2.1719 -1.3486
22040SOL    HW270968   5.690   9.063   2.392  0.2018  0.3159 -0.1120
22041SOL     OW70969   9.429   9.132   0.566  0.3730  0.1933 -0.0585
22041SOL    HW170970   9.515   9.126   0.525  0.2960  0.3990 -0.2516
22041SOL    HW270971   9.446   9.163   0.655  0.5101  0.0724 -0.0426
22042SOL     OW70972   4.219   9.213   7.732 -0.2695  0.6784  0.1495
22042SOL    HW170973   4.180   9.258   7.657  0.7698  0.3757 -0.6047
22042SOL    HW270974   4.145   9.175   7.779 -0.9254  0.6076 -0.9064
22043SOL     OW70975   1.424   9.068   3.150 -0.4504  0.1768 -0.0410
22043SOL    HW170976   1.421   9.158   3.119  0.7883  1.0154  2.1342
22043SOL    HW270977   1.517   9.047   3.156 -0.7086 -1.4465 -0.9161
22044SOL     OW70978   7.359   0.797   9.014 -0.4064  0.1366  0.9376
22044SOL    HW170979   7.299   0.855   9.061 -1.3500  0.6122 -0.7787
22044SOL    HW270980   7.374   0.840   8.930  1.6131 -0.4528  0.9273
22045SOL     OW70981   0.331   2.521   9.672  0.0432  0.0949  0.0573
22045SOL    HW170982   0.356   2.519   9.580 -0.3854  2.8771 -0.1921
22045SOL    HW270983   0.414   2.515   9.720  0.6592  2.4177 -0.6282
22046SOL     OW70984   9.515   1.903   5.950 -0.2399  0.0133 -0.2938
22046SOL    HW170985   9.479   1.956   6.021  0.5574 -2.7597  2.4144
22046SOL    HW270986   9.454   1.914   5.878 -1.8983  1.9040  1.2886
22047SOL     OW70987   9.704   1.526   0.498 -0.6013 -0.4077 -0.5506
22047SOL    HW170988   9.622   1.477   0.491 -0.8955  0.1570 -1.1237
22047SOL    HW270989   9.689   1.591   0.565 -1.1344  0.6583 -1.6720
22048SOL     OW70990   9.121   0.970   8.118  0.4234  0.3164 -0.4647
22048SOL    HW170991   9.141   0.876   8.111  3.4577  0.5660  2.5233
22048SOL    HW270992   9.028   0.972   8.141  0.5365 -2.0592  0.5082
22049SOL     OW70993   1.730   4.777   0.380  0.2017  0.2278  0.2991
22049SOL    HW170994   1.715   4.758   0.287  0.0351  0.5334  0.2643
22049SOL    HW270995   1.745   4.871   0.383  0.3025  0.2031  0.5724
22050SOL     OW70996   8.475   3.583   8.879 -0.1426  0.3059  0.0383
22050SOL    HW170997   8.540   3.554   8.815  0.2172 -0.2441  0.6455
22050SOL    HW270998   8.489   3.677   8.886 -1.0852  0.6103 -1.6912
22051SOL     OW70999   8.428   0.843   3.893 -0.2867  0.0098  0.2201
22051SOL    HW171000   8.406   0.751   3.881 -1.9443  0.1774  1.5676
22051SOL    HW271001   8.369   0.890   3.834  0.1514  0.2297 -0.0422
22052SOL     OW71002   4.985   6.995   3.167 -0.3589  0.2407 -0.4929
22052SOL    HW171003   4.967   6.913   3.119  1.8860 -1.6368  1.6104
22052SOL    HW271004   4.901   7.041   3.167 -1.8026 -2.1425 -1.6023
22053SOL     OW71005   3.250   3.753   7.357 -0.0117 -0.0583  0.0051
22053SOL    HW171006   3.311   3.813   7.313 -0.2228  0.3055  0.2137
22053SOL    HW271007   3.253   3.779   7.449  0.8715 -1.1940  0.3230
22054SOL     OW71008   0.492   0.655   1.199  0.0518  0.0897 -0.2558
22054SOL    HW171009   0.571   0.691   1.239 -1.2291  1.8459  0.8450
22054SOL    HW271010   0.518   0.634   1.109  1.7629  0.5906  0.0866
22055SOL     OW71011   0.762   4.172   6.456  0.3501  0.4461 -0.7016
22055SOL    HW171012   0.831   4.108   6.438 -0.5726 -1.0890  1.0456
22055SOL    HW271013   0.697   4.156   6.388  0.1469 -0.4592 -0.3076
22056SOL     OW71014   1.199   5.825   3.944 -0.6048  0.4134  0.2168
22056SOL    HW171015   1.269   5.799   4.003  0.7959  0.7245 -1.2564
22056SOL    HW271016   1.194   5.920   3.953 -1.7457  0.2754  1.2685
22057SOL     OW71017   4.750   4.455   1.959 -0.2312 -0.4578  0.3822
22057SOL    HW171018   4.714   4.436   1.873 -1.2099  1.0412  0.4213
22057SOL    HW271019   4.845   4.454   1.947 -0.3048 -2.0888 -0.2671
22058SOL     OW71020   7.831   9.669   8.085 -0.3146 -0.4467 -0.4655
22058SOL    HW171021   7.799   9.589   8.126 -1.8745  0.4965  0.2145
22058SOL    HW271022   7.762   9.694   8.024  0.5091 -0.0200 -1.2421
22059SOL     OW71023   5.158   0.112   8.294  0.0939 -0.6552  0.1581
22059SOL    HW171024   5.215   0.035   8.294 -0.2224 -0.9043 -0.7420
22059SOL    HW271025   5.184   0.162   8.217  0.7862  0.5276  1.1479
22060SOL     OW71026   3.402   2.508   1.887  0.1495  0.3845 -0.4043
22060SOL    HW171027   3.480   2.464   1.919 -0.3460 -0.8576 -0.8074
22060SOL    HW271028   3.352   2.438   1.842 -1.6691  0.8854  0.7252
22061SOL     OW71029   5.170   3.172   5.873  0.1327  0.4593 -0.5918
22061SOL    HW171030   5.079   3.191   5.853 -0.0565  0.1283 -0.0603
22061SOL    HW271031   5.183   3.081   5.847  0.3704  0.5683 -0.8633
22062SOL     OW71032   4.987   9.168   1.678  0.1278 -0.2390 -0.2218
22062SOL    HW171033   4.901   9.211   1.678 -0.6936 -1.8150  0.1483
22062SOL    HW271034   5.013   9.166   1.586 -0.3320  0.0759 -0.3619
22063SOL     OW71035   6.704   8.784   0.795  0.4337  0.1316  0.3585
22063SOL    HW171036   6.657   8.750   0.719  2.9938 -0.8207 -0.9195
22063SOL    HW271037   6.655   8.750   0.870 -0.2774 -1.7459 -0.8730
22064SOL     OW71038   5.867   2.428   1.359  0.0005 -0.5757  0.1744
22064SOL    HW171039   5.852   2.353   1.417 -0.6433 -0.4151  0.2210
22064SOL    HW271040   5.911   2.391   1.283 -0.6293 -1.0594  0.0438
22065SOL     OW71041   4.468   8.354   7.851  0.1658 -0.3446  0.0658
22065SOL    HW171042   4.412   8.417   7.805  1.0499 -0.9529 -1.9440
22065SOL    HW271043   4.413   8.277   7.863  0.3999 -0.7724 -1.4825
22066SOL     OW71044   8.626   5.243   3.723  0.1234 -0.7810 -0.0434
22066SOL    HW171045   8.625   5.194   3.641  0.3919 -0.1822 -0.4107
22066SOL    HW271046   8.704   5.212   3.769  0.4878 -0.4508 -0.4315
22067SOL     OW71047   3.344   4.508   6.242  0.1999 -0.6163  0.0123
22067SOL    HW171048   3.339   4.602   6.227 -0.7577 -0.7484 -0.5625
22067SOL    HW271049   3.412   4.498   6.309 -0.2365  0.5490  0.6666
22068SOL     OW71050   7.906   1.728   0.745  1.0415 -0.0042  0.3925
22068SOL    HW171051   7.814   1.753   0.753  1.0240  0.7000 -1.5304
22068SOL    HW271052   7.941   1.736   0.833 -0.8865 -0.9619  1.3140
22069SOL     OW71053   9.558   6.867   9.312 -0.2001  0.0757  0.1890
22069SOL    HW171054   9.580   6.808   9.385 -1.8682 -1.4314 -0.4481
22069SOL    HW271055   9.548   6.808   9.237  2.7096  1.6875 -1.6448
22070SOL     OW71056   2.130   6.959   0.160  0.3358 -0.0614 -0.1180
22070SOL    HW171057   2.094   6.889   0.214  0.3894  0.3919  0.5222
22070SOL    HW271058   2.077   6.959   0.081 -0.6358  0.1561  0.5223
22071SOL     OW71059   1.613   0.788   8.114 -0.1657  0.0142  0.0150
22071SOL    HW171060   1.626   0.699   8.147 -1.2861  0.5107  1.9741
22071SOL    HW271061   1.519   0.803   8.121 -0.0517  1.2192 -0.6720
22072SOL     OW71062   4.028   7.972   9.438  0.0133 -0.2953  0.3821
22072SOL    HW171063   4.084   8.034   9.485  0.6430 -0.9818  0.5436
22072SOL    HW271064   3.957   8.026   9.404  1.1729  0.7447 -0.5053
22073SOL     OW71065   6.252   7.099   0.205  0.1472  0.4457 -0.4344
22073SOL    HW171066   6.258   7.023   0.147  1.5896  0.7399 -0.7190
22073SOL    HW271067   6.297   7.169   0.158  0.0752  1.0888  0.4237
22074SOL     OW71068   3.436   1.958   2.626  0.4435 -0.4984  0.4324
22074SOL    HW171069   3.468   1.928   2.540  2.1475 -2.6321  1.7083
22074SOL    HW271070   3.498   2.025   2.653 -1.0717  1.4548 -0.6554
22075SOL     OW71071   7.162   0.951   9.282 -0.3761 -0.0900 -0.3561
22075SOL    HW171072   7.072   0.985   9.286 -0.5676 -0.6754  0.9731
22075SOL    HW271073   7.152   0.860   9.255  0.1462  0.7977 -4.0527
22076SOL     OW71074   3.693   9.484   5.160 -0.1537  0.1296 -0.0551
22076SOL    HW171075   3.635   9.452   5.229 -0.7384 -2.7747 -1.7052
22076SOL    HW271076   3.763   9.531   5.206 -0.5377 -1.6009  2.4980
22077SOL     OW71077   4.283   2.638   3.777  0.4547 -0.4631 -0.1165
22077SOL    HW171078   4.247   2.702   3.715  0.0343 -0.9704 -0.4124
22077SOL    HW271079   4.343   2.585   3.725  0.2925 -0.7298 -0.0370
22078SOL     OW71080   1.568   1.063   1.470  0.1302  0.4617  0.3822
22078SOL    HW171081   1.585   1.113   1.390 -1.3500  0.6948  0.1720
22078SOL    HW271082   1.614   0.981   1.458  1.0741  1.0452 -0.0930
22079SOL     OW71083   5.112   6.530   4.251 -0.0018 -0.3432  0.0551
22079SOL    HW171084   5.181   6.548   4.186 -0.5038 -1.4695 -0.8287
22079SOL    HW271085   5.038   6.583   4.222 -0.4276 -1.3156 -0.6700
22080SOL     OW71086   1.773   8.127   9.212  0.3466 -0.4295 -0.0404
22080SOL    HW171087   1.843   8.110   9.150  0.6207 -0.0881  0.1691
22080SOL    HW271088   1.708   8.176   9.163  0.6254 -0.0386 -0.0285
22081SOL     OW71089   2.537   2.455   5.716 -0.7098  0.4452 -0.0922
22081SOL    HW171090   2.443   2.466   5.733 -0.4828  1.4061  0.6710
22081SOL    HW271091   2.575   2.442   5.803 -0.3617 -2.1645 -0.5517
22082SOL     OW71092   5.294   0.807   1.584 -0.0307  0.3278 -0.7950
22082SOL    HW171093   5.323   0.716   1.583  1.5103  0.7534  0.9703
22082SOL    HW271094   5.260   0.822   1.495 -0.3076 -1.9308 -1.1287
22083SOL     OW71095   3.321   9.637   5.725 -0.3793  0.4052 -0.3677
22083SOL    HW171096   3.306   9.598   5.639 -1.3932 -0.1504  0.0491
22083SOL    HW271097   3.284   9.575   5.787 -0.3650  1.1641  0.4261
22084SOL     OW71098   1.484   7.075   8.536  1.3197 -0.1017 -0.3761
22084SOL    HW171099   1.457   6.984   8.552  2.8119 -0.6258 -0.7212
22084SOL    HW271100   1.402   7.120   8.515  0.4056 -1.1264  0.7802
22085SOL     OW71101   7.977   1.627   1.970 -0.1177 -0.0420 -0.0275
22085SOL    HW171102   7.961   1.720   1.957  0.7819  0.0149 -0.8395
22085SOL    HW271103   8.045   1.623   2.037  1.2113 -0.0147 -1.3197
22086SOL     OW71104   2.042   8.748   0.420 -0.1820  0.5154  0.3623
22086SOL    HW171105   2.016   8.665   0.460  1.8578  0.6506  2.1680
22086SOL    HW271106   2.083   8.722   0.337  0.2335 -0.2779  0.7988
22087SOL     OW71107   6.899   0.250   2.044  0.0800 -0.6592 -1.1167
22087SOL    HW171108   6.889   0.330   1.992  0.2868 -0.7048 -1.2273
22087SOL    HW271109   6.816   0.204   2.033 -0.5948  0.1957  0.0746
22088SOL     OW71110   8.240   0.447   0.876  0.0299  0.1695 -0.7806
22088SOL    HW171111   8.321   0.425   0.831 -0.6164  0.1200 -1.9700
22088SOL    HW271112   8.183   0.482   0.807 -1.0315  0.0077 -0.0182
22089SOL     OW71113   2.843   7.250   8.154 -0.0564 -0.3075 -0.1900
22089SOL    HW171114   2.793   7.290   8.083  0.4021  2.7292  1.0804
22089SOL    HW271115   2.778   7.202   8.205 -1.5383  2.4450  0.6737
22090SOL     OW71116   4.027   5.367   3.502  0.0890 -0.7812 -0.1840
22090SOL    HW171117   4.082   5.414   3.439  0.0255 -2.6541 -1.6974
22090SOL    HW271118   4.085   5.301   3.540 -0.0335 -0.0609  1.3697
22091SOL     OW71119   1.826   4.241   9.525  0.6211  0.3348  0.5054
22091SOL    HW171120   1.766   4.171   9.498 -0.1385  1.0179  0.3855
22091SOL    HW271121   1.879   4.202   9.594  1.1495 -0.7859 -0.4820
22092SOL     OW71122   1.620   8.831   6.058 -0.0689 -0.2802  0.3310
22092SOL    HW171123   1.531   8.821   6.024 -0.1805  1.4787  0.0129
22092SOL    HW271124   1.653   8.910   6.015  1.4929 -0.6718  0.7658
22093SOL     OW71125   0.303   7.102   6.726  0.2556 -0.3531 -0.2190
22093SOL    HW171126   0.374   7.098   6.662 -0.8733  0.6639 -1.5855
22093SOL    HW271127   0.338   7.154   6.798  0.8636  0.2499 -0.9333
22094SOL     OW71128   9.145   1.063   8.668  0.8914  0.5840  0.1122
22094SOL    HW171129   9.174   0.983   8.626 -0.2421 -0.0976  0.5829
22094SOL    HW271130   9.131   1.039   8.759 -0.5484  1.0003  0.0338
22095SOL     OW71131   7.109   4.991   1.645  1.1298  0.2857 -0.5201
22095SOL    HW171132   7.072   5.060   1.700  0.7341 -0.5724  0.3171
22095SOL    HW271133   7.166   5.037   1.585  0.7653  1.3634 -0.0716
22096SOL     OW71134   8.231   5.461   1.694  0.0705  1.0929 -0.2008
22096SOL    HW171135   8.170   5.392   1.722  0.9131  0.0904 -0.7688
22096SOL    HW271136   8.185   5.504   1.621 -0.2423  0.7721 -0.1990
22097SOL     OW71137   4.655   3.884   6.998 -0.5932 -0.7401 -0.5575
22097SOL    HW171138   4.581   3.944   6.994 -0.3536 -0.1149  2.2981
22097SOL    HW271139   4.723   3.932   7.046  0.6532 -2.2916 -0.6590
22098SOL     OW71140   2.230   5.832   8.384 -0.6593  0.2414  0.7456
22098SOL    HW171141   2.230   5.791   8.471  1.3702  1.3439  1.3377
22098SOL    HW271142   2.319   5.866   8.374 -0.7954  0.0325 -1.8511
22099SOL     OW71143   1.778   2.992   8.289  0.6382  0.3367 -0.0570
22099SOL    HW171144   1.803   2.968   8.378  2.0192  0.5004 -0.3656
22099SOL    HW271145   1.684   3.009   8.293  0.4797 -0.7067  1.1232
22100SOL     OW71146   9.522   4.915   0.560  0.3634  0.1263 -0.1054
22100SOL    HW171147   9.598   4.860   0.539 -0.6839 -0.8223 -1.6116
22100SOL    HW271148   9.450   4.853   0.570  0.0000  0.8777  2.7680
22101SOL     OW71149   2.744   4.668   9.652  0.2912  0.0912 -0.6241
22101SOL    HW171150   2.737   4.600   9.585 -0.9219  0.2265 -0.6513
22101SOL    HW271151   2.779   4.623   9.729  0.3503 -0.3606 -0.9116
22102SOL     OW71152   7.854   2.517   4.313  0.2132  0.0750  0.1226
22102SOL    HW171153   7.922   2.539   4.249  0.9899  0.7626  1.1319
22102SOL    HW271154   7.902   2.479   4.387 -0.5547  0.1203  0.6579
22103SOL     OW71155   4.800   5.572   5.907  0.2437 -0.2548  0.3099
22103SOL    HW171156   4.727   5.511   5.915 -0.5239  0.6646  0.4774
22103SOL    HW271157   4.820   5.598   5.997  0.9649 -0.7079  0.2894
22104SOL     OW71158   8.478   7.621   2.328 -0.0520  0.3054 -0.6978
22104SOL    HW171159   8.543   7.620   2.257 -0.0492  2.7262 -0.8371
22104SOL    HW271160   8.394   7.625   2.282 -0.3555 -2.3966 -0.5145
22105SOL     OW71161   7.429   6.528   5.650  0.0195 -0.2673  0.1704
22105SOL    HW171162   7.392   6.586   5.716 -2.0117 -1.4266  0.1195
22105SOL    HW271163   7.420   6.440   5.687  0.1643 -0.8155 -1.0466
22106SOL     OW71164   8.412   0.251   4.320  0.2626  0.1382 -0.2692
22106SOL    HW171165   8.484   0.231   4.380 -0.0962 -2.0664 -0.4883
22106SOL    HW271166   8.428   0.195   4.244 -1.4071 -0.0379 -0.5329
22107SOL     OW71167   3.832   3.219   5.054 -0.4569 -0.2850  0.0505
22107SOL    HW171168   3.760   3.245   5.111  0.6592  1.6679  0.6666
22107SOL    HW271169   3.868   3.141   5.096  0.1077  0.9015  1.8902
22108SOL     OW71170   7.726   7.236   6.091  0.2791  0.1140 -0.0752
22108SOL    HW171171   7.727   7.329   6.065 -1.1428  0.1818  0.0744
22108SOL    HW271172   7.634   7.212   6.092  0.5155 -0.8773  1.4534
22109SOL     OW71173   8.014   0.539   2.855  0.2611  0.3472  0.3284
22109SOL    HW171174   8.007   0.459   2.803  1.8056  0.1571  0.3855
22109SOL    HW271175   8.107   0.547   2.876  0.1080  2.0325  0.5291
22110SOL     OW71176   1.821   6.230   2.214 -0.7363 -0.0884  0.1535
22110SOL    HW171177   1.759   6.302   2.206 -0.7414 -0.0487  0.4972
22110SOL    HW271178   1.889   6.249   2.151  0.2023  1.1901  1.4759
22111SOL     OW71179   5.323   9.456   8.247 -0.0572 -0.1296  0.0538
22111SOL    HW171180   5.407   9.474   8.290  0.1158 -0.7304 -0.0089
22111SOL    HW271181   5.322   9.514   8.171  0.7268 -0.7463 -0.4528
22112SOL     OW71182   7.343   0.149   6.598 -0.4497  0.4598 -0.0758
22112SOL    HW171183   7.270   0.122   6.653  0.3067 -1.1900  0.1879
22112SOL    HW271184   7.418   0.153   6.657 -0.1318  1.2283 -0.5119
22113SOL     OW71185   7.697   2.443   8.275  0.0703 -0.0041  0.3044
22113SOL    HW171186   7.630   2.511   8.285  0.1914  0.0771  0.5849
22113SOL    HW271187   7.712   2.411   8.364 -0.0569 -0.4691  0.1639
22114SOL     OW71188   5.337   0.235   7.388 -0.5611 -0.1105  0.6789
22114SOL    HW171189   5.278   0.201   7.321  1.4882 -0.3561 -1.1302
22114SOL    HW271190   5.287   0.302   7.433 -1.1470  2.5007 -3.3270
22115SOL     OW71191   9.556   7.850   8.168 -0.2981 -0.1321  0.0048
22115SOL    HW171192   9.636   7.815   8.129 -1.0474 -0.5167 -1.2398
22115SOL    HW271193   9.538   7.792   8.242  0.2359 -0.4115 -0.0817
22116SOL     OW71194   7.877   8.458   5.577  0.0808  0.0711  0.4377
22116SOL    HW171195   7.829   8.483   5.656 -0.2443  0.9616 -0.0232
22116SOL    HW271196   7.946   8.524   5.569 -1.1438  1.2555 -1.1253
22117SOL     OW71197   4.635   0.398   3.458 -0.0259  0.4190  0.2012
22117SOL    HW171198   4.565   0.463   3.468 -0.8961 -0.4866  0.1097
22117SOL    HW271199   4.591   0.314   3.464  0.6727 -0.2139 -2.4247
22118SOL     OW71200   5.150   3.578   0.042 -0.0431 -0.1015  0.2359
22118SOL    HW171201   5.068   3.596  -0.004 -0.6957  0.6600  1.6270
22118SOL    HW271202   5.194   3.663   0.046 -0.0090 -0.1568  1.0370
22119SOL     OW71203   3.011   5.290   4.368  0.0622 -0.0374  0.2253
22119SOL    HW171204   3.080   5.278   4.434 -1.1121 -0.4446  1.4290
22119SOL    HW271205   2.977   5.378   4.387  1.8108  1.2262 -1.9522
22120SOL     OW71206   9.519   1.939   4.251 -0.0258  0.1206 -0.2107
22120SOL    HW171207   9.490   2.027   4.227 -0.1757 -0.5167 -2.7581
22120SOL    HW271208   9.612   1.948   4.271  0.5962  0.5864 -2.8539
22121SOL     OW71209   2.493   0.564   2.083 -0.3240  0.3481 -0.1310
22121SOL    HW171210   2.558   0.495   2.091 -0.1512  0.4851 -0.3724
22121SOL    HW271211   2.534   0.631   2.029  0.5559  1.8685  2.2348
22122SOL     OW71212   4.395   1.375   3.659  0.2751  0.5872 -0.1427
22122SOL    HW171213   4.348   1.372   3.743  1.0994  2.8897  0.4541
22122SOL    HW271214   4.467   1.313   3.670 -1.7080 -1.9995 -0.5989
22123SOL     OW71215   7.180   4.892   5.468 -0.0800  0.3527  0.3235
22123SOL    HW171216   7.196   4.858   5.380 -0.6166 -1.4672  0.8812
22123SOL    HW271217   7.219   4.980   5.468  2.2132 -0.5721 -0.9467
22124SOL     OW71218   5.561   6.893   3.268  0.5852 -0.0513  0.2008
22124SOL    HW171219   5.619   6.825   3.234 -1.6483 -1.9013 -0.1849
22124SOL    HW271220   5.477   6.849   3.279 -0.5965  2.3126  1.3911
22125SOL     OW71221   1.055   4.705   1.494  0.0640 -0.4006  0.6931
22125SOL    HW171222   1.003   4.711   1.574 -0.0455  2.3732  0.5213
22125SOL    HW271223   1.004   4.754   1.429  0.3781 -2.1902 -0.9858
22126SOL     OW71224   8.202   7.233   3.488 -0.2787  0.0948 -1.1220
22126SOL    HW171225   8.176   7.239   3.396 -1.2888  1.2171 -0.7844
22126SOL    HW271226   8.179   7.143   3.513  0.3334 -0.3359 -2.0401
22127SOL     OW71227   8.365   5.965   8.462  0.3228  0.1061 -0.0142
22127SOL    HW171228   8.314   6.031   8.415  0.1975 -0.6776 -1.0159
22127SOL    HW271229   8.301   5.915   8.512  0.2305 -0.1780 -0.4086
22128SOL     OW71230   0.834   5.412   2.338  0.1410 -0.5137  0.3649
22128SOL    HW171231   0.919   5.430   2.379 -1.6830  1.5194  3.6995
22128SOL    HW271232   0.803   5.498   2.309 -1.2271 -1.0437  0.1739
22129SOL     OW71233   0.616   0.252   3.311 -0.2058  0.3115 -0.4542
22129SOL    HW171234   0.563   0.248   3.391  0.9074  1.1401  0.3567
22129SOL    HW271235   0.702   0.221   3.338 -0.2020 -0.8133 -1.7062
22130SOL     OW71236   1.862   2.774   7.922 -0.7538 -0.1738 -0.2459
22130SOL    HW171237   1.933   2.712   7.937 -0.6957 -0.3672 -1.2709
22130SOL    HW271238   1.859   2.785   7.827 -1.7170  0.2746 -0.1767
22131SOL     OW71239   8.381   1.311   1.388 -0.0885 -0.2677 -0.1139
22131SOL    HW171240   8.322   1.247   1.428 -0.8880 -0.2120 -1.1556
22131SOL    HW271241   8.323   1.384   1.364  0.7622  0.7563  0.8146
22132SOL     OW71242   5.911   8.653   6.353 -0.1540 -0.2785 -0.3196
22132SOL    HW171243   5.822   8.683   6.369 -0.0706 -0.0610 -0.2649
22132SOL    HW271244   5.909   8.560   6.376 -0.0954 -0.0222  0.7518
22133SOL     OW71245   1.445   1.428   8.255 -0.4949  0.6298 -0.0434
22133SOL    HW171246   1.533   1.392   8.269 -0.4245  0.3251 -1.2133
22133SOL    HW271247   1.415   1.451   8.343  0.2327 -0.4829  0.5194
22134SOL     OW71248   7.031   8.753   7.620 -0.1438 -0.2399 -0.3259
22134SOL    HW171249   7.108   8.700   7.600 -1.0890 -1.0510 -2.1055
22134SOL    HW271250   7.057   8.842   7.597  0.8428 -0.1985  0.8664
22135SOL     OW71251   0.286   9.285   6.942 -0.1600  0.0478  0.1131
22135SOL    HW171252   0.308   9.375   6.966 -1.4531  0.3946  0.0390
22135SOL    HW271253   0.262   9.244   7.025  0.8621 -0.3745  0.2159
22136SOL     OW71254   2.140   6.362   8.006  0.0250  0.3091 -0.0639
22136SOL    HW171255   2.218   6.318   7.971  0.1001  0.2069  0.2246
22136SOL    HW271256   2.172   6.449   8.031  0.0800  0.2191  0.1829
22137SOL     OW71257   3.791   4.819   5.004 -0.4271  0.1524  0.5121
22137SOL    HW171258   3.702   4.815   5.038  0.2920  0.0691  2.4894
22137SOL    HW271259   3.839   4.753   5.053  1.4494  2.3178  1.7938
22138SOL     OW71260   5.974   8.250   9.151  0.1563  0.1124 -0.2711
22138SOL    HW171261   5.932   8.335   9.140  0.3131  0.0961 -1.0738
22138SOL    HW271262   5.902   8.189   9.167 -0.1017  0.1474 -1.2454
22139SOL     OW71263   3.943   1.405   6.065 -0.7523  0.1207  0.3197
22139SOL    HW171264   4.036   1.393   6.087 -0.7517 -0.7770 -0.1192
22139SOL    HW271265   3.914   1.318   6.039 -1.5134  0.5691 -0.3491
22140SOL     OW71266   5.757   7.891   3.183  0.2729 -0.0930 -0.0855
22140SOL    HW171267   5.826   7.957   3.188 -0.8153  1.0208  0.9656
22140SOL    HW271268   5.678   7.942   3.161 -0.4556 -1.1467  0.0409
22141SOL     OW71269   9.625   7.351   1.755  0.2293  0.1615  0.0312
22141SOL    HW171270   9.626   7.446   1.765  0.7798 -0.0082  2.0966
22141SOL    HW271271   9.690   7.333   1.688  1.6639  1.1607  1.0938
22142SOL     OW71272   4.751   1.303   5.060 -0.6008  0.5731 -0.3170
22142SOL    HW171273   4.716   1.252   5.133 -3.7265 -0.2088 -2.1870
22142SOL    HW271274   4.735   1.394   5.084  0.0556  0.4407  0.6925
22143SOL     OW71275   4.802   9.366   3.356  0.6318  0.1222  0.4779
22143SOL    HW171276   4.793   9.304   3.428  3.0589 -1.4052 -0.4236
22143SOL    HW271277   4.889   9.404   3.366  1.6854 -1.2300 -2.3572
22144SOL     OW71278   6.950   9.367   1.339  0.1595  0.4972 -0.0739
22144SOL    HW171279   7.040   9.399   1.342  0.8977 -1.4541 -0.1977
22144SOL    HW271280   6.921   9.386   1.250  1.5972 -1.6649 -1.0811
22145SOL     OW71281   0.898   5.853   7.816 -0.0542  0.4128 -0.0509
22145SOL    HW171282   0.943   5.772   7.791 -0.5682 -0.0984  0.6555
22145SOL    HW271283   0.876   5.895   7.732  0.9649  0.2510 -0.4084
22146SOL     OW71284   0.499   2.250   5.407 -0.0064 -0.2329  0.2395
22146SOL    HW171285   0.511   2.308   5.332 -0.4378  1.0780  1.1328
22146SOL    HW271286   0.445   2.178   5.374  0.6250 -0.1958 -0.9237
22147SOL     OW71287   6.715   0.541   3.687 -0.2165  0.3310 -0.1738
22147SOL    HW171288   6.619   0.547   3.696 -0.2606  0.5211 -0.7329
22147SOL    HW271289   6.744   0.632   3.685 -0.1021  0.2870 -0.7435
22148SOL     OW71290   1.126   5.233   2.985 -0.5461  0.1239  1.0931
22148SOL    HW171291   1.145   5.249   3.077  0.5582 -0.6380  1.0257
22148SOL    HW271292   1.212   5.233   2.943 -1.0736  0.9886 -0.0336
22149SOL     OW71293   9.482   9.160   1.809 -1.0260 -0.2554 -0.6847
22149SOL    HW171294   9.531   9.221   1.864 -0.8802 -0.1769 -0.9031
22149SOL    HW271295   9.416   9.213   1.765 -0.3872 -0.1066 -1.4914
22150SOL     OW71296   8.223   9.373   3.235 -0.2656  0.3174 -0.9553
22150SOL    HW171297   8.267   9.370   3.319 -1.0119  1.1449 -0.5169
22150SOL    HW271298   8.159   9.444   3.243  0.4346  1.1910 -2.6060
22151SOL     OW71299   6.288   3.275   7.240 -0.0761 -0.5786 -0.0515
22151SOL    HW171300   6.382   3.293   7.251  0.2413 -1.5574 -1.0010
22151SOL    HW271301   6.260   3.336   7.172 -0.2248 -0.0361  0.4851
22152SOL     OW71302   3.781   4.974   6.130  0.8557 -0.2511  0.0952
22152SOL    HW171303   3.710   5.021   6.086 -0.8660 -0.3944  2.4799
22152SOL    HW271304   3.782   4.888   6.089  0.4855  0.1643 -0.7994
22153SOL     OW71305   4.234   0.791   2.528  0.5333  0.4042  0.2971
22153SOL    HW171306   4.184   0.862   2.568  0.8690  0.7758  0.0726
22153SOL    HW271307   4.307   0.835   2.483 -0.1737  0.0745 -1.2678
22154SOL     OW71308   9.641   0.918   1.572 -0.3843  1.2101  0.1174
22154SOL    HW171309   9.609   0.926   1.482  1.2088  0.2153 -0.5897
22154SOL    HW271310   9.705   0.988   1.581 -0.7580  1.4933  0.5900
22155SOL     OW71311   2.282   6.685   0.820 -0.6535 -0.1904 -0.0047
22155SOL    HW171312   2.226   6.680   0.743  1.8011  2.2498 -2.1461
22155SOL    HW271313   2.356   6.627   0.801 -0.4226 -0.2236  0.9150
22156SOL     OW71314   6.123   4.872   7.644 -0.0244  0.1294  0.0569
22156SOL    HW171315   6.167   4.954   7.665 -2.7403  1.6259  0.3394
22156SOL    HW271316   6.103   4.879   7.551 -1.1630  0.2980  0.2982
22157SOL     OW71317   5.676   8.560   3.869  0.2726 -0.0091  0.0079
22157SOL    HW171318   5.732   8.636   3.856  0.6568  0.0074  1.5115
22157SOL    HW271319   5.694   8.533   3.959 -0.8020 -1.1077 -0.0846
22158SOL     OW71320   1.886   0.076   5.833  0.3843 -0.1780  0.6674
22158SOL    HW171321   1.920   0.065   5.744  0.8591  0.4536  0.7647
22158SOL    HW271322   1.883   0.170   5.847 -2.2274 -0.1531  0.3779
22159SOL     OW71323   1.141   7.643   0.585 -0.2785 -0.4289  0.6398
22159SOL    HW171324   1.196   7.660   0.509 -0.2452  0.0994  0.7813
22159SOL    HW271325   1.121   7.730   0.620  0.0103 -0.6855  1.4539
22160SOL     OW71326   8.868   2.022   0.732  0.6233 -0.0214 -0.4094
22160SOL    HW171327   8.825   2.026   0.817  1.0269 -0.2057 -0.1949
22160SOL    HW271328   8.899   2.111   0.716 -0.3425  0.2524 -0.8344
22161SOL     OW71329   9.421   8.361   5.609  0.3240 -0.7875 -0.4120
22161SOL    HW171330   9.338   8.408   5.624  0.8962 -0.1990  1.1703
22161SOL    HW271331   9.472   8.420   5.553  1.0220  0.5493  1.5303
22162SOL     OW71332   9.324   8.410   2.994  0.1227  0.1719  0.3123
22162SOL    HW171333   9.230   8.405   2.981  0.1072  1.4026 -0.2103
22162SOL    HW271334   9.360   8.342   2.937 -0.3988  0.3248 -0.2038
22163SOL     OW71335   4.764   1.872   3.862 -0.0335 -0.3241 -0.1698
22163SOL    HW171336   4.802   1.877   3.774 -1.0150 -1.4143 -0.6792
22163SOL    HW271337   4.711   1.951   3.870 -0.1684 -0.3616 -0.6689
22164SOL     OW71338   4.482   2.594   7.137  0.0971  0.6864 -0.7274
22164SOL    HW171339   4.574   2.573   7.122  0.8576  2.2118  1.2689
22164SOL    HW271340   4.447   2.516   7.179  0.6036  0.2753 -1.0451
22165SOL     OW71341   8.764   5.462   7.689  0.1753  0.0735  0.1410
22165SOL    HW171342   8.814   5.486   7.767  2.2162 -1.0243 -0.7614
22165SOL    HW271343   8.741   5.370   7.703  0.2419 -0.0247 -0.3834
22166SOL     OW71344   7.247   8.422   1.692 -0.3249  0.1463  0.5753
22166SOL    HW171345   7.305   8.354   1.726  0.1870  0.3318  0.0910
22166SOL    HW271346   7.187   8.440   1.764 -0.4128 -0.7508  0.7456
22167SOL     OW71347   5.890   6.727   3.550 -0.8010 -0.0265 -0.2374
22167SOL    HW171348   5.891   6.816   3.587  1.3946  0.6073 -1.6276
22167SOL    HW271349   5.928   6.672   3.619  0.8067  0.6972 -0.4922
22168SOL     OW71350   1.327   1.246   8.723 -0.5253 -0.0174 -0.4264
22168SOL    HW171351   1.337   1.270   8.815 -2.5631 -0.5072 -0.0202
22168SOL    HW271352   1.411   1.206   8.699  0.1519  0.4069  1.1039
22169SOL     OW71353   0.302   6.900   8.011  0.1235  0.3700  0.3978
22169SOL    HW171354   0.348   6.964   7.956 -1.1188  2.1746  1.3824
22169SOL    HW271355   0.372   6.861   8.064  1.0436  0.1239 -0.9322
22170SOL     OW71356   1.505   5.730   4.417 -0.3202 -0.4399  0.3097
22170SOL    HW171357   1.507   5.654   4.475  0.3466  0.0306  0.9253
22170SOL    HW271358   1.593   5.767   4.424 -0.8768  0.8665  0.6783
22171SOL     OW71359   5.638   2.065   9.134 -0.2237  0.3022  0.2291
22171SOL    HW171360   5.723   2.067   9.177  0.4809  0.1104 -1.1038
22171SOL    HW271361   5.578   2.104   9.197  0.4808 -1.2459  1.9679
22172SOL     OW71362   9.412   3.225   8.021  0.4203 -0.4419  1.0780
22172SOL    HW171363   9.327   3.268   8.033 -0.8538 -2.5431  0.0614
22172SOL    HW271364   9.425   3.174   8.101  1.0450  0.2924  1.4709
22173SOL     OW71365   9.094   0.517   9.160 -0.0014  0.2730 -0.3244
22173SOL    HW171366   9.054   0.602   9.174  0.6040  0.6493 -0.8151
22173SOL    HW271367   9.131   0.494   9.245  1.7681  1.5439 -0.6868
22174SOL     OW71368   9.432   1.748   0.254  0.2724 -0.0632  0.3614
22174SOL    HW171369   9.363   1.792   0.205 -0.7522 -2.6442 -0.6332
22174SOL    HW271370   9.387   1.683   0.307  1.9367 -2.9482 -1.5255
22175SOL     OW71371   3.210   6.760   4.874  0.8079 -0.0080 -0.1534
22175SOL    HW171372   3.306   6.769   4.874  0.8392  0.5757  2.5639
22175SOL    HW271373   3.179   6.835   4.924 -0.4942 -3.4900  5.0001
22176SOL     OW71374   2.775   2.484   7.788 -0.1869  0.5943 -0.2935
22176SOL    HW171375   2.816   2.435   7.716 -0.0698  2.6555 -1.7226
22176SOL    HW271376   2.696   2.522   7.749 -0.8956  0.6067  1.0871
22177SOL     OW71377   4.931   2.874   3.562 -0.0569  0.0293  0.4825
22177SOL    HW171378   4.887   2.865   3.646  0.0647  0.8682  0.6499
22177SOL    HW271379   4.900   2.958   3.527  0.9592  0.3747  0.3496
22178SOL     OW71380   5.708   2.103   3.137 -0.4837 -0.2776 -0.0259
22178SOL    HW171381   5.736   2.079   3.226 -0.2629 -1.3894 -0.3874
22178SOL    HW271382   5.744   2.190   3.124  0.4764 -0.5710  0.5483
22179SOL     OW71383   9.064   5.506   9.666 -0.4136  0.5824  0.0029
22179SOL    HW171384   9.095   5.592   9.695 -0.8664  1.1946 -1.2334
22179SOL    HW271385   9.076   5.449   9.741 -1.1299  1.9922  1.2425
22180SOL     OW71386   2.804   4.571   5.391 -0.4504 -0.3989  0.1571
22180SOL    HW171387   2.794   4.602   5.480 -0.3420 -0.0549  0.0496
22180SOL    HW271388   2.720   4.532   5.370 -0.7020  0.1255  0.1760
22181SOL     OW71389   4.671   4.542   8.001 -0.0500  0.4617  0.3278
22181SOL    HW171390   4.662   4.585   7.916 -1.2139 -0.4813 -0.0352
22181SOL    HW271391   4.748   4.584   8.040  2.8109 -1.5168 -2.6490
22182SOL     OW71392   9.057   7.554   8.330  0.5552 -0.4904 -0.1194
22182SOL    HW171393   9.144   7.533   8.297  0.8080 -0.2899  0.4026
22182SOL    HW271394   9.059   7.648   8.346 -0.2062 -0.2437 -1.3757
22183SOL     OW71395   5.150   3.610   8.122 -0.1202 -0.1572 -0.2343
22183SOL    HW171396   5.210   3.536   8.123 -0.8595 -0.7989 -1.5469
22183SOL    HW271397   5.135   3.629   8.215 -1.3986 -2.9146  0.2219
22184SOL     OW71398   1.091   3.050   7.754  0.4957  0.1841  0.4391
22184SOL    HW171399   1.058   2.975   7.706 -0.0884 -0.1529  1.3332
22184SOL    HW271400   1.141   3.012   7.827  0.0476  0.6369  1.0002
22185SOL     OW71401   2.945   6.034   3.347 -0.9257 -0.0054  0.1304
22185SOL    HW171402   2.950   5.943   3.317 -0.0629 -1.0339  3.0492
22185SOL    HW271403   2.864   6.038   3.397 -1.2611  1.0544 -0.4576
22186SOL     OW71404   4.845   6.715   8.469 -0.1417  0.2744 -0.2763
22186SOL    HW171405   4.899   6.792   8.450 -0.0766 -0.1260 -1.7825
22186SOL    HW271406   4.879   6.647   8.412  0.0488 -1.0232  1.3109
22187SOL     OW71407   2.457   4.518   1.102  0.1130 -0.2105  0.2639
22187SOL    HW171408   2.459   4.446   1.164 -0.0055  0.2248  0.7842
22187SOL    HW271409   2.546   4.522   1.066  0.0739 -0.7196  0.1008
22188SOL     OW71410   5.348   0.188   2.689  0.2307  0.1909 -0.6280
22188SOL    HW171411   5.278   0.178   2.753  0.7128  0.0312 -0.1204
22188SOL    HW271412   5.429   0.183   2.740  0.6374 -0.4914 -1.3162
22189SOL     OW71413   9.494   3.067   7.526 -0.3445  0.0289  0.6893
22189SOL    HW171414   9.530   3.151   7.554 -0.5706 -0.0920  1.3557
22189SOL    HW271415   9.400   3.081   7.517 -0.0431  0.8290 -2.7735
22190SOL     OW71416   0.605   1.998   3.500  0.7362 -0.3214 -0.3363
22190SOL    HW171417   0.571   2.065   3.560 -0.4205  0.0698 -1.3617
22190SOL    HW271418   0.698   2.019   3.490  0.6362  0.4417  0.2349
22191SOL     OW71419   1.925   2.795   2.473 -0.3130  0.2051 -0.2464
22191SOL    HW171420   1.918   2.812   2.379 -0.3863  2.3221  0.0867
22191SOL    HW271421   1.856   2.731   2.491  1.6621 -2.6852 -2.0863
22192SOL     OW71422   8.924   9.668   7.549 -1.0001  0.2935 -0.7033
22192SOL    HW171423   8.852   9.713   7.594 -0.4425 -0.1748  0.7361
22192SOL    HW271424   8.989   9.736   7.533  0.0110  0.0497  1.8184
22193SOL     OW71425   5.455   8.391   1.051 -0.7719 -0.1013  0.4529
22193SOL    HW171426   5.425   8.476   1.082 -1.0774 -0.4663  1.1769
22193SOL    HW271427   5.544   8.406   1.020 -0.7270  0.4207  0.8316
22194SOL     OW71428   3.218   7.188   8.362  0.2794  0.2627 -0.0723
22194SOL    HW171429   3.243   7.225   8.447 -0.3051 -0.0569  0.2481
22194SOL    HW271430   3.151   7.247   8.329  1.1158  0.8716 -0.7240
22195SOL     OW71431   3.888   7.349   1.692  1.0938 -0.0106 -0.0216
22195SOL    HW171432   3.816   7.366   1.632  0.4920  1.3549  1.0153
22195SOL    HW271433   3.856   7.379   1.777  2.4170 -0.5904  0.7161
22196SOL     OW71434   4.137   6.216   3.650 -0.0763 -0.1240 -0.3162
22196SOL    HW171435   4.115   6.132   3.690 -0.2984 -0.0696 -0.3213
22196SOL    HW271436   4.069   6.276   3.682 -0.3403 -0.1143 -0.8931
22197SOL     OW71437   6.447   1.488   6.223  0.4882 -0.4646 -0.0718
22197SOL    HW171438   6.426   1.409   6.174 -0.9049 -0.1529 -0.0335
22197SOL    HW271439   6.459   1.458   6.313 -0.4923 -0.5934  0.0295
22198SOL     OW71440   9.200   0.007   1.415  0.4595  0.3198  0.2395
22198SOL    HW171441   9.250  -0.072   1.435  0.3416  0.0286 -0.5786
22198SOL    HW271442   9.114  -0.026   1.387  0.1089  0.7781  0.7368
22199SOL     OW71443   4.497   3.341   6.208 -0.1116  0.0603 -0.0621
22199SOL    HW171444   4.583   3.311   6.179  0.4932  0.9500  0.7460
22199SOL    HW271445   4.516   3.418   6.262 -1.4510  0.5707 -0.2900
22200SOL     OW71446   8.352   6.954   9.371 -0.1106  0.7951 -0.1017
22200SOL    HW171447   8.304   7.037   9.367 -0.4091  0.6091 -0.4270
22200SOL    HW271448   8.288   6.889   9.399  0.4778  0.9275  1.6563
22201SOL     OW71449   7.972   0.682   5.500 -0.2100  0.4950 -0.0099
22201SOL    HW171450   7.914   0.617   5.540 -1.7256  1.0693 -1.1852
22201SOL    HW271451   8.052   0.634   5.481 -0.7706 -0.6688  0.4443
22202SOL     OW71452   3.277   5.970   0.637  0.1750 -0.2265 -0.6485
22202SOL    HW171453   3.234   6.007   0.559 -2.5801 -0.4954  0.6066
22202SOL    HW271454   3.316   6.045   0.681 -0.2680  0.2916 -1.1129
22203SOL     OW71455   8.256   3.769   7.277  0.6158  0.4906  0.0544
22203SOL    HW171456   8.274   3.750   7.369 -0.0562  1.6951  0.4502
22203SOL    HW271457   8.163   3.747   7.266  0.4655  1.1754 -0.1031
22204SOL     OW71458   9.079   9.128   3.235 -0.1414 -0.7304 -0.1883
22204SOL    HW171459   9.135   9.140   3.158  0.5837  0.3775  0.4814
22204SOL    HW271460   9.058   9.035   3.235 -0.2818 -0.7307 -1.8076
22205SOL     OW71461   3.990   6.932   2.253 -0.0851 -0.0525  0.5830
22205SOL    HW171462   3.988   7.028   2.245 -0.5098  0.0312  1.6181
22205SOL    HW271463   4.074   6.914   2.295  0.5132 -0.2342 -0.6395
22206SOL     OW71464   0.865   6.998   2.062 -0.3396  0.1168  0.0883
22206SOL    HW171465   0.818   6.945   2.128 -0.5658 -0.7403 -0.7365
22206SOL    HW271466   0.933   7.042   2.112 -0.7049 -0.2685  0.9614
22207SOL     OW71467   7.108   6.338   2.243 -0.6980  0.0288  0.4407
22207SOL    HW171468   7.034   6.384   2.203  1.2280  1.5115 -1.6802
22207SOL    HW271469   7.104   6.250   2.206  0.8122  1.2530 -3.0860
22208SOL     OW71470   4.589   3.909   9.057  0.2897 -0.3305  0.3056
22208SOL    HW171471   4.611   4.000   9.077 -1.0663  0.2383 -0.6514
22208SOL    HW271472   4.624   3.895   8.969 -0.4924 -0.3492 -0.0129
22209SOL     OW71473   0.453   0.666   0.458 -0.2483 -0.0435  0.3468
22209SOL    HW171474   0.363   0.693   0.475 -0.3078 -0.0845  0.0909
22209SOL    HW271475   0.452   0.571   0.474 -0.2610 -0.0507  0.3039
22210SOL     OW71476   8.231   7.062   2.513  0.5855  0.4959 -0.4540
22210SOL    HW171477   8.221   6.982   2.564  0.0319  1.8605  1.7073
22210SOL    HW271478   8.313   7.049   2.464  2.3368 -0.0868  2.4109
22211SOL     OW71479   0.866   8.122   4.815  0.0413  0.1298  0.4089
22211SOL    HW171480   0.857   8.203   4.865  1.1984  0.1690  0.5852
22211SOL    HW271481   0.894   8.057   4.880  2.2479  0.3341 -0.2399
22212SOL     OW71482   0.571   8.938   7.642 -0.1416  0.2577  0.2507
22212SOL    HW171483   0.540   9.025   7.615  3.2694  1.0446 -1.7590
22212SOL    HW271484   0.622   8.907   7.568  0.0289 -2.8385  1.5298
22213SOL     OW71485   3.165   2.609   7.131 -0.2261 -0.4647  0.4036
22213SOL    HW171486   3.232   2.547   7.158 -0.7786 -0.5675  1.5953
22213SOL    HW271487   3.160   2.672   7.203 -0.5700  0.2246 -0.2114
22214SOL     OW71488   2.168   1.246   1.455 -0.2353 -0.0724 -0.1357
22214SOL    HW171489   2.106   1.305   1.495  0.4375 -0.7462  2.0510
22214SOL    HW271490   2.114   1.182   1.408 -1.0905  0.5043  0.0484
22215SOL     OW71491   3.498   2.158   9.571  0.5794  0.2457  0.3025
22215SOL    HW171492   3.485   2.077   9.622  1.0825 -1.0422 -1.5134
22215SOL    HW271493   3.482   2.228   9.634 -0.9085 -1.2484  1.7114
22216SOL     OW71494   7.343   5.186   7.954  0.5844 -0.1543  0.4009
22216SOL    HW171495   7.380   5.260   8.003  1.0285  0.5246 -0.9170
22216SOL    HW271496   7.408   5.167   7.887 -0.1340 -0.8834 -0.1060
22217SOL     OW71497   2.214   8.946   4.488  0.4286 -0.0433 -1.0082
22217SOL    HW171498   2.251   8.901   4.413  2.3209  0.9365 -0.7125
22217SOL    HW271499   2.265   9.027   4.496 -1.2949  1.0299 -0.1032
22218SOL     OW71500   1.629   1.295   3.259 -0.0917  0.0203 -0.0764
22218SOL    HW171501   1.689   1.288   3.334  0.2451 -0.2076 -0.3630
22218SOL    HW271502   1.597   1.206   3.245 -0.1368  0.0588 -0.2173
22219SOL     OW71503   6.853   6.184   8.041 -0.0510  0.0071  0.4594
22219SOL    HW171504   6.913   6.236   7.988  2.0174 -1.0911  1.5899
22219SOL    HW271505   6.840   6.103   7.990 -3.1501  1.3727 -1.2323
22220SOL     OW71506   2.239   2.733   4.497 -0.4142  0.4523  0.1275
22220SOL    HW171507   2.333   2.734   4.516 -0.3833  2.0349  0.0309
22220SOL    HW271508   2.234   2.720   4.403 -0.2595  1.1813  0.0166
22221SOL     OW71509   8.129   1.662   3.866 -0.7554 -0.2260 -0.4248
22221SOL    HW171510   8.049   1.650   3.816 -1.6622  2.9730  0.0859
22221SOL    HW271511   8.115   1.742   3.917  2.0946 -0.5101  1.0397
22222SOL     OW71512   4.828   9.534   7.011 -0.8339 -0.2253 -0.3013
22222SOL    HW171513   4.759   9.593   7.040 -1.2451 -1.0775  0.4981
22222SOL    HW271514   4.800   9.447   7.039  1.0487 -0.4818  1.0054
22223SOL     OW71515   3.279   1.374   9.069  0.3827 -0.5000  0.4097
22223SOL    HW171516   3.210   1.428   9.106  0.0087 -0.6248 -0.0924
22223SOL    HW271517   3.321   1.429   9.004 -0.1508 -0.8804 -0.2691
22224SOL     OW71518   9.577   1.683   0.692 -0.2322  0.4182 -0.0396
22224SOL    HW171519   9.583   1.725   0.778 -2.3309 -1.4928  1.1375
22224SOL    HW271520   9.505   1.728   0.649  0.3124  0.8481 -0.5198
22225SOL     OW71521   5.157   0.009   0.590  0.1133 -0.0967 -0.2549
22225SOL    HW171522   5.207   0.053   0.521  2.5687 -1.2575  0.6588
22225SOL    HW271523   5.135   0.079   0.652  2.6765  0.1802  0.4533
22226SOL     OW71524   1.444   9.655   5.543 -0.1438 -0.5080 -0.5707
22226SOL    HW171525   1.480   9.738   5.510 -0.4197 -0.0993  0.1424
22226SOL    HW271526   1.405   9.614   5.466 -0.2809  0.1763 -0.8723
22227SOL     OW71527   7.565   0.177   6.756  0.7517 -0.8452  0.2513
22227SOL    HW171528   7.562   0.272   6.749  2.2817 -0.7894  0.1225
22227SOL    HW271529   7.572   0.159   6.849  0.7584 -0.8313  0.2533
22228SOL     OW71530   9.716   8.507   4.626  0.1092 -0.0303  0.2470
22228SOL    HW171531   9.724   8.602   4.620  0.9641 -0.1304 -0.4929
22228SOL    HW271532   9.742   8.486   4.715  0.0253  0.4201  0.3780
22229SOL     OW71533   1.479   4.653   1.978 -0.6207 -0.0156  0.4187
22229SOL    HW171534   1.395   4.700   1.973 -0.3203  0.5885  0.9546
22229SOL    HW271535   1.517   4.680   2.061 -0.0159 -0.5050  0.3070
22230SOL     OW71536   4.390   4.317   5.543 -0.0714 -0.4079 -0.2256
22230SOL    HW171537   4.426   4.229   5.532 -1.4247 -1.3333  2.0021
22230SOL    HW271538   4.410   4.340   5.633 -0.3269  1.3056 -0.5754
22231SOL     OW71539   5.038   4.035   7.126 -0.2874 -0.3006 -0.5051
22231SOL    HW171540   4.957   4.027   7.176 -0.4167 -0.4320 -0.7340
22231SOL    HW271541   5.021   3.988   7.045 -1.2832  2.7667 -2.2200
22232SOL     OW71542   9.236   3.371   7.032  0.2584 -0.4540 -0.1315
22232SOL    HW171543   9.187   3.406   6.958 -1.4424 -0.9555  0.6909
22232SOL    HW271544   9.271   3.287   7.001  0.3246 -0.2418 -0.6357
22233SOL     OW71545   6.476   6.462   7.595  0.3850  0.5096 -0.5679
22233SOL    HW171546   6.549   6.401   7.600  0.2392  0.2119 -1.8263
22233SOL    HW271547   6.398   6.407   7.599  0.1529  0.9179  2.1661
22234SOL     OW71548   3.406   4.227   3.306  0.2546 -0.6444 -0.4687
22234SOL    HW171549   3.441   4.280   3.378  1.2895 -0.9395 -0.7337
22234SOL    HW271550   3.378   4.146   3.349  1.1711 -0.9524 -0.4207
22235SOL     OW71551   6.416   8.524   8.295  0.3967  0.5133  0.4998
22235SOL    HW171552   6.475   8.449   8.281 -0.5199 -0.2755  0.7613
22235SOL    HW271553   6.378   8.509   8.382  0.2526  1.3301  0.5876
22236SOL     OW71554   7.047   9.606   0.613 -0.4338 -0.0207  0.3832
22236SOL    HW171555   7.116   9.657   0.657 -0.2041 -1.0699  1.2832
22236SOL    HW271556   7.073   9.515   0.626 -0.3635 -0.3908 -1.9953
22237SOL     OW71557   1.941   6.553   9.334  0.2128 -0.1166 -0.0587
22237SOL    HW171558   1.967   6.523   9.421  0.3133  1.5939  0.5453
22237SOL    HW271559   1.846   6.549   9.334  0.2378 -0.8937 -0.1834
22238SOL     OW71560   8.287   7.858   4.211 -0.3018  0.3702  0.4641
22238SOL    HW171561   8.242   7.777   4.190  1.7429 -0.7518  0.0886
22238SOL    HW271562   8.290   7.906   4.129 -1.5837  0.8782  0.7036
22239SOL     OW71563   7.230   0.099   3.001  0.1678  0.0850 -0.6791
22239SOL    HW171564   7.207   0.191   3.016  2.1637  0.9524 -2.4485
22239SOL    HW271565   7.242   0.063   3.089 -0.7841  1.4802  0.0522
22240SOL     OW71566   8.088   8.435   4.776 -0.4501 -0.3300 -0.5219
22240SOL    HW171567   8.114   8.493   4.705  0.4278  0.0097  0.0542
22240SOL    HW271568   8.066   8.494   4.849 -0.3970 -0.6885 -0.2107
22241SOL     OW71569   1.643   9.472   5.580  0.1656  0.4081  0.0898
22241SOL    HW171570   1.572   9.535   5.571 -0.8586 -0.8277 -0.8929
22241SOL    HW271571   1.679   9.463   5.492  1.1664  0.5796  0.4655
22242SOL     OW71572   2.206   8.229   0.782  0.2815  0.5213  0.2832
22242SOL    HW171573   2.253   8.300   0.826  1.2168 -2.0309  3.8135
22242SOL    HW271574   2.271   8.188   0.726  1.1624 -0.3814  1.8975
22243SOL     OW71575   6.735   7.576   7.403 -0.4242  0.4320 -0.2864
22243SOL    HW171576   6.815   7.527   7.386 -0.5906 -0.0115  0.1739
22243SOL    HW271577   6.740   7.651   7.344 -0.7244 -0.7392 -1.8589
22244SOL     OW71578   9.488   8.357   5.907 -0.2221 -0.5964  0.1673
22244SOL    HW171579   9.474   8.449   5.929 -1.1494 -0.9220  1.0619
22244SOL    HW271580   9.418   8.336   5.845  1.6237 -0.0238 -2.2603
22245SOL     OW71581   3.239   1.142   1.104  0.2532  0.2672 -0.3304
22245SOL    HW171582   3.198   1.188   1.031  1.9089  0.4200 -1.1989
22245SOL    HW271583   3.264   1.057   1.067  1.8761  0.6722 -0.1992
22246SOL     OW71584   3.383   7.836   9.692 -0.0704 -0.3121 -0.0013
22246SOL    HW171585   3.366   7.817   9.600 -2.0363  1.1190  0.0056
22246SOL    HW271586   3.461   7.891   9.691  0.0160 -0.4352 -0.7931
22247SOL     OW71587   3.671   1.412   8.664  0.1099 -0.6142  0.5385
22247SOL    HW171588   3.612   1.355   8.714 -0.8165 -0.6658 -0.5780
22247SOL    HW271589   3.623   1.494   8.656  1.2997  0.2624  1.8578
22248SOL     OW71590   4.461   4.047   7.177 -0.3287 -0.4277 -0.2204
22248SOL    HW171591   4.412   3.964   7.176 -1.1904 -0.0019  1.8330
22248SOL    HW271592   4.540   4.027   7.227  0.4320 -0.4623 -1.3889
22249SOL     OW71593   5.501   1.469   3.421  0.0968  0.1454 -0.4532
22249SOL    HW171594   5.521   1.389   3.371 -0.6025 -0.5732  0.3801
22249SOL    HW271595   5.551   1.461   3.501 -0.9629 -0.1006  0.2063
22250SOL     OW71596   5.880   2.039   1.147 -0.2318 -0.0361  0.1357
22250SOL    HW171597   5.937   2.035   1.224  1.4696 -1.8406 -1.1242
22250SOL    HW271598   5.902   2.122   1.105  0.5883 -0.1317  0.3541
22251SOL     OW71599   8.445   6.348   2.783  0.2848 -0.5650 -0.2420
22251SOL    HW171600   8.401   6.427   2.814 -0.0674 -1.1476  0.7860
22251SOL    HW271601   8.406   6.331   2.698 -1.3883 -0.9566  0.5592
22252SOL     OW71602   2.335   4.674   4.979  0.7655 -0.0611  0.5281
22252SOL    HW171603   2.364   4.639   5.063  0.3778  0.2267  0.7806
22252SOL    HW271604   2.379   4.758   4.970 -0.0735  0.4371  0.9716
22253SOL     OW71605   4.278   9.685   7.894 -0.1370 -0.4782  0.5330
22253SOL    HW171606   4.228   9.762   7.920 -0.5667 -0.9956  1.2764
22253SOL    HW271607   4.220   9.637   7.835  0.5514  0.3078 -0.8632
22254SOL     OW71608   1.171   2.063   4.038 -0.2903 -0.0128 -0.1861
22254SOL    HW171609   1.180   1.992   4.101 -0.4236 -0.4899 -0.6901
22254SOL    HW271610   1.077   2.068   4.020 -0.3706  0.7888  0.3923
22255SOL     OW71611   2.460   0.938   0.806  0.0533  0.0490 -0.7131
22255SOL    HW171612   2.419   1.009   0.756 -0.5450  0.6428  0.5636
22255SOL    HW271613   2.457   0.969   0.897  5.4059  1.1764 -0.6395
22256SOL     OW71614   0.858   0.719   3.386  0.0147  0.2054  0.2802
22256SOL    HW171615   0.849   0.623   3.384 -1.5477  0.3336 -1.2635
22256SOL    HW271616   0.817   0.745   3.468 -0.3546 -0.3761  0.2858
22257SOL     OW71617   1.446   2.220   7.073 -0.3538 -0.9517 -0.0637
22257SOL    HW171618   1.492   2.300   7.100  1.3505 -1.6234 -0.8004
22257SOL    HW271619   1.412   2.240   6.986  0.4696 -1.1585 -0.4418
22258SOL     OW71620   6.457   3.685   5.304  0.1522 -0.0940 -0.0561
22258SOL    HW171621   6.399   3.619   5.264 -0.2602  0.8124 -1.0196
22258SOL    HW271622   6.524   3.634   5.349 -0.3006 -1.1739 -0.5590
22259SOL     OW71623   5.014   1.403   3.742 -0.6031  0.0366  0.4806
22259SOL    HW171624   5.009   1.462   3.666 -0.7648 -1.8877 -1.0762
22259SOL    HW271625   5.101   1.364   3.735 -0.4946  0.0793  1.5076
22260SOL     OW71626   6.931   6.658   7.617 -0.1909 -0.0663  0.3477
22260SOL    HW171627   6.870   6.585   7.619  1.0762 -1.1506  0.9735
22260SOL    HW271628   6.971   6.654   7.530 -1.9878  1.5531 -0.6461
22261SOL     OW71629   1.639   8.808   8.153 -0.0702 -0.0189  0.2893
22261SOL    HW171630   1.549   8.822   8.182 -0.8857 -3.4333 -0.1852
22261SOL    HW271631   1.634   8.811   8.058  0.0554 -1.3034  0.2260
22262SOL     OW71632   1.814   5.133   4.650  0.0751 -0.0994 -0.0149
22262SOL    HW171633   1.883   5.093   4.703 -0.4146 -1.4396 -0.3664
22262SOL    HW271634   1.737   5.132   4.706  0.2646  1.2695  0.3239
22263SOL     OW71635   0.351   5.755   2.543 -0.2888  0.5549 -0.5394
22263SOL    HW171636   0.400   5.780   2.621 -0.1555  1.0237 -0.7708
22263SOL    HW271637   0.300   5.833   2.521 -0.5655  0.3205 -0.7376
22264SOL     OW71638   8.745   0.468   7.213  0.0274  1.0649  0.2428
22264SOL    HW171639   8.669   0.485   7.157 -0.3340  0.2315  0.4645
22264SOL    HW271640   8.745   0.373   7.224  1.7603  0.9195 -0.6811
22265SOL     OW71641   9.402   1.825   3.343 -0.1077  0.2270 -0.1104
22265SOL    HW171642   9.450   1.763   3.397 -2.6659 -1.9863 -0.2148
22265SOL    HW271643   9.414   1.794   3.253 -0.9527  0.2021 -0.2224
22266SOL     OW71644   1.673   9.465   3.095  0.4526  0.0160 -0.3820
22266SOL    HW171645   1.620   9.544   3.101  1.1234  0.4751 -0.3879
22266SOL    HW271646   1.682   9.449   3.001  0.1063 -0.2161 -0.3777
22267SOL     OW71647   3.355   8.351   0.573 -0.4971  0.5468  0.7729
22267SOL    HW171648   3.416   8.342   0.499  1.0400  2.4170  1.7123
22267SOL    HW271649   3.268   8.351   0.532  0.2209  0.1063 -0.8635
22268SOL     OW71650   1.050   9.690   5.849 -0.1409  0.2299  0.4878
22268SOL    HW171651   1.074   9.601   5.823  0.7242  0.7652 -0.6555
22268SOL    HW271652   0.964   9.705   5.808 -0.3258 -0.0956  0.7521
22269SOL     OW71653   4.289   4.396   7.421  0.6086 -0.0056 -0.7086
22269SOL    HW171654   4.310   4.337   7.493 -1.6974 -0.0685 -0.0066
22269SOL    HW271655   4.306   4.484   7.457  3.3165 -0.1240 -1.5052
22270SOL     OW71656   3.264   1.171   9.545  0.0022  0.0604 -0.6551
22270SOL    HW171657   3.347   1.148   9.504  0.5824 -0.4912  0.7827
22270SOL    HW271658   3.230   1.242   9.491  1.6535  0.6598 -0.9627
22271SOL     OW71659   3.589   4.735   2.122  0.5166 -0.0573 -1.0616
22271SOL    HW171660   3.542   4.750   2.039 -1.3995  0.1919  0.0206
22271SOL    HW271661   3.597   4.822   2.161 -1.6202 -0.5183  0.5486
22272SOL     OW71662   7.380   0.893   7.317  0.7875  0.1722 -0.3383
22272SOL    HW171663   7.449   0.939   7.366 -0.7653  0.0858  2.0773
22272SOL    HW271664   7.318   0.962   7.294  0.2048 -0.1794  0.1632
22273SOL     OW71665   8.496   7.795   3.972 -0.4499  0.1349  0.0013
22273SOL    HW171666   8.426   7.740   3.935 -0.5024  1.1344 -1.4531
22273SOL    HW271667   8.547   7.735   4.027 -0.1748 -1.5265 -1.9557
22274SOL     OW71668   0.464   6.339   8.376 -0.5125 -0.5731 -0.5699
22274SOL    HW171669   0.538   6.390   8.408  0.7449 -1.7095 -1.6021
22274SOL    HW271670   0.481   6.326   8.283 -0.8340 -2.7407 -0.3800
22275SOL     OW71671   3.225   4.046   8.799 -0.1854 -0.7992  0.1337
22275SOL    HW171672   3.167   3.992   8.853 -1.5478  0.7953  0.3420
22275SOL    HW271673   3.168   4.114   8.762  1.7170  1.5431  1.2413
22276SOL     OW71674   0.828   8.932   8.330  0.0593  0.3603 -0.4215
22276SOL    HW171675   0.888   8.986   8.382  0.6795 -0.6050 -0.1107
22276SOL    HW271676   0.881   8.857   8.302 -1.2603 -1.0929  0.7810
22277SOL     OW71677   3.050   3.587   7.432 -0.2456  0.5089  0.0924
22277SOL    HW171678   2.964   3.611   7.396 -0.8019 -0.9034  0.4216
22277SOL    HW271679   3.111   3.644   7.385 -1.4804  2.8655  1.1388
22278SOL     OW71680   1.711   4.210   7.140 -0.3011 -0.7561 -0.0477
22278SOL    HW171681   1.789   4.178   7.094  0.7400  0.8423  0.5058
22278SOL    HW271682   1.679   4.283   7.086  0.2591  0.3895  1.0997
22279SOL     OW71683   5.417   5.200   4.912 -0.5980 -0.3431 -0.2846
22279SOL    HW171684   5.348   5.251   4.954  0.2981  0.6727 -0.0001
22279SOL    HW271685   5.498   5.248   4.931 -0.0435 -0.3083 -2.4131
22280SOL     OW71686   2.957   8.573   7.447  0.0048  0.9909 -0.0886
22280SOL    HW171687   2.951   8.581   7.542  1.5273  0.8184  0.0501
22280SOL    HW271688   2.937   8.482   7.429 -2.0244  1.4054 -0.1340
22281SOL     OW71689   6.203   5.638   8.786  0.0241  0.7368  0.1512
22281SOL    HW171690   6.145   5.588   8.844 -1.3633  0.0026 -1.7668
22281SOL    HW271691   6.227   5.577   8.717  1.8714  1.5013  0.0561
22282SOL     OW71692   9.220   2.770   7.085  0.0614  0.8633 -0.6205
22282SOL    HW171693   9.266   2.694   7.121  1.8097  1.6766 -1.0125
22282SOL    HW271694   9.266   2.789   7.003  0.0113  2.6278 -0.2773
22283SOL     OW71695   1.430   2.617   6.235  0.4877  0.6200  0.0964
22283SOL    HW171696   1.403   2.623   6.327 -1.5229  0.2511 -0.4204
22283SOL    HW271697   1.409   2.704   6.199  0.4259  0.4747 -0.2191
22284SOL     OW71698   6.571   1.461   2.941  0.0175 -0.1273 -0.1969
22284SOL    HW171699   6.653   1.486   2.984  1.1643 -0.2495 -2.1973
22284SOL    HW271700   6.503   1.511   2.988  1.6164  2.7349 -0.6784
22285SOL     OW71701   3.374   5.964   2.013  0.3980 -0.0227  0.5708
22285SOL    HW171702   3.422   5.956   2.095  0.9976 -0.6106  0.1833
22285SOL    HW271703   3.429   5.916   1.949  0.8978  1.9639 -0.5689
22286SOL     OW71704   4.796   8.248   2.869  0.1928  0.4441  0.2226
22286SOL    HW171705   4.747   8.227   2.949  0.2635  0.8950  0.3875
22286SOL    HW271706   4.847   8.325   2.892 -0.3324  1.0214 -0.4786
22287SOL     OW71707   5.429   4.331   8.708 -0.2080 -0.1277  0.1362
22287SOL    HW171708   5.469   4.400   8.760  0.0194 -0.0647 -0.1234
22287SOL    HW271709   5.448   4.251   8.756 -0.0999 -0.0584  0.2095
22288SOL     OW71710   4.655   6.627   6.110 -0.4089 -0.3074  0.4374
22288SOL    HW171711   4.656   6.535   6.138 -0.5010 -0.6229 -0.5378
22288SOL    HW271712   4.742   6.659   6.133 -0.4714 -0.5518  1.0432
22289SOL     OW71713   2.642   3.899   8.208  0.0123 -0.3398  0.1722
22289SOL    HW171714   2.651   3.990   8.178  0.8084  0.4608  2.6317
22289SOL    HW271715   2.549   3.879   8.195  0.1853  0.0809 -2.2136
22290SOL     OW71716   6.297   7.674   6.565 -0.2649 -0.5371  0.6968
22290SOL    HW171717   6.349   7.736   6.514 -0.0306 -0.4641  1.0156
22290SOL    HW271718   6.268   7.724   6.641  0.3552 -0.9476  1.2198
22291SOL     OW71719   2.790   6.603   3.292 -0.6804 -0.1453 -0.1310
22291SOL    HW171720   2.821   6.654   3.217 -0.0181  0.6510  0.6521
22291SOL    HW271721   2.795   6.512   3.263 -4.7814  0.1770 -2.6794
22292SOL     OW71722   3.283   0.164   9.149 -0.1719 -0.0507  0.1861
22292SOL    HW171723   3.277   0.251   9.190 -2.6225 -0.5837  1.1703
22292SOL    HW271724   3.262   0.179   9.057 -1.0684  0.3772  0.4469
22293SOL     OW71725   9.493   0.719   8.930  0.3565  0.4620 -0.2959
22293SOL    HW171726   9.440   0.776   8.986  1.3769  0.8868  0.2542
22293SOL    HW271727   9.550   0.779   8.882 -1.3562  0.2448 -2.8118
22294SOL     OW71728   7.020   7.617   3.764  0.0751  0.3489 -0.1950
22294SOL    HW171729   6.959   7.554   3.802  0.5862  0.0178  0.0902
22294SOL    HW271730   6.964   7.684   3.726 -0.6305 -1.7091 -3.1569
22295SOL     OW71731   9.418   7.382   2.382  0.7104 -0.2127 -0.2037
22295SOL    HW171732   9.358   7.455   2.398 -2.1459 -2.6534  1.2948
22295SOL    HW271733   9.451   7.359   2.469  0.2254 -1.6801 -0.3807
22296SOL     OW71734   3.847   3.208   0.447 -0.2944  0.2013 -0.2431
22296SOL    HW171735   3.753   3.223   0.455 -0.4485 -0.1104 -1.2991
22296SOL    HW271736   3.870   3.156   0.524 -1.0981 -0.1990 -0.2692
22297SOL     OW71737   0.051   7.969   8.877 -0.0090 -0.3185  0.3050
22297SOL    HW171738   0.007   8.050   8.902 -2.1473 -1.6211  1.0096
22297SOL    HW271739   0.136   7.997   8.844 -0.3372  2.1313  1.3475
22298SOL     OW71740   5.113   8.749   7.725  0.1425  0.6734  0.1714
22298SOL    HW171741   5.137   8.673   7.671 -0.5545  0.7841 -0.3111
22298SOL    HW271742   5.194   8.773   7.770  0.1627 -0.9292  1.0514
22299SOL     OW71743   3.363   0.141   9.475 -0.6302 -0.4241  0.2749
22299SOL    HW171744   3.297   0.210   9.474  0.0377  0.3748  2.5137
22299SOL    HW271745   3.320   0.067   9.518 -0.0959  0.1770  1.9545
22300SOL     OW71746   9.429   4.759   1.415 -0.4804 -1.2516 -0.0998
22300SOL    HW171747   9.496   4.757   1.483 -1.0660 -1.9627  0.4745
22300SOL    HW271748   9.458   4.695   1.351 -0.6804 -1.6595  0.2168
22301SOL     OW71749   6.515   8.163   8.297 -0.3199  0.0456  0.3611
22301SOL    HW171750   6.428   8.128   8.279  0.4210 -2.4601  1.1869
22301SOL    HW271751   6.516   8.176   8.392 -0.8165  3.2993  0.0386
22302SOL     OW71752   4.020   2.696   7.967 -0.0232  0.1123  0.0828
22302SOL    HW171753   3.971   2.619   7.998 -0.4966  0.0076 -0.8986
22302SOL    HW271754   3.975   2.723   7.887  1.1402  0.4090 -0.4940
22303SOL     OW71755   3.790   5.693   6.974 -0.1913  0.4689 -0.2275
22303SOL    HW171756   3.708   5.654   6.942 -0.5026  1.8005 -1.1449
22303SOL    HW271757   3.791   5.673   7.067 -1.7013  0.6226 -0.1468
22304SOL     OW71758   7.348   6.914   7.904 -0.1948 -0.0479  0.4575
22304SOL    HW171759   7.285   6.867   7.849  0.0415  1.3046 -1.0287
22304SOL    HW271760   7.295   6.975   7.955 -0.1586  0.9373 -0.6364
22305SOL     OW71761   1.125   5.045   3.846 -0.1664 -0.3053  0.6757
22305SOL    HW171762   1.149   5.127   3.803 -1.1259  0.2373  1.1642
22305SOL    HW271763   1.207   5.014   3.885  0.0662  0.7476  1.0406
22306SOL     OW71764   6.026   7.662   2.006 -0.0283 -0.3551 -0.3155
22306SOL    HW171765   6.045   7.748   2.044  1.8721 -1.2277  0.8707
22306SOL    HW271766   6.060   7.600   2.070 -1.9933 -2.0418 -0.7985
22307SOL     OW71767   4.473   7.930   9.555  0.0000 -0.3262 -0.0562
22307SOL    HW171768   4.552   7.895   9.598 -0.6683 -1.1234  0.5694
22307SOL    HW271769   4.425   7.852   9.527 -0.0396  0.1702 -1.4395
22308SOL     OW71770   5.300   7.528   4.461 -0.2270 -0.1880  0.5086
22308SOL    HW171771   5.286   7.550   4.553  2.8936 -1.7384  1.5135
22308SOL    HW271772   5.358   7.452   4.463  2.7885  1.7258 -2.6955
22309SOL     OW71773   8.315   1.168   8.563 -0.3376 -0.3720 -1.0634
22309SOL    HW171774   8.363   1.097   8.605 -2.2077 -1.7454 -1.1057
22309SOL    HW271775   8.365   1.189   8.484  0.9875 -0.6531 -0.3119
22310SOL     OW71776   6.880   8.589   4.580  0.5230  0.0918 -0.7425
22310SOL    HW171777   6.940   8.577   4.507  1.5408  1.4270 -0.1644
22310SOL    HW271778   6.891   8.680   4.606 -1.9407  0.4680 -0.7525
22311SOL     OW71779   8.140   5.178   5.873 -0.3644  0.1126  0.4282
22311SOL    HW171780   8.179   5.252   5.827  2.4474 -1.0333  0.7765
22311SOL    HW271781   8.180   5.179   5.960 -1.2029 -1.1191  0.8605
22312SOL     OW71782   7.881   9.156   3.859  0.5561 -0.2078  0.3101
22312SOL    HW171783   7.794   9.119   3.844  0.7386 -0.0282 -1.4423
22312SOL    HW271784   7.896   9.145   3.952 -1.5132  0.1083  0.7435
22313SOL     OW71785   8.880   2.304   7.304 -0.6679  0.5971 -0.6749
22313SOL    HW171786   8.915   2.341   7.385 -1.9747  1.4693 -0.5010
22313SOL    HW271787   8.957   2.266   7.261 -0.2770 -2.2999  2.1910
22314SOL     OW71788   8.033   9.505   0.495 -0.3221 -0.4700 -1.0501
22314SOL    HW171789   8.058   9.442   0.427  1.3234 -0.6455 -0.3415
22314SOL    HW271790   8.112   9.514   0.549 -0.4610  2.3173 -1.2046
22315SOL     OW71791   8.898   7.219   6.037  0.2879 -0.4531 -0.0042
22315SOL    HW171792   8.949   7.268   6.101 -2.7210  0.4610  1.9100
22315SOL    HW271793   8.915   7.264   5.954 -1.1420  3.0862  1.4029
22316SOL     OW71794   7.415   7.817   8.133  0.0896  0.1167  0.0620
22316SOL    HW171795   7.403   7.910   8.153 -0.7305 -0.4018  2.3127
22316SOL    HW271796   7.495   7.793   8.181 -0.9737 -0.8067  1.4482
22317SOL     OW71797   2.545   4.015   6.881  0.7469 -0.0092  0.2194
22317SOL    HW171798   2.456   4.040   6.858  1.4136  0.4318 -2.0615
22317SOL    HW271799   2.582   4.094   6.922  0.9287  0.7788 -1.3887
22318SOL     OW71800   5.733   0.685   0.589  0.3178  0.1014 -0.1268
22318SOL    HW171801   5.763   0.630   0.516 -2.5888 -0.4249 -1.0762
22318SOL    HW271802   5.701   0.622   0.654  1.4403  0.6111  0.9432
22319SOL     OW71803   7.580   7.539   5.302 -0.1003 -0.0193  0.3579
22319SOL    HW171804   7.633   7.466   5.334 -0.2842  0.4301  1.7945
22319SOL    HW271805   7.639   7.588   5.244 -0.3001 -1.8371 -1.4727
22320SOL     OW71806   4.953   2.841   1.941  0.3010  0.2237 -0.1476
22320SOL    HW171807   4.999   2.896   2.005 -0.6165  0.7534  0.0773
22320SOL    HW271808   5.010   2.765   1.930  0.9896  0.6259  0.4914
22321SOL     OW71809   8.856   3.374   1.924  0.1046  0.2486 -0.3846
22321SOL    HW171810   8.851   3.451   1.980  0.4952  0.7768 -1.0637
22321SOL    HW271811   8.778   3.380   1.868  0.2057  0.2276 -0.5293
22322SOL     OW71812   6.611   7.376   8.493  0.1209  0.4625 -0.2778
22322SOL    HW171813   6.682   7.433   8.464  2.3876 -2.0207  0.0702
22322SOL    HW271814   6.636   7.346   8.580 -0.2958 -2.0211 -0.9274
22323SOL     OW71815   9.221   1.326   8.845  0.2065  0.2011  0.5449
22323SOL    HW171816   9.286   1.317   8.915  1.8527  0.8912 -0.8280
22323SOL    HW271817   9.236   1.250   8.789  1.2978  1.4099 -0.8856
22324SOL     OW71818   1.544   4.329   2.646  0.7958 -0.4394  0.4329
22324SOL    HW171819   1.626   4.368   2.617  0.0225 -0.4721 -1.9981
22324SOL    HW271820   1.502   4.398   2.698  1.3851  0.3791 -0.1526
22325SOL     OW71821   6.630   0.506   1.637 -0.0412 -0.4996  0.0277
22325SOL    HW171822   6.623   0.602   1.644 -1.3375 -0.6912  2.3848
22325SOL    HW271823   6.659   0.491   1.547 -0.0031  2.0978 -0.4796
22326SOL     OW71824   7.561   1.225   7.237  0.1570  0.2306 -0.1183
22326SOL    HW171825   7.471   1.218   7.206 -0.0843  0.4584  0.5243
22326SOL    HW271826   7.614   1.194   7.163 -0.4252  0.4077 -0.6153
22327SOL     OW71827   3.655   1.219   0.075 -0.3985 -0.5387  0.3805
22327SOL    HW171828   3.640   1.179   0.160  1.0000 -1.5853  0.1692
22327SOL    HW271829   3.695   1.150   0.022  0.7744  0.7141 -0.4486
22328SOL     OW71830   4.011   8.269   1.396 -0.5116  0.3604 -0.3490
22328SOL    HW171831   4.015   8.364   1.399 -1.1810  0.3903 -0.0943
22328SOL    HW271832   4.088   8.239   1.444 -0.5402  0.7769 -0.0417
22329SOL     OW71833   7.870   9.121   4.136  0.4351 -0.1325  0.2127
22329SOL    HW171834   7.888   9.185   4.205 -0.8260  0.4343  0.0371
22329SOL    HW271835   7.812   9.057   4.177  0.4756 -0.3368 -0.0444
22330SOL     OW71836   2.795   5.074   5.762 -0.0533 -0.5041 -0.4107
22330SOL    HW171837   2.729   5.021   5.717 -0.6068 -0.3886  0.2502
22330SOL    HW271838   2.871   5.073   5.703  0.3775 -2.9694  0.1163
22331SOL     OW71839   0.732   6.675   9.570  0.0744 -0.3720  0.8077
22331SOL    HW171840   0.822   6.705   9.586  0.0556 -0.5394  1.2273
22331SOL    HW271841   0.736   6.580   9.582 -0.3701 -0.2702  1.8316
22332SOL     OW71842   7.931   0.496   4.671  0.6043  0.1299 -0.0306
22332SOL    HW171843   7.898   0.508   4.760 -0.4844  0.4163 -0.4510
22332SOL    HW271844   7.916   0.581   4.629 -1.7481 -0.8511 -1.3622
22333SOL     OW71845   0.797   8.498   2.072  0.5768 -0.4411  0.3301
22333SOL    HW171846   0.783   8.507   1.978 -0.2652  0.8150  0.5499
22333SOL    HW271847   0.729   8.438   2.101  1.9595 -2.2961 -0.1074
22334SOL     OW71848   0.505   9.593   8.178  0.3842  0.0454 -0.1264
22334SOL    HW171849   0.534   9.683   8.162  2.6925 -0.9792 -2.3945
22334SOL    HW271850   0.575   9.555   8.230 -1.8262  0.1577  3.2130
22335SOL     OW71851   9.221   7.217   8.176  0.0673  0.0451  0.3839
22335SOL    HW171852   9.142   7.163   8.171 -1.1205  1.6531  0.5904
22335SOL    HW271853   9.243   7.219   8.269  0.7410 -0.9219  0.2483
22336SOL     OW71854   9.111   1.197   2.289 -0.2256  0.7845 -0.2687
22336SOL    HW171855   9.101   1.181   2.196 -1.0888 -0.1979 -0.0165
22336SOL    HW271856   9.032   1.161   2.329 -0.2696  1.9592  0.7606
22337SOL     OW71857   4.954   1.025   6.396 -0.7109 -0.4384 -0.0248
22337SOL    HW171858   4.926   1.040   6.486 -0.5252 -0.1638 -0.0089
22337SOL    HW271859   5.044   0.993   6.404 -0.2461  0.7639 -0.1484
22338SOL     OW71860   5.246   3.127   0.567 -0.1355 -0.5477 -0.2974
22338SOL    HW171861   5.282   3.140   0.655  2.4876 -1.4059 -1.1528
22338SOL    HW271862   5.292   3.050   0.533 -1.2329 -0.3699 -2.3669
22339SOL     OW71863   0.733   8.750   3.001 -0.6497  0.3187 -0.2806
22339SOL    HW171864   0.739   8.845   2.991 -0.6330  0.2826 -0.6146
22339SOL    HW271865   0.640   8.733   3.015 -0.7581  0.3134 -0.9762
22340SOL     OW71866   0.912   1.120   0.753 -0.7832  0.4929 -0.3373
22340SOL    HW171867   0.833   1.122   0.699 -1.2547 -0.5114  0.2884
22340SOL    HW271868   0.972   1.180   0.709 -1.4068  0.2424 -1.5885
22341SOL     OW71869   7.385   6.304   5.845  0.3139  0.4613  0.4535
22341SOL    HW171870   7.356   6.339   5.929 -0.4969  0.6624  0.0990
22341SOL    HW271871   7.481   6.304   5.851  0.3217  2.0325  0.7443
22342SOL     OW71872   1.322   6.036   0.991  0.0543  1.0925 -0.0212
22342SOL    HW171873   1.376   6.114   0.997  0.6992  0.7042 -0.5914
22342SOL    HW271874   1.260   6.055   0.921 -0.1355  1.2939  0.2002
22343SOL     OW71875   4.301   8.654   7.015  0.3425  0.3089 -0.0383
22343SOL    HW171876   4.365   8.707   7.064 -0.6955  1.5771 -0.0008
22343SOL    HW271877   4.323   8.669   6.923 -0.5695  1.6638 -0.0619
22344SOL     OW71878   6.394   4.756   7.691  0.7375  0.4794 -0.7777
22344SOL    HW171879   6.451   4.737   7.617  0.3744 -0.3763 -0.8505
22344SOL    HW271880   6.309   4.774   7.651 -0.1618 -2.6546 -0.4887
22345SOL     OW71881   5.802   8.377   8.653 -0.5133  0.0645  0.5356
22345SOL    HW171882   5.706   8.382   8.663 -0.8722 -0.1860 -2.0494
22345SOL    HW271883   5.825   8.293   8.692 -1.0656  0.7849  2.5733
22346SOL     OW71884   9.210   7.835   1.851 -0.1459 -0.8868  0.5985
22346SOL    HW171885   9.245   7.924   1.841 -2.6909  0.0500 -0.7504
22346SOL    HW271886   9.251   7.803   1.931 -0.8969  2.3828  2.4806
22347SOL     OW71887   6.815   9.303   7.430  0.1480 -0.1246  0.4075
22347SOL    HW171888   6.888   9.360   7.407  0.7150  0.1139  2.6128
22347SOL    HW271889   6.782   9.339   7.513 -1.4575 -1.1810  0.2609
22348SOL     OW71890   9.598   6.966   8.010  0.6183 -0.2863  0.0806
22348SOL    HW171891   9.549   7.031   7.959 -0.6354 -1.0246  0.3253
22348SOL    HW271892   9.650   6.919   7.944 -0.0252 -0.3902 -0.3568
22349SOL     OW71893   8.775   8.837   9.349  0.5648  0.5513  0.1037
22349SOL    HW171894   8.714   8.900   9.387 -2.4665 -2.3030  0.3856
22349SOL    HW271895   8.804   8.783   9.423  0.0153 -0.7541 -0.5947
22350SOL     OW71896   2.057   4.753   8.452  0.6460  0.0231 -0.8730
22350SOL    HW171897   1.993   4.690   8.419  1.5743 -1.5812  0.2742
22350SOL    HW271898   2.111   4.775   8.377 -1.1166  1.3256 -1.8466
22351SOL     OW71899   2.914   8.741   8.297 -0.0861 -0.8740  0.0010
22351SOL    HW171900   2.856   8.724   8.223  0.7442 -1.3585 -0.5539
22351SOL    HW271901   2.864   8.800   8.354 -0.1527  0.8084 -1.7143
22352SOL     OW71902   2.934   6.704   3.089  0.0174  0.4994 -0.5910
22352SOL    HW171903   2.961   6.684   3.000  2.5174  0.4891  0.0911
22352SOL    HW271904   2.921   6.799   3.090 -1.2841  0.3373 -1.2532
22353SOL     OW71905   6.933   0.545   5.663 -0.5191  0.1361  0.1971
22353SOL    HW171906   6.998   0.591   5.611  1.4302 -2.4081  0.2252
22353SOL    HW271907   6.886   0.615   5.709  1.2565  2.1435 -0.8701
22354SOL     OW71908   9.406   7.906   3.897 -0.6381 -0.1184  0.5215
22354SOL    HW171909   9.351   7.841   3.940 -1.9461  0.2058 -0.5587
22354SOL    HW271910   9.349   7.944   3.829  0.6027  0.9865  0.0467
22355SOL     OW71911   4.405   3.791   6.290  0.1230 -0.3181 -0.0753
22355SOL    HW171912   4.449   3.871   6.260  3.1701 -1.6356  0.5027
22355SOL    HW271913   4.462   3.756   6.358 -1.3488 -2.7665  0.0189
22356SOL     OW71914   9.073   7.424   0.575 -0.0383  0.5625  0.2148
22356SOL    HW171915   8.983   7.401   0.553  0.7323 -2.1657 -0.4583
22356SOL    HW271916   9.085   7.391   0.664  0.5405  0.0494 -0.0437
22357SOL     OW71917   8.711   0.083   1.193 -0.2871 -0.4249 -0.2576
22357SOL    HW171918   8.668   0.006   1.156 -1.2266 -0.0225 -0.0309
22357SOL    HW271919   8.717   0.065   1.287  0.2110 -0.5528 -0.3094
22358SOL     OW71920   0.883   4.873   7.647 -0.3612  0.6793 -0.3868
22358SOL    HW171921   0.918   4.923   7.573 -0.3906 -0.6755 -1.3580
22358SOL    HW271922   0.881   4.935   7.720  2.1414  1.3589 -0.8223
22359SOL     OW71923   7.290   4.366   1.564  0.4075 -0.6030 -0.3122
22359SOL    HW171924   7.383   4.386   1.560  0.1302  0.7518 -0.2654
22359SOL    HW271925   7.250   4.444   1.602 -0.7855 -1.0571 -0.5896
22360SOL     OW71926   9.355   5.019   1.316  0.0448 -0.1566  0.4040
22360SOL    HW171927   9.375   4.929   1.340 -1.8550 -1.4809 -2.4289
22360SOL    HW271928   9.266   5.016   1.282  0.5604  2.4140 -1.5183
22361SOL     OW71929   6.495   6.583   4.848  0.2597 -0.3979  0.6047
22361SOL    HW171930   6.565   6.527   4.813  0.3728  0.6919 -1.0685
22361SOL    HW271931   6.449   6.528   4.911  1.0571 -1.9995 -0.1433
22362SOL     OW71932   3.157   7.561   3.624  0.4687  0.3188  0.0806
22362SOL    HW171933   3.179   7.517   3.706  0.1564  0.8935  0.4800
22362SOL    HW271934   3.105   7.637   3.651 -1.6362 -0.7206 -0.7841
22363SOL     OW71935   6.960   0.147   5.821  0.2245  0.5704  0.5846
22363SOL    HW171936   6.898   0.114   5.886 -0.1326 -1.5510 -0.7440
22363SOL    HW271937   7.034   0.086   5.825  1.4835  2.0299  0.8840
22364SOL     OW71938   5.730   2.335   2.203 -0.2394  0.1201  0.0071
22364SOL    HW171939   5.755   2.373   2.287  1.0014  0.8733 -0.6780
22364SOL    HW271940   5.772   2.248   2.203  1.0926  0.7400 -0.4619
22365SOL     OW71941   8.910   9.644   4.069 -0.2532 -0.3486 -0.0971
22365SOL    HW171942   8.836   9.676   4.120 -0.9762 -1.2764 -0.5283
22365SOL    HW271943   8.871   9.588   4.002  0.7315  0.3155 -1.2715
22366SOL     OW71944   9.593   1.840   6.951 -0.0553  0.1285 -0.5850
22366SOL    HW171945   9.684   1.870   6.945  0.7915 -1.5874  2.2475
22366SOL    HW271946   9.596   1.747   6.931 -0.9737 -0.2042  0.6742
22367SOL     OW71947   1.039   0.894   8.042  0.2095  0.4210 -0.5874
22367SOL    HW171948   1.129   0.917   8.067 -0.4660  1.8028  0.7235
22367SOL    HW271949   0.984   0.942   8.104 -1.4413 -0.6254 -1.1828
22368SOL     OW71950   5.700   1.345   7.913  0.2078  0.4750  0.1487
22368SOL    HW171951   5.704   1.250   7.911  0.5962  0.4989 -0.5796
22368SOL    HW271952   5.606   1.365   7.913  0.0915  0.0930  1.6484
22369SOL     OW71953   0.784   5.553   7.446  0.1655  0.1035 -0.0045
22369SOL    HW171954   0.765   5.584   7.358  0.6198 -1.0225 -0.5144
22369SOL    HW271955   0.725   5.604   7.502  0.0150  0.9773 -0.9215
22370SOL     OW71956   9.079   2.525   7.021  0.1535  0.3111  0.3650
22370SOL    HW171957   9.157   2.475   7.043  0.6886  0.0888 -1.8028
22370SOL    HW271958   9.092   2.610   7.064  0.4648 -0.4991  1.9165
22371SOL     OW71959   5.671   4.096   6.902  0.1343 -0.1184 -0.1612
22371SOL    HW171960   5.647   4.018   6.852 -0.2043  0.9146 -1.6778
22371SOL    HW271961   5.596   4.154   6.893  0.8297  0.8231  0.0357
22372SOL     OW71962   5.129   5.188   0.441 -0.2792 -0.2046  0.0042
22372SOL    HW171963   5.222   5.211   0.436 -0.2840 -0.1029  0.3977
22372SOL    HW271964   5.096   5.205   0.353  0.5350 -2.2777 -0.7722
22373SOL     OW71965   6.370   9.663   7.306  0.5241  0.4982  0.6592
22373SOL    HW171966   6.433   9.727   7.340  1.0713 -0.2675  1.1140
22373SOL    HW271967   6.343   9.699   7.221  0.6193  1.4586  1.0275
22374SOL     OW71968   4.764   9.435   6.563 -0.2933 -0.3644 -0.2916
22374SOL    HW171969   4.694   9.501   6.572  0.7356  0.7404 -0.1608
22374SOL    HW271970   4.844   9.482   6.586  0.4401 -1.7598  0.0905
22375SOL     OW71971   7.769   5.089   4.905  0.5112  0.0318 -0.0688
22375SOL    HW171972   7.809   5.057   4.986 -0.5453  0.9027  0.8435
22375SOL    HW271973   7.707   5.020   4.880 -1.2862  0.9439  1.5315
22376SOL     OW71974   4.994   4.535   3.491  0.1873 -0.2063  0.3862
22376SOL    HW171975   5.073   4.508   3.537  0.7732  0.9280  0.1033
22376SOL    HW271976   5.013   4.518   3.399  0.4724  0.8704  0.2290
22377SOL     OW71977   5.220   9.640   3.557  0.1465 -0.1386 -0.5735
22377SOL    HW171978   5.238   9.569   3.618 -1.9782 -0.5732 -0.3747
22377SOL    HW271979   5.182   9.709   3.612  0.4238  0.4128 -1.0605
22378SOL     OW71980   6.435   3.517   0.417  0.0424  0.2354  0.2284
22378SOL    HW171981   6.436   3.613   0.415 -1.7958  0.2863 -0.6931
22378SOL    HW271982   6.497   3.493   0.485  1.0529  2.0620 -0.0040
22379SOL     OW71983   3.954   7.344   2.565 -0.3472  0.5040 -0.1797
22379SOL    HW171984   4.037   7.391   2.576  0.3281 -0.5272 -0.6783
22379SOL    HW271985   3.902   7.368   2.642  0.1103  1.7573 -0.2424
22380SOL     OW71986   9.658   6.161   1.848  0.2059 -0.0389  0.3645
22380SOL    HW171987   9.642   6.121   1.763  1.5077 -0.1358  0.1477
22380SOL    HW271988   9.571   6.166   1.889 -0.3458 -0.5641 -0.7021
22381SOL     OW71989   6.251   4.636   5.842 -0.0349  0.0431 -0.3552
22381SOL    HW171990   6.319   4.703   5.834  0.7156 -0.6807 -0.1489
22381SOL    HW271991   6.291   4.557   5.808  0.0986 -0.9741  1.9456
22382SOL     OW71992   3.389   9.109   5.327 -0.2123  0.6373  0.0174
22382SOL    HW171993   3.413   9.021   5.356 -0.9331  0.3701 -0.1726
22382SOL    HW271994   3.471   9.147   5.296 -0.1812 -0.6178 -1.5791
22383SOL     OW71995   5.566   4.675   2.768 -0.2129 -0.8112 -0.3366
22383SOL    HW171996   5.631   4.706   2.705 -1.6284  2.2952 -0.4678
22383SOL    HW271997   5.562   4.745   2.834 -3.4091 -0.7819 -0.4017
22384SOL     OW71998   6.279   2.555   7.122  0.0519  0.0439 -0.4616
22384SOL    HW171999   6.235   2.541   7.207  0.7376  0.1155 -0.0888
22384SOL    HW272000   6.308   2.467   7.097  0.4744  0.1323 -0.2772
22385SOL     OW72001   3.016   6.910   1.824 -1.0679 -0.5259  0.0627
22385SOL    HW172002   2.943   6.882   1.879 -0.7287 -0.2054  0.6929
22385SOL    HW272003   3.052   6.829   1.789  1.0359 -1.2102  3.2919
22386SOL     OW72004   2.251   6.545   0.535  0.2097  0.1332 -0.5033
22386SOL    HW172005   2.266   6.454   0.507 -0.5768 -0.2247  0.1984
22386SOL    HW272006   2.170   6.542   0.585  0.5832  1.0913  0.1981
22387SOL     OW72007   7.269   4.057   8.042  0.4284 -0.6993  0.2471
22387SOL    HW172008   7.305   4.146   8.030 -1.3361  0.1623  1.0203
22387SOL    HW272009   7.231   4.035   7.957  0.3243 -0.4521  0.2279
22388SOL     OW72010   3.259   6.873   6.952  0.1716 -0.2529 -0.0070
22388SOL    HW172011   3.187   6.822   6.990  0.0633 -0.6199 -0.6953
22388SOL    HW272012   3.265   6.843   6.862  1.5900 -0.6640  0.2011
22389SOL     OW72013   5.390   0.694   3.416 -0.1328 -0.0481 -0.1786
22389SOL    HW172014   5.443   0.766   3.381 -0.9104  0.8873  0.5261
22389SOL    HW272015   5.432   0.672   3.499 -1.8451  1.9895  1.3483
22390SOL     OW72016   5.564   1.280   2.840 -0.1211  0.1627 -0.2490
22390SOL    HW172017   5.601   1.205   2.793  0.3976  0.4385 -0.2977
22390SOL    HW272018   5.532   1.338   2.771  1.3859  0.9514 -0.3385
22391SOL     OW72019   2.699   0.248   4.111 -0.7206  0.0702 -0.4272
22391SOL    HW172020   2.729   0.299   4.036 -1.4146 -0.8593 -1.3623
22391SOL    HW272021   2.763   0.266   4.179  0.8856 -0.3683 -1.7647
22392SOL     OW72022   3.338   1.497   9.480 -0.6329 -0.4453 -0.2116
22392SOL    HW172023   3.381   1.487   9.395 -3.4737 -3.0938 -1.5578
22392SOL    HW272024   3.262   1.552   9.462 -0.1188  0.7395  1.1450
22393SOL     OW72025   1.250   2.701   7.616  0.0200 -0.0976 -0.4706
22393SOL    HW172026   1.337   2.663   7.606  0.4458  0.4916  0.7711
22393SOL    HW272027   1.193   2.627   7.637  0.7284 -0.1948  1.3157
22394SOL     OW72028   2.577   3.945   1.697 -0.0646  0.2486 -0.1153
22394SOL    HW172029   2.543   4.007   1.633 -2.2191 -1.6839 -0.9840
22394SOL    HW272030   2.639   3.891   1.647 -1.6188 -1.1496 -0.6469
22395SOL     OW72031   9.544   8.566   1.748  0.2578  0.0012  0.5310
22395SOL    HW172032   9.508   8.536   1.832 -0.9444 -0.2693 -0.0545
22395SOL    HW272033   9.548   8.661   1.757 -2.1826  0.2085  0.0688
22396SOL     OW72034   3.022   7.471   4.369 -0.1019  0.0076  0.1503
22396SOL    HW172035   2.949   7.419   4.335  0.9159 -2.1528  1.0456
22396SOL    HW272036   3.065   7.413   4.432  1.1130  2.0054  1.2541
22397SOL     OW72037   1.049   5.642   9.547 -0.3560 -0.2723 -0.0887
22397SOL    HW172038   1.026   5.729   9.515  0.9179 -0.6463 -2.2027
22397SOL    HW272039   1.120   5.613   9.490  1.7180 -1.3118  2.7860
22398SOL     OW72040   5.966   1.786   1.927 -0.2732 -0.2113  0.1408
22398SOL    HW172041   5.912   1.791   1.848 -0.4274 -2.8036 -0.0025
22398SOL    HW272042   5.921   1.841   1.991 -0.3950  1.5707 -1.3988
22399SOL     OW72043   8.332   8.716   1.252 -0.6853  0.0612  0.1114
22399SOL    HW172044   8.246   8.757   1.243 -2.6421 -2.9127  3.0548
22399SOL    HW272045   8.336   8.652   1.182 -0.5040  0.6700 -0.4500
22400SOL     OW72046   4.102   6.357   3.060  0.3145  0.0748  0.2252
22400SOL    HW172047   4.031   6.321   3.007  2.0725 -2.2758 -0.7794
22400SOL    HW272048   4.078   6.336   3.150 -0.3327 -0.5509 -0.0815
22401SOL     OW72049   4.810   2.555   3.804 -0.4749 -0.4376 -0.1786
22401SOL    HW172050   4.904   2.540   3.819 -0.3117  1.7288  1.4742
22401SOL    HW272051   4.766   2.492   3.860 -0.0216 -1.3557 -0.8373
22402SOL     OW72052   6.161   7.452   0.475 -0.2265  0.0173 -0.2404
22402SOL    HW172053   6.204   7.375   0.513 -0.3944  0.5975  1.1702
22402SOL    HW272054   6.068   7.427   0.469 -0.5483  0.6124  1.6564
22403SOL     OW72055   7.498   5.910   6.684 -0.4267 -0.4968  0.1121
22403SOL    HW172056   7.527   5.832   6.732 -2.7408 -1.8488 -0.5525
22403SOL    HW272057   7.561   5.917   6.612  1.0655 -0.4493  1.3698
22404SOL     OW72058   6.797   3.969   5.452 -0.4434 -0.5454  0.0881
22404SOL    HW172059   6.886   3.942   5.473 -0.6574 -1.1388  0.2400
22404SOL    HW272060   6.784   3.940   5.361 -0.8192 -1.3423  0.3910
22405SOL     OW72061   5.651   1.975   5.089  0.1376  0.5812  0.0462
22405SOL    HW172062   5.707   1.906   5.125 -2.0904 -1.1384  0.4423
22405SOL    HW272063   5.631   1.946   5.000 -2.3085 -0.3297  0.8279
22406SOL     OW72064   1.660   4.369   5.196 -0.0354 -0.0707 -0.3269
22406SOL    HW172065   1.712   4.410   5.126 -0.4415  1.0136 -0.0070
22406SOL    HW272066   1.594   4.434   5.219 -0.5887 -0.8406  0.3307
22407SOL     OW72067   2.500   4.027   8.894 -0.3592 -0.2518 -0.1618
22407SOL    HW172068   2.581   3.975   8.901 -0.3952 -0.4599 -1.1563
22407SOL    HW272069   2.504   4.065   8.806 -1.7605 -0.9874 -0.5811
22408SOL     OW72070   5.068   2.541   4.530  0.0833  0.6254 -0.1253
22408SOL    HW172071   5.063   2.629   4.493 -0.0604  1.1501  1.0858
22408SOL    HW272072   5.147   2.542   4.585  0.3785 -0.1807 -0.5016
22409SOL     OW72073   5.127   4.725   7.996 -0.3019 -0.0547 -0.2133
22409SOL    HW172074   5.090   4.813   7.988  0.1267  0.1820  0.2828
22409SOL    HW272075   5.056   4.672   8.034 -0.0881  0.4501  0.9581
22410SOL     OW72076   6.344   4.645   1.855 -0.4198  0.7492 -0.2651
22410SOL    HW172077   6.409   4.714   1.843 -1.6379  1.7259 -1.6392
22410SOL    HW272078   6.326   4.645   1.949 -0.3882  2.3204 -0.2296
22411SOL     OW72079   8.406   7.737   4.432  0.7261  0.5348 -0.8103
22411SOL    HW172080   8.369   7.677   4.497  3.0222 -1.2949 -1.0636
22411SOL    HW272081   8.330   7.783   4.396 -0.9390 -0.7908  0.8122
22412SOL     OW72082   6.308   4.006   2.103  0.0820 -0.0719  0.3850
22412SOL    HW172083   6.218   4.021   2.133 -0.0182  0.5403 -0.2145
22412SOL    HW272084   6.343   3.942   2.166 -0.7101 -0.1866  0.7260
22413SOL     OW72085   7.440   4.942   8.256  0.0348  0.1670  0.4199
22413SOL    HW172086   7.499   4.973   8.187 -1.0075  1.5514  0.1257
22413SOL    HW272087   7.353   4.965   8.226 -0.9417 -3.4643 -0.0122
22414SOL     OW72088   1.056   3.338   3.296  0.4462 -0.3315 -0.4411
22414SOL    HW172089   1.002   3.278   3.244  0.7221 -0.5973 -0.4223
22414SOL    HW272090   0.999   3.413   3.313 -0.3315 -1.1097  0.5685
22415SOL     OW72091   9.126   2.259   7.222  0.2941  0.2374 -0.0363
22415SOL    HW172092   9.172   2.190   7.271  0.0328 -0.7107 -1.0920
22415SOL    HW272093   9.194   2.301   7.170  0.4917  0.9553  0.7637
22416SOL     OW72094   6.614   7.258   0.398  0.0211  0.0107  0.1524
22416SOL    HW172095   6.614   7.167   0.427 -1.6207  0.0866  0.4746
22416SOL    HW272096   6.584   7.307   0.474 -1.4847  0.5356 -0.7340
22417SOL     OW72097   8.064   7.977   3.214  0.3581 -0.5533 -0.6360
22417SOL    HW172098   8.092   8.015   3.130  1.2397 -0.0151 -0.1183
22417SOL    HW272099   8.143   7.934   3.247 -0.4587 -2.3396 -0.9233
22418SOL     OW72100   5.813   3.329   4.238  0.0702  0.3701  0.0019
22418SOL    HW172101   5.894   3.378   4.252  1.1763 -1.3919  0.0001
22418SOL    HW272102   5.764   3.381   4.175  3.0064 -0.4447 -3.2335
22419SOL     OW72103   0.029   6.593   0.740 -0.3976 -0.4473  0.1713
22419SOL    HW172104  -0.046   6.546   0.702  0.1509  0.8850 -2.8513
22419SOL    HW272105   0.105   6.555   0.697  0.5204 -0.3065  1.6094
22420SOL     OW72106   0.538   3.066   3.308 -0.4078  0.5162 -0.0727
22420SOL    HW172107   0.442   3.065   3.315 -0.5490 -0.1557 -1.6498
22420SOL    HW272108   0.555   3.093   3.218  0.7986 -1.4196 -0.4874
22421SOL     OW72109   8.418   6.500   6.304  0.3940  0.4667 -0.2091
22421SOL    HW172110   8.367   6.522   6.382  1.3227  0.3397  0.4546
22421SOL    HW272111   8.383   6.557   6.236  0.3014  1.3879  0.5804
22422SOL     OW72112   5.648   6.865   7.694 -0.6064 -0.0281  0.4183
22422SOL    HW172113   5.568   6.916   7.713  0.0515  1.2387 -0.0857
22422SOL    HW272114   5.717   6.931   7.689  0.0885 -0.8488 -1.4123
22423SOL     OW72115   3.220   7.357   7.976 -0.8027 -0.1536 -0.1829
22423SOL    HW172116   3.149   7.371   7.913 -0.3551  0.6122 -0.5331
22423SOL    HW272117   3.274   7.288   7.938 -1.9279 -1.5284  0.5980
22424SOL     OW72118   8.406   6.619   8.137  0.1208  0.0858 -0.2199
22424SOL    HW172119   8.383   6.619   8.044  1.2138 -1.0959 -0.5162
22424SOL    HW272120   8.472   6.687   8.146 -0.2651  0.4650 -0.2245
22425SOL     OW72121   7.763   3.677   3.303  0.3533 -0.1641  0.4009
22425SOL    HW172122   7.827   3.665   3.373  0.0109 -1.4009  0.5198
22425SOL    HW272123   7.678   3.670   3.347  0.1324  0.2503  0.0477
22426SOL     OW72124   8.660   2.382   6.851  1.2725 -0.2423 -0.0855
22426SOL    HW172125   8.674   2.294   6.887  0.7846 -0.2271  0.1443
22426SOL    HW272126   8.717   2.438   6.903 -0.8219  0.0896  1.9971
22427SOL     OW72127   6.942   5.636   3.929  0.2857 -0.4765 -0.1466
22427SOL    HW172128   6.904   5.655   4.015  0.5518  0.8478 -0.3018
22427SOL    HW272129   6.984   5.551   3.939 -0.6244 -0.8408  0.7211
22428SOL     OW72130   3.160   7.765   1.904 -0.9064  0.5389 -0.1693
22428SOL    HW172131   3.231   7.704   1.924 -0.0254  1.1611 -1.3315
22428SOL    HW272132   3.081   7.721   1.938 -0.1857 -0.8528 -0.2202
22429SOL     OW72133   1.198   2.416   9.464  0.0454 -0.5380  0.2812
22429SOL    HW172134   1.202   2.325   9.495 -2.1530 -1.2465 -1.1989
22429SOL    HW272135   1.193   2.468   9.544 -2.6999 -2.0663  1.2595
22430SOL     OW72136   9.272   5.867   8.931 -0.1039  0.6448  0.5250
22430SOL    HW172137   9.254   5.775   8.912 -0.4071  1.2906 -2.7894
22430SOL    HW272138   9.219   5.886   9.009 -1.1165 -1.6044  0.4636
22431SOL     OW72139   5.959   4.346   5.880 -0.1003 -0.4165 -0.2589
22431SOL    HW172140   6.003   4.377   5.959 -0.1397 -0.6814 -0.1327
22431SOL    HW272141   5.909   4.422   5.849 -1.5548 -0.8164  0.9899
22432SOL     OW72142   3.038   0.709   8.647 -0.3396  0.2662 -0.6026
22432SOL    HW172143   2.980   0.635   8.627 -1.0161  0.8937 -1.0077
22432SOL    HW272144   2.992   0.785   8.612  0.3970  0.8696 -0.2730
22433SOL     OW72145   8.723   6.423   3.357 -0.1150 -0.3025  0.2253
22433SOL    HW172146   8.688   6.505   3.323 -2.1185 -1.5330 -0.8159
22433SOL    HW272147   8.771   6.385   3.283 -0.5592 -0.8154  0.1979
22434SOL     OW72148   6.442   6.990   1.565 -0.1951 -0.5906 -0.1104
22434SOL    HW172149   6.456   7.061   1.627 -0.5727  0.5970 -1.3542
22434SOL    HW272150   6.354   7.003   1.531  0.2929 -0.7369 -1.4902
22435SOL     OW72151   8.482   8.563   5.410  0.2401 -0.2348 -0.6461
22435SOL    HW172152   8.565   8.609   5.416  0.2551 -0.3671  0.2811
22435SOL    HW272153   8.439   8.579   5.494 -0.4983 -0.5037 -0.9574
22436SOL     OW72154   8.682   3.579   5.365  0.1418 -0.0476 -0.1739
22436SOL    HW172155   8.624   3.557   5.293 -1.7608 -0.2489  1.3399
22436SOL    HW272156   8.644   3.534   5.441  1.1051  1.4818  1.2829
22437SOL     OW72157   0.004   7.324   9.308  0.3044 -0.1083  0.6896
22437SOL    HW172158   0.027   7.234   9.285  2.6461  0.6056 -0.0990
22437SOL    HW272159  -0.039   7.358   9.229  0.2318 -0.2787  0.6553
22438SOL     OW72160   6.284   0.727   7.866  0.2861  0.0876 -0.1942
22438SOL    HW172161   6.316   0.656   7.921  1.5511 -0.2578 -1.3097
22438SOL    HW272162   6.225   0.777   7.922 -1.6777 -2.5510  0.2517
22439SOL     OW72163   9.098   6.560   0.237 -0.4517 -0.4867 -0.2024
22439SOL    HW172164   9.190   6.552   0.214 -0.6356 -0.5774 -0.9172
22439SOL    HW272165   9.088   6.505   0.315  0.0902 -0.4782 -0.1231
22440SOL     OW72166   0.779   5.075   0.299 -0.7102 -0.1700 -0.2482
22440SOL    HW172167   0.703   5.125   0.269 -1.3532 -1.1875 -0.3719
22440SOL    HW272168   0.817   5.039   0.219 -1.0758 -1.0133 -0.0478
22441SOL     OW72169   6.958   2.005   2.819  0.0643  0.7175  0.1143
22441SOL    HW172170   6.949   2.097   2.794 -0.0057  0.9863  1.1009
22441SOL    HW272171   7.051   1.985   2.804 -0.0531  0.7588 -0.7077
22442SOL     OW72172   6.582   6.463   3.037 -0.1321 -0.4505 -0.0968
22442SOL    HW172173   6.501   6.417   3.061 -0.2939  0.5050  1.2919
22442SOL    HW272174   6.556   6.555   3.034  0.8108 -0.1814 -0.0731
22443SOL     OW72175   5.917   5.900   1.779  0.4575 -0.1083 -0.5077
22443SOL    HW172176   5.826   5.884   1.801  0.9610 -2.3240  0.2873
22443SOL    HW272177   5.917   5.911   1.684 -0.5391 -1.2703 -0.6764
22444SOL     OW72178   9.514   2.197   7.500 -0.4778  0.1418 -0.2430
22444SOL    HW172179   9.551   2.238   7.422  2.1595 -0.4104  0.6402
22444SOL    HW272180   9.478   2.114   7.468  0.9196 -0.2577 -0.8310
22445SOL     OW72181   5.192   6.025   4.297  0.0161  0.2350  0.1461
22445SOL    HW172182   5.130   6.095   4.321 -0.6207  0.1459 -1.1914
22445SOL    HW272183   5.137   5.948   4.286  0.5449 -0.1536  0.2268
22446SOL     OW72184   7.406   9.680   9.729  0.5750  0.1663  0.3909
22446SOL    HW172185   7.322   9.651   9.692  0.5687 -0.5230  0.9219
22446SOL    HW272186   7.385   9.700   9.820  0.3569  2.8227 -0.1532
22447SOL     OW72187   5.559   8.842   5.088  0.5723 -0.3682  0.9271
22447SOL    HW172188   5.541   8.809   5.176  4.0343  0.4225  2.1047
22447SOL    HW272189   5.555   8.937   5.097 -0.9993 -0.2840 -0.3183
22448SOL     OW72190   8.271   7.539   8.224 -0.1250 -0.1028 -0.4051
22448SOL    HW172191   8.283   7.504   8.136  1.1314 -1.6195  0.3243
22448SOL    HW272192   8.189   7.589   8.219 -0.3729 -0.6207 -2.2749
22449SOL     OW72193   8.278   8.060   6.102  0.4887 -0.9890  0.5342
22449SOL    HW172194   8.309   7.972   6.125 -0.9692 -1.9723 -0.9352
22449SOL    HW272195   8.356   8.107   6.075  1.1578 -2.2573  0.1670
22450SOL     OW72196   9.566   4.378   0.671  0.0443  0.1359  0.7044
22450SOL    HW172197   9.613   4.331   0.739  2.6505  1.2539 -0.1723
22450SOL    HW272198   9.557   4.315   0.599 -0.3737 -0.2649  1.1044
22451SOL     OW72199   2.882   9.664   8.285 -0.1261 -0.1680 -0.5857
22451SOL    HW172200   2.966   9.647   8.241  2.2610 -1.4536  3.8549
22451SOL    HW272201   2.861   9.582   8.328 -2.2131  0.9667  0.6803
22452SOL     OW72202   1.073   7.046   6.567 -0.0460  0.3175 -0.4091
22452SOL    HW172203   1.151   7.001   6.600  0.1748 -0.1415 -1.5335
22452SOL    HW272204   1.011   6.976   6.548 -0.2632  0.5921 -0.7216
22453SOL     OW72205   0.854   9.267   5.564  0.0604 -0.5109 -0.6621
22453SOL    HW172206   0.843   9.345   5.618 -2.1454  0.3046 -2.1401
22453SOL    HW272207   0.864   9.195   5.627 -2.3543  0.3917  0.8715
22454SOL     OW72208   7.371   0.286   6.104  0.3257  0.1666  0.0605
22454SOL    HW172209   7.465   0.268   6.108 -0.0147 -2.5388 -1.6561
22454SOL    HW272210   7.333   0.232   6.174 -0.0841 -0.0296 -0.3064
22455SOL     OW72211   1.471   3.618   8.500 -0.2542 -0.5751  0.2623
22455SOL    HW172212   1.385   3.577   8.509  0.2077 -1.8061 -0.6593
22455SOL    HW272213   1.457   3.691   8.439 -1.1409  0.9272  2.1346
22456SOL     OW72214   0.992   8.471   1.345  0.1683 -0.5047 -0.2077
22456SOL    HW172215   1.049   8.526   1.399 -1.2986 -0.4495  1.3503
22456SOL    HW272216   1.008   8.501   1.256  2.6530 -0.5936  0.1285
22457SOL     OW72217   9.191   2.119   8.916  0.2960  0.2087  0.2070
22457SOL    HW172218   9.170   2.028   8.939  1.3594  0.0734  0.7069
22457SOL    HW272219   9.133   2.171   8.971 -0.7603 -0.1651 -0.5330
22458SOL     OW72220   6.896   4.041   7.749  0.1973 -0.5390 -0.5409
22458SOL    HW172221   6.959   4.030   7.819 -0.7590 -2.2255  0.1186
22458SOL    HW272222   6.877   4.135   7.747  2.0832 -0.1308 -0.2364
22459SOL     OW72223   5.669   1.074   4.769  0.0077  0.6385  0.0837
22459SOL    HW172224   5.584   1.087   4.810  0.1938  0.8287  0.4098
22459SOL    HW272225   5.678   0.978   4.764  0.7445  0.5382  2.1295
22460SOL     OW72226   0.976   1.422   5.765  0.4010 -0.3261 -0.1174
22460SOL    HW172227   1.036   1.401   5.693 -0.9587 -2.1590 -0.7870
22460SOL    HW272228   0.903   1.466   5.722  0.6103  0.6630  0.5044
22461SOL     OW72229   1.367   2.221   1.598 -0.3641 -0.0932  0.0243
22461SOL    HW172230   1.399   2.274   1.525 -0.5575  0.3093  0.2272
22461SOL    HW272231   1.316   2.282   1.651 -1.4830 -0.7208 -0.3016
22462SOL     OW72232   8.542   2.721   0.800 -0.3041  0.2936  0.1150
22462SOL    HW172233   8.539   2.814   0.781  1.3964  0.2826 -0.3770
22462SOL    HW272234   8.634   2.704   0.822 -0.8194 -1.0455  1.3749
22463SOL     OW72235   3.544   6.545   4.809 -0.1694 -0.7118  0.3208
22463SOL    HW172236   3.499   6.611   4.862  1.0520  0.4600 -0.0331
22463SOL    HW272237   3.549   6.584   4.722  0.9532 -1.0697  0.2055
22464SOL     OW72238   1.690   1.346   9.132 -0.1398 -0.1859  0.3514
22464SOL    HW172239   1.666   1.413   9.195  1.0738 -1.4304  2.2455
22464SOL    HW272240   1.616   1.341   9.072 -0.2691  2.7584  0.1581
22465SOL     OW72241   4.612   1.307   4.819 -0.0081  0.4330  0.0201
22465SOL    HW172242   4.539   1.249   4.841  0.1325 -0.1278 -0.9406
22465SOL    HW272243   4.667   1.307   4.897  0.6128 -1.6906 -0.3482
22466SOL     OW72244   3.763   2.069   9.198  0.7379 -0.3209 -0.3797
22466SOL    HW172245   3.851   2.053   9.231  0.5374  0.3868  0.5362
22466SOL    HW272246   3.771   2.149   9.146  0.4900  0.2236  0.3967
22467SOL     OW72247   5.947   6.648   4.647  0.1693  0.3826  0.4500
22467SOL    HW172248   5.939   6.588   4.721  0.9604 -0.2182  0.0666
22467SOL    HW272249   5.907   6.600   4.573 -1.0470  1.1637  0.5625
22468SOL     OW72250   9.359   8.965   5.163 -0.0397  0.2481  0.2298
22468SOL    HW172251   9.374   8.898   5.097 -0.0149  0.5710 -0.0949
22468SOL    HW272252   9.413   9.039   5.136 -1.6945  1.1958 -0.6191
22469SOL     OW72253   2.957   1.713   4.120 -0.2499 -0.1808 -0.2044
22469SOL    HW172254   2.984   1.643   4.180 -0.8101 -0.1318  0.1065
22469SOL    HW272255   3.014   1.702   4.044  0.2139 -0.4761  0.1803
22470SOL     OW72256   2.035   3.332   1.418  0.2758 -0.0684 -0.3817
22470SOL    HW172257   2.062   3.387   1.344  0.9462  1.0670  0.6637
22470SOL    HW272258   1.997   3.394   1.480 -0.9343 -1.0984 -0.0622
22471SOL     OW72259   5.653   5.881   7.906  0.2829  0.3841  0.0526
22471SOL    HW172260   5.706   5.808   7.875  0.1374 -0.3282  1.4068
22471SOL    HW272261   5.576   5.840   7.945 -0.6267  1.3511 -0.6649
22472SOL     OW72262   7.543   0.463   7.005  0.3318  1.0087 -0.3773
22472SOL    HW172263   7.497   0.546   7.000  0.9494  1.4509  0.8143
22472SOL    HW272264   7.633   0.486   7.029  0.6502  0.0353 -0.5673
22473SOL     OW72265   3.247   5.068   4.751 -0.7323 -0.1614 -0.3579
22473SOL    HW172266   3.334   5.039   4.724  0.0776  1.7121  0.1008
22473SOL    HW272267   3.239   5.039   4.842 -0.0287  0.8037  0.0238
22474SOL     OW72268   4.381   9.527   6.212 -0.0995 -0.1382 -0.0276
22474SOL    HW172269   4.290   9.546   6.188 -0.6610 -0.8272  1.4880
22474SOL    HW272270   4.381   9.437   6.242  1.3635 -0.5821 -1.2034
22475SOL     OW72271   1.584   5.651   1.622 -0.2715 -0.1612  0.2608
22475SOL    HW172272   1.570   5.571   1.672 -2.3072  0.2270  0.4219
22475SOL    HW272273   1.579   5.623   1.531 -0.7446 -0.2559  0.3148
22476SOL     OW72274   7.035   8.732   9.497  0.2548 -0.4668  0.0051
22476SOL    HW172275   7.119   8.714   9.454 -0.9492  0.0267 -2.7038
22476SOL    HW272276   6.970   8.722   9.428 -1.8844 -0.1513  1.8824
22477SOL     OW72277   3.301   3.331   6.409  0.2159  0.4841 -0.3697
22477SOL    HW172278   3.302   3.262   6.475 -0.1695 -0.4728 -1.3461
22477SOL    HW272279   3.214   3.371   6.418  0.3136  0.6229 -0.0325
22478SOL     OW72280   2.134   7.262   5.430 -0.1648 -0.1413 -0.2888
22478SOL    HW172281   2.053   7.248   5.380 -1.0520 -0.4213  1.1763
22478SOL    HW272282   2.204   7.238   5.369 -1.2320 -1.0238 -1.2176
22479SOL     OW72283   5.838   7.389   7.814  0.0526 -0.4728 -0.4038
22479SOL    HW172284   5.820   7.452   7.884  1.7910  0.2646 -0.5703
22479SOL    HW272285   5.861   7.309   7.860  3.1165  0.5291  0.0374
22480SOL     OW72286   4.339   3.443   1.434 -0.4279  0.7032 -0.0478
22480SOL    HW172287   4.393   3.511   1.393  0.3158  0.6903  0.8797
22480SOL    HW272288   4.251   3.460   1.400  0.1918  0.4812 -1.8972
22481SOL     OW72289   2.899   2.178   9.011 -0.0315 -0.4914 -0.3634
22481SOL    HW172290   2.992   2.196   9.023  0.3444 -2.7192  0.5991
22481SOL    HW272291   2.886   2.093   9.053 -2.6251  0.0129  0.0067
22482SOL     OW72292   0.262   1.206   7.968 -0.4295 -0.5702  0.0330
22482SOL    HW172293   0.331   1.161   7.918  0.0929 -1.3672  1.4185
22482SOL    HW272294   0.309   1.262   8.030 -1.0582 -0.0113  0.0183
22483SOL     OW72295   0.818   7.965   6.890 -0.5348 -0.3377 -0.2735
22483SOL    HW172296   0.906   8.001   6.903 -0.7966 -0.3736  1.8906
22483SOL    HW272297   0.818   7.934   6.799  0.1697  3.7724 -1.8735
22484SOL     OW72298   5.930   5.994   4.850 -0.2677  0.1994  0.1458
22484SOL    HW172299   5.941   5.928   4.919 -2.3923  0.7679  1.1349
22484SOL    HW272300   5.937   6.078   4.896  0.1843  0.6326 -0.6964
22485SOL     OW72301   1.280   6.511   2.513 -0.3085  0.5771  0.3254
22485SOL    HW172302   1.327   6.501   2.430 -2.9330  1.4482 -1.3599
22485SOL    HW272303   1.299   6.429   2.560  0.7692 -0.2117 -1.3578
22486SOL     OW72304   1.033   4.287   1.896  0.4166 -0.2716  0.2907
22486SOL    HW172305   1.052   4.379   1.911  2.8802 -0.4614 -1.1049
22486SOL    HW272306   1.112   4.241   1.926  0.5407 -1.6138 -1.8680
22487SOL     OW72307   0.827   0.295   1.682  0.2468  0.2425 -0.4925
22487SOL    HW172308   0.887   0.351   1.731 -0.7847  0.5444  0.4678
22487SOL    HW272309   0.870   0.280   1.598  0.9856  1.6613 -0.3810
22488SOL     OW72310   0.563   0.089   0.768  0.1314 -0.0152  0.5999
22488SOL    HW172311   0.592   0.098   0.858 -1.0948  1.3604  0.8808
22488SOL    HW272312   0.562  -0.006   0.752 -1.3802 -0.3830  2.6104
22489SOL     OW72313   8.212   8.851   1.498  0.1289  0.1449  0.1332
22489SOL    HW172314   8.154   8.921   1.525 -0.3151 -0.5874  1.1205
22489SOL    HW272315   8.295   8.895   1.476 -0.6323  1.1411 -0.8450
22490SOL     OW72316   4.808   7.847   5.465 -0.1582 -0.4622 -0.0954
22490SOL    HW172317   4.796   7.799   5.383 -1.2625  1.6044 -1.2257
22490SOL    HW272318   4.728   7.828   5.515 -1.7436  1.8564 -1.5242
22491SOL     OW72319   9.517   0.151   8.383  0.9125 -0.5342  0.1700
22491SOL    HW172320   9.463   0.211   8.331  0.4871  0.1813  1.4025
22491SOL    HW272321   9.574   0.208   8.433  0.6012 -1.1671  1.2667
22492SOL     OW72322   2.060   2.321   6.719 -0.4912 -0.2616 -0.1634
22492SOL    HW172323   1.972   2.288   6.738 -0.6991  0.9655  1.1891
22492SOL    HW272324   2.118   2.250   6.747 -1.0045 -0.7392 -0.2691
22493SOL     OW72325   9.062   1.895   1.530  0.0421 -0.0880  0.4537
22493SOL    HW172326   9.101   1.852   1.606 -0.3119  0.4524  0.9525
22493SOL    HW272327   8.986   1.941   1.566  0.0695  0.4461 -0.1695
22494SOL     OW72328   2.280   8.252   8.390 -0.2858 -0.3744  0.0491
22494SOL    HW172329   2.349   8.200   8.349  2.5992  0.3192  3.5673
22494SOL    HW272330   2.217   8.188   8.422  0.0318 -1.2103 -0.9564
22495SOL     OW72331   8.129   7.392   1.158 -0.5166  0.3160  0.5684
22495SOL    HW172332   8.089   7.406   1.072 -1.1779  1.5609  1.0552
22495SOL    HW272333   8.216   7.433   1.151 -0.1250 -0.5353  0.1801
22496SOL     OW72334   5.495   9.358   6.707  0.2351 -0.5136 -0.0996
22496SOL    HW172335   5.546   9.281   6.734  0.2291 -0.0819  1.2061
22496SOL    HW272336   5.555   9.432   6.719 -0.0601 -0.2047 -0.4829
22497SOL     OW72337   5.093   2.461   7.399 -0.2294  0.2312  0.2510
22497SOL    HW172338   5.044   2.416   7.329  0.0671 -0.1492  0.2866
22497SOL    HW272339   5.173   2.491   7.357 -0.1417  0.1769  0.3787
22498SOL     OW72340   1.504   2.235   2.222 -0.1303 -0.7300  0.0883
22498SOL    HW172341   1.443   2.287   2.170 -0.2505 -1.5363 -0.6008
22498SOL    HW272342   1.575   2.295   2.244  0.2110 -0.5241 -1.5147
22499SOL     OW72343   4.052   1.178   2.951  0.4251  0.6113  0.4349
22499SOL    HW172344   3.983   1.114   2.967  0.0346  0.9527  0.1054
22499SOL    HW272345   4.085   1.200   3.038 -0.8620  1.5391  0.7150
22500SOL     OW72346   4.024   3.751   0.116 -1.0288 -0.8613  0.4202
22500SOL    HW172347   4.097   3.799   0.074 -0.4175 -1.3375  0.9180
22500SOL    HW272348   4.050   3.745   0.208 -1.4652 -1.4825  0.5020
22501SOL     OW72349   9.220   5.923   8.011  0.0876 -0.3429 -0.5830
22501SOL    HW172350   9.311   5.928   8.041  0.3634  0.6817 -1.5299
22501SOL    HW272351   9.196   6.014   7.993 -0.9865 -0.6533 -0.7811
22502SOL     OW72352   3.532   2.839   3.877 -0.4946  0.2419  0.2021
22502SOL    HW172353   3.581   2.916   3.905 -0.8039  0.8047 -0.7540
22502SOL    HW272354   3.492   2.865   3.794 -1.6685 -0.5009  0.5074
22503SOL     OW72355   4.417   9.003   0.114 -0.8364 -0.4205 -0.0160
22503SOL    HW172356   4.467   8.941   0.168  0.2742  2.0698  2.0653
22503SOL    HW272357   4.482   9.066   0.084 -2.1995  0.9612 -0.1894
22504SOL     OW72358   5.807   6.769   8.922  0.1241  0.0617  0.1850
22504SOL    HW172359   5.848   6.791   9.006  0.1679  0.2297  0.1191
22504SOL    HW272360   5.849   6.686   8.897 -1.5964 -1.2813  1.4933
22505SOL     OW72361   9.409   9.217   0.829 -0.2837 -0.5063 -0.3777
22505SOL    HW172362   9.337   9.277   0.844  0.0655  0.0746 -0.9762
22505SOL    HW272363   9.409   9.159   0.906 -0.2227  0.6644  0.5248
22506SOL     OW72364   7.106   0.299   6.794 -0.1669  0.2961 -0.3945
22506SOL    HW172365   7.022   0.309   6.841 -1.4336 -0.3414 -2.3959
22506SOL    HW272366   7.172   0.299   6.864 -1.7865  1.0970  1.2411
22507SOL     OW72367   5.801   7.568   3.918  0.3055 -0.1579  0.2006
22507SOL    HW172368   5.753   7.498   3.962  2.1178 -1.8031 -0.3023
22507SOL    HW272369   5.737   7.607   3.858 -1.2928 -0.0387  1.8851
22508SOL     OW72370   3.001   7.696   8.738 -0.0891  0.0045 -0.1084
22508SOL    HW172371   2.957   7.732   8.661 -0.8206  0.1582  0.3768
22508SOL    HW272372   2.933   7.646   8.784  0.2847  0.0999  0.5614
22509SOL     OW72373   0.119   6.555   9.400 -0.7840  0.0434  0.2390
22509SOL    HW172374   0.100   6.470   9.362  0.5087 -0.9727  1.7411
22509SOL    HW272375   0.094   6.547   9.492 -0.5377  1.2377  0.4268
22510SOL     OW72376   8.005   2.468   0.697 -0.1367  0.6010 -0.2569
22510SOL    HW172377   8.048   2.423   0.624 -1.0045  0.7241 -0.8622
22510SOL    HW272378   8.003   2.560   0.669  0.3656  0.7947  0.3422
22511SOL     OW72379   6.381   4.772   3.982  0.0698 -0.7935 -0.4989
22511SOL    HW172380   6.372   4.710   3.909  3.9648  0.8784 -2.7103
22511SOL    HW272381   6.428   4.723   4.049  1.7510 -0.7990 -1.6143
22512SOL     OW72382   8.622   8.592   6.666 -0.1698  0.4917  0.2776
22512SOL    HW172383   8.697   8.596   6.727  0.8643  2.5636 -1.0166
22512SOL    HW272384   8.636   8.511   6.617  0.6675  0.3474  0.7212
22513SOL     OW72385   5.179   5.680   6.508 -0.5242 -0.3317  0.3967
22513SOL    HW172386   5.186   5.604   6.450  1.0224 -0.3089  0.5048
22513SOL    HW272387   5.247   5.739   6.477 -0.7593  0.3916  1.2256
22514SOL     OW72388   3.601   5.630   3.057  0.0410 -0.2784 -0.1017
22514SOL    HW172389   3.616   5.545   3.014  1.2420 -0.4541  0.6214
22514SOL    HW272390   3.680   5.680   3.038  0.0430  0.0904  0.8587
22515SOL     OW72391   5.815   8.187   5.236  0.0177  0.4732 -0.1554
22515SOL    HW172392   5.776   8.215   5.319  0.5233 -0.0663  0.2668
22515SOL    HW272393   5.744   8.141   5.191  0.3673 -1.2688  0.9862
22516SOL     OW72394   6.711   7.621   0.258 -0.3843  0.6391 -0.9591
22516SOL    HW172395   6.717   7.663   0.344  0.1258  2.0399 -1.6492
22516SOL    HW272396   6.620   7.632   0.232 -0.8808 -0.9581 -0.0707
22517SOL     OW72397   3.342   8.156   5.856  0.1347  0.3704 -0.1665
22517SOL    HW172398   3.410   8.163   5.923  1.2197 -2.8884 -0.7655
22517SOL    HW272399   3.273   8.106   5.897 -1.0973  1.9575 -0.2148
22518SOL     OW72400   8.093   0.050   6.978  0.0134 -0.3494 -0.2480
22518SOL    HW172401   8.183   0.075   7.001  0.2373 -0.6768 -0.7676
22518SOL    HW272402   8.042   0.130   6.990  0.2954 -0.2640  0.4466
22519SOL     OW72403   4.618   7.422   4.559  0.5339 -0.3376  0.1771
22519SOL    HW172404   4.556   7.449   4.627 -1.3002  0.3138 -1.6421
22519SOL    HW272405   4.574   7.351   4.513  2.8608 -2.6391  1.2126
22520SOL     OW72406   2.953   2.189   1.112  0.4622  0.1292  0.0465
22520SOL    HW172407   3.033   2.159   1.069 -0.1549  0.2028 -1.1764
22520SOL    HW272408   2.906   2.108   1.133  1.1748  0.0435  1.4611
22521SOL     OW72409   4.955   7.457   5.046 -0.2182 -0.1034 -0.3202
22521SOL    HW172410   4.973   7.477   5.137  1.3380  1.7920 -0.9632
22521SOL    HW272411   4.894   7.525   5.018  0.7931  0.5009 -1.1380
22522SOL     OW72412   1.096   9.710   9.057  1.0472 -0.0583 -0.1209
22522SOL    HW172413   1.026   9.648   9.077  0.6450  0.2219 -0.6177
22522SOL    HW272414   1.056   9.771   8.994  1.9506 -0.3201 -0.9680
22523SOL     OW72415   4.515   2.474   7.744 -0.4585  0.1328 -0.4374
22523SOL    HW172416   4.593   2.461   7.797 -0.0634  0.4760 -0.9238
22523SOL    HW272417   4.443   2.477   7.806 -0.2366 -1.4179 -0.0597
22524SOL     OW72418   2.896   1.363   5.197  0.1306  0.5388 -0.3344
22524SOL    HW172419   2.859   1.339   5.282  0.3466 -0.2554 -0.4616
22524SOL    HW272420   2.976   1.311   5.190  1.4620  2.4298  0.0616
22525SOL     OW72421   1.166   3.417   2.157  0.0351 -0.1304  0.4479
22525SOL    HW172422   1.198   3.470   2.230  0.8194 -1.7151  1.3210
22525SOL    HW272423   1.141   3.480   2.090 -2.6894  1.5367  2.7862
22526SOL     OW72424   5.640   8.924   8.803 -0.0463 -0.0317  0.3391
22526SOL    HW172425   5.720   8.949   8.848  0.0700  0.6002 -0.2113
22526SOL    HW272426   5.583   9.000   8.811 -0.0267  0.0841 -0.5745
22527SOL     OW72427   3.597   9.500   3.440  0.4607  0.3598  0.0016
22527SOL    HW172428   3.631   9.419   3.403 -0.4713 -0.7929  1.5341
22527SOL    HW272429   3.526   9.525   3.380  0.3777 -0.2847 -0.1789
22528SOL     OW72430   7.905   1.131   5.517  0.0612 -0.9113 -0.1307
22528SOL    HW172431   7.810   1.115   5.515 -0.0190 -0.5140  0.2813
22528SOL    HW272432   7.942   1.051   5.553 -0.2887 -0.3861  1.4692
22529SOL     OW72433   5.313   9.542   6.052  0.0310 -0.1776 -0.2106
22529SOL    HW172434   5.225   9.506   6.039 -0.5745  1.9300 -2.9730
22529SOL    HW272435   5.303   9.605   6.123 -0.1778 -1.3495  0.8367
22530SOL     OW72436   7.040   4.283   0.930 -0.1599 -0.1861  0.3647
22530SOL    HW172437   7.063   4.233   0.852 -1.7344 -2.4594  1.2585
22530SOL    HW272438   7.116   4.272   0.988 -0.6951 -2.1605  0.7780
22531SOL     OW72439   3.834   1.791   6.394 -0.2076 -0.3773 -0.6077
22531SOL    HW172440   3.797   1.863   6.344 -2.0528 -0.4063  0.6387
22531SOL    HW272441   3.875   1.833   6.470  0.2266 -0.5226 -0.7592
22532SOL     OW72442   5.910   0.871   1.076 -0.6098 -0.7257  0.3229
22532SOL    HW172443   5.820   0.903   1.085 -0.6771 -1.1073  1.0855
22532SOL    HW272444   5.939   0.855   1.166 -0.1693 -1.7037  0.0175
22533SOL     OW72445   4.648   7.738   7.051  0.1492 -0.2531  0.1075
22533SOL    HW172446   4.692   7.653   7.051  0.0387 -0.3083  0.2773
22533SOL    HW272447   4.610   7.745   6.963 -1.4018 -1.1746  0.6670
22534SOL     OW72448   6.266   9.119   8.564  0.0460 -0.3132 -0.5242
22534SOL    HW172449   6.202   9.182   8.530 -0.3227 -0.7495 -0.6453
22534SOL    HW272450   6.296   9.071   8.487  0.0472 -0.5373 -0.3858
22535SOL     OW72451   5.868   8.403   3.382  0.2027  0.1047 -0.0740
22535SOL    HW172452   5.792   8.389   3.439 -0.1221  0.0639 -0.5170
22535SOL    HW272453   5.929   8.452   3.437 -0.5377  1.0023 -0.0306
22536SOL     OW72454   6.083   5.557   7.090 -0.8578  0.1635 -0.2074
22536SOL    HW172455   6.097   5.645   7.124  0.1043 -0.1737  0.2981
22536SOL    HW272456   6.166   5.512   7.102 -0.6977 -0.2284 -2.2950
22537SOL     OW72457   6.162   5.430   3.487  0.5144  0.3756 -0.1715
22537SOL    HW172458   6.233   5.410   3.426  0.3324 -0.9977  0.0228
22537SOL    HW272459   6.206   5.449   3.570  0.6753 -2.4095  0.4824
22538SOL     OW72460   1.381   4.518   6.149 -0.1553  0.2293  0.0758
22538SOL    HW172461   1.361   4.508   6.242  1.9813 -0.0626  0.5543
22538SOL    HW272462   1.426   4.602   6.143 -1.0556  0.6781 -0.8794
22539SOL     OW72463   7.312   7.043   2.892  0.2455 -0.2409  0.1329
22539SOL    HW172464   7.277   6.958   2.916 -0.5043 -0.0513 -0.2725
22539SOL    HW272465   7.391   7.024   2.841 -0.8579 -0.7284 -1.4384
22540SOL     OW72466   6.353   5.462   0.131 -0.3463 -0.0062  0.0514
22540SOL    HW172467   6.402   5.543   0.143  0.3183 -0.3296 -0.3780
22540SOL    HW272468   6.409   5.409   0.074 -0.4649 -1.0113  0.8351
22541SOL     OW72469   5.736   5.441   9.197  0.0893  0.7208  0.8850
22541SOL    HW172470   5.768   5.522   9.236  0.6491  0.3269  1.2547
22541SOL    HW272471   5.660   5.468   9.145 -0.2208  1.3614  1.6500
22542SOL     OW72472   2.384   1.849   2.417  0.0051 -0.3385 -0.0146
22542SOL    HW172473   2.290   1.834   2.424 -0.1436  1.0119  1.2120
22542SOL    HW272474   2.414   1.782   2.355 -1.4402 -2.0355  1.0323
22543SOL     OW72475   1.819   8.986   9.234  0.5906 -0.2530  0.0552
22543SOL    HW172476   1.746   8.988   9.171  0.4962  1.4968  0.1650
22543SOL    HW272477   1.884   9.046   9.197  0.6065  0.6712  1.5090
22544SOL     OW72478   2.908   3.765   4.267 -0.1921 -0.1806 -0.4020
22544SOL    HW172479   2.990   3.716   4.275  0.3105  0.4728 -1.3460
22544SOL    HW272480   2.842   3.707   4.303  0.4877 -1.2814 -0.8811
22545SOL     OW72481   1.493   5.135   5.482  0.0378 -0.5799  0.1924
22545SOL    HW172482   1.464   5.163   5.395 -0.4403 -0.5094  0.3704
22545SOL    HW272483   1.430   5.067   5.507  0.0520 -0.4498  0.5737
22546SOL     OW72484   4.705   7.312   6.237 -0.2058 -0.6088 -0.6929
22546SOL    HW172485   4.676   7.249   6.303 -1.8313 -0.4663 -1.2296
22546SOL    HW272486   4.664   7.283   6.156  0.2578  0.2862 -1.2663
22547SOL     OW72487   8.771   0.031   2.244  0.0804  0.5499  0.5652
22547SOL    HW172488   8.819   0.093   2.300  0.7803 -0.5183  1.1863
22547SOL    HW272489   8.755  -0.044   2.301 -0.7108  0.1384 -0.1895
22548SOL     OW72490   4.720   5.285   5.855 -0.4248  0.0296 -0.6164
22548SOL    HW172491   4.668   5.248   5.927  0.6455  0.2547  0.3193
22548SOL    HW272492   4.731   5.213   5.794  0.2117 -0.7484  0.3710
22549SOL     OW72493   5.695   8.897   5.904 -0.6948 -0.4679  0.0089
22549SOL    HW172494   5.647   8.870   5.826 -2.3688 -1.8567  1.4209
22549SOL    HW272495   5.635   8.878   5.976 -0.0400  2.5798  1.5482
22550SOL     OW72496   2.031   6.834   3.867  0.0407  0.2022  0.5287
22550SOL    HW172497   2.024   6.876   3.782 -0.6414 -1.1675 -0.1283
22550SOL    HW272498   2.005   6.901   3.930 -0.3638  0.9429 -0.4058
22551SOL     OW72499   3.398   8.595   2.522  0.0012 -0.6129 -0.3783
22551SOL    HW172500   3.352   8.676   2.548  0.1295  0.6586 -3.6172
22551SOL    HW272501   3.466   8.584   2.589 -1.1872  0.8704  1.1924
22552SOL     OW72502   2.470   2.569   8.103  0.2449  0.2042 -0.2576
22552SOL    HW172503   2.419   2.650   8.112 -0.1536  0.0283 -0.8603
22552SOL    HW272504   2.420   2.504   8.153 -0.6958 -0.2081 -1.6551
22553SOL     OW72505   7.864   7.334   2.189 -0.1793  0.8516  0.0286
22553SOL    HW172506   7.828   7.246   2.178  0.4515  0.5913  0.0073
22553SOL    HW272507   7.800   7.391   2.147 -2.6047  0.8572  3.2941
22554SOL     OW72508   9.342   6.437   8.504 -0.2284  0.0040 -0.2009
22554SOL    HW172509   9.285   6.513   8.518 -3.0877 -2.0197  0.0064
22554SOL    HW272510   9.376   6.449   8.416 -0.1263  1.8007  0.0442
22555SOL     OW72511   7.333   1.138   4.521 -0.1545 -0.2094 -0.2962
22555SOL    HW172512   7.291   1.056   4.546 -0.5762 -0.0526 -0.4745
22555SOL    HW272513   7.368   1.121   4.433  0.3718 -0.4158 -0.0502
22556SOL     OW72514   9.391   9.433   4.831 -0.2313  0.0326  0.8031
22556SOL    HW172515   9.440   9.503   4.789  0.9332  0.7858  3.2702
22556SOL    HW272516   9.323   9.410   4.766  1.2261  1.2905 -1.3047
22557SOL     OW72517   6.968   0.014   7.516 -0.2107 -0.1363  0.0313
22557SOL    HW172518   6.881  -0.016   7.544  0.6245  0.0524  3.1661
22557SOL    HW272519   6.974   0.104   7.547  0.1547  0.8650 -2.6334
22558SOL     OW72520   5.639   3.333   9.602 -0.0557 -0.4366  0.6406
22558SOL    HW172521   5.646   3.333   9.506 -0.0335  0.3828  0.6311
22558SOL    HW272522   5.639   3.241   9.626  0.6860 -0.6428 -0.0922
22559SOL     OW72523   8.782   2.334   8.935  0.2653  0.0122 -0.2531
22559SOL    HW172524   8.696   2.370   8.912 -0.5188 -1.0825  0.8620
22559SOL    HW272525   8.843   2.380   8.877 -1.0757  0.7167 -1.1598
22560SOL     OW72526   8.291   3.045   1.601  0.2199  0.0791  0.5434
22560SOL    HW172527   8.225   3.033   1.670 -0.0777  2.3250  0.7185
22560SOL    HW272528   8.363   3.089   1.646  0.6984  0.0870 -0.2322
22561SOL     OW72529   0.005   0.402   6.095 -0.2999 -0.0525 -0.6756
22561SOL    HW172530   0.009   0.462   6.021  0.3591  0.4022 -0.2910
22561SOL    HW272531  -0.040   0.324   6.062  1.3655 -0.5021 -2.0145
22562SOL     OW72532   1.603   6.544   8.314 -0.5766  0.4021 -0.5757
22562SOL    HW172533   1.594   6.604   8.240  0.3930  1.1514 -0.1043
22562SOL    HW272534   1.686   6.569   8.355  0.3405 -1.8478 -0.8871
22563SOL     OW72535   8.245   5.214   2.147 -0.0731  0.2194 -0.3524
22563SOL    HW172536   8.311   5.207   2.215 -0.8941 -0.3998  0.4131
22563SOL    HW272537   8.162   5.224   2.195 -1.0180 -2.7806 -1.1240
22564SOL     OW72538   6.758   6.295   8.900  0.3585 -0.3069 -0.0975
22564SOL    HW172539   6.799   6.236   8.837  0.6668  0.7895 -0.9496
22564SOL    HW272540   6.731   6.371   8.849 -1.0980 -0.1920  0.7679
22565SOL     OW72541   7.406   8.055   7.861  0.1728 -0.2126 -0.7337
22565SOL    HW172542   7.341   8.095   7.804  1.3827  1.6500 -0.8986
22565SOL    HW272543   7.452   7.993   7.804  0.6856  0.8816 -1.5710
22566SOL     OW72544   5.944   4.818   0.625  0.1413  0.3481 -0.0347
22566SOL    HW172545   5.922   4.759   0.697 -0.0477  1.4769  0.8455
22566SOL    HW272546   6.040   4.826   0.630  0.0650  0.9936  0.5631
22567SOL     OW72547   6.739   3.996   2.182  0.1690  0.0906  0.1228
22567SOL    HW172548   6.646   4.014   2.196 -0.1267 -2.2114  1.7102
22567SOL    HW272549   6.750   3.995   2.087 -1.7366 -0.8777 -0.1253
22568SOL     OW72550   7.846   0.023   0.272 -0.1963  0.1053  0.2131
22568SOL    HW172551   7.793   0.044   0.196  0.9577 -0.3755 -0.7525
22568SOL    HW272552   7.791  -0.035   0.325 -0.7144 -0.2088 -0.6604
22569SOL     OW72553   7.704   0.864   2.191 -0.0173  0.3192 -0.1874
22569SOL    HW172554   7.647   0.788   2.197  0.1463  0.3131  2.3936
22569SOL    HW272555   7.694   0.895   2.101 -1.9061 -1.3380 -0.6072
22570SOL     OW72556   6.225   4.445   0.495 -0.2436 -0.2138  0.2888
22570SOL    HW172557   6.251   4.537   0.497 -1.9149  0.2930  2.6587
22570SOL    HW272558   6.294   4.399   0.545 -0.4355  0.0870  0.8396
22571SOL     OW72559   4.780   9.305   8.724 -0.1004  0.4487  0.8000
22571SOL    HW172560   4.695   9.262   8.736 -0.4709  0.4792 -1.4498
22571SOL    HW272561   4.759   9.397   8.707  0.1292  0.0184 -2.3508
22572SOL     OW72562   2.195   2.748   8.977  0.4953  0.0595  0.0366
22572SOL    HW172563   2.244   2.667   8.982 -0.0565 -0.4104 -1.4993
22572SOL    HW272564   2.138   2.747   9.054 -1.1457 -2.1712 -1.0736
22573SOL     OW72565   8.244   1.210   5.517 -0.0446 -0.7172 -0.2518
22573SOL    HW172566   8.332   1.177   5.536 -0.4606 -1.4785  0.4262
22573SOL    HW272567   8.200   1.211   5.602 -0.2472  1.0801 -0.3367
22574SOL     OW72568   0.197   3.122   1.310  0.4018  0.5616 -0.1640
22574SOL    HW172569   0.276   3.167   1.338  0.9827  0.5243 -1.6346
22574SOL    HW272570   0.144   3.189   1.267  1.4720 -0.1208 -2.7673
22575SOL     OW72571   2.847   0.322   7.688  0.2649 -1.1973 -0.7188
22575SOL    HW172572   2.827   0.306   7.780  0.4984 -1.6341 -0.7431
22575SOL    HW272573   2.765   0.354   7.650 -0.0656 -1.8439 -0.5552
22576SOL     OW72574   2.459   5.299   4.452  0.5933  0.0854  0.0436
22576SOL    HW172575   2.538   5.334   4.493  0.2403  0.1986  0.6374
22576SOL    HW272576   2.387   5.333   4.505  0.2136 -1.0677  0.2845
22577SOL     OW72577   1.744   8.819   1.450 -0.2429 -0.2076  0.2177
22577SOL    HW172578   1.733   8.817   1.355  1.5856  0.1817 -0.0266
22577SOL    HW272579   1.789   8.737   1.471  0.1866  0.1279  0.6261
22578SOL     OW72580   6.639   1.300   0.143  0.0840  0.0877 -0.0596
22578SOL    HW172581   6.608   1.279   0.231  1.4241  0.3754  0.4922
22578SOL    HW272582   6.559   1.302   0.090 -0.8440  0.7641  1.3069
22579SOL     OW72583   1.417   6.625   4.223  0.0043  0.5210  0.9831
22579SOL    HW172584   1.359   6.563   4.266  0.0918 -0.5122 -0.3202
22579SOL    HW272585   1.416   6.703   4.279 -1.7005  0.0947  1.5919
22580SOL     OW72586   6.267   7.970   6.145  0.2150  0.0859 -0.0867
22580SOL    HW172587   6.198   7.988   6.209 -0.1843  1.9135 -0.9596
22580SOL    HW272588   6.264   7.875   6.133 -2.0299  0.0717  0.0688
22581SOL     OW72589   1.126   0.597   4.251 -0.9926 -0.1196 -0.9358
22581SOL    HW172590   1.142   0.549   4.332  1.0565  0.3899 -0.9779
22581SOL    HW272591   1.038   0.633   4.260  0.2777  2.7130  2.5865
22582SOL     OW72592   2.269   2.280   4.420  0.0463  0.1840  0.2258
22582SOL    HW172593   2.191   2.231   4.393 -0.3316  0.8764  0.0437
22582SOL    HW272594   2.243   2.324   4.500 -0.1024  1.2593 -0.3996
22583SOL     OW72595   2.738   9.410   1.128 -0.2145  0.4833 -0.3359
22583SOL    HW172596   2.802   9.352   1.087  0.5591  1.0643  0.0395
22583SOL    HW272597   2.653   9.375   1.100  0.2637 -0.1551 -1.0228
22584SOL     OW72598   5.106   2.794   4.044 -0.6497  0.0549 -0.8166
22584SOL    HW172599   5.012   2.776   4.044 -0.5919 -0.3720  0.9747
22584SOL    HW272600   5.112   2.890   4.036 -1.2416  0.1124 -0.6148
22585SOL     OW72601   5.529   9.623   8.610  0.4028  0.1727 -0.6248
22585SOL    HW172602   5.620   9.594   8.622  0.3731 -0.4382 -1.6889
22585SOL    HW272603   5.484   9.595   8.690  0.6811 -1.5997 -1.0361
22586SOL     OW72604   5.297   1.429   8.895 -0.2015 -0.2239 -0.1521
22586SOL    HW172605   5.239   1.400   8.824 -0.4048 -2.2700  0.7767
22586SOL    HW272606   5.371   1.368   8.891 -0.6077 -0.9144  1.8519
22587SOL     OW72607   7.026   3.468   8.709  0.1451 -0.1983 -0.0228
22587SOL    HW172608   6.973   3.439   8.783  0.2402 -0.9396 -0.2364
22587SOL    HW272609   6.971   3.532   8.664 -1.6744 -2.7530 -1.6971
22588SOL     OW72610   6.727   6.284   1.569  0.3554  0.0630 -0.3240
22588SOL    HW172611   6.815   6.301   1.601 -0.2172  1.9733  0.3590
22588SOL    HW272612   6.677   6.260   1.647  0.2222 -0.9186 -0.6927
22589SOL     OW72613   1.465   5.914   9.297 -0.2535  0.2683 -0.2331
22589SOL    HW172614   1.462   5.983   9.231 -2.1683  0.0717 -0.4103
22589SOL    HW272615   1.374   5.886   9.306  0.0326 -0.0986  2.0981
22590SOL     OW72616   5.905   6.471   4.452  0.4464  0.0138  0.6496
22590SOL    HW172617   5.902   6.446   4.360 -0.3896 -0.4340  0.7965
22590SOL    HW272618   5.921   6.389   4.499 -2.1293 -0.2752  1.1191
22591SOL     OW72619   5.677   0.639   8.081 -0.1984  0.4409 -0.0450
22591SOL    HW172620   5.745   0.633   8.014 -1.0322  0.7058 -0.9500
22591SOL    HW272621   5.699   0.571   8.144  0.7980  0.4051 -0.4184
22592SOL     OW72622   9.664   1.010   5.627 -0.5355  0.0491 -0.5405
22592SOL    HW172623   9.692   0.953   5.698 -1.1656 -0.5685 -0.7750
22592SOL    HW272624   9.641   1.093   5.671 -0.0822 -0.0320 -0.1403
22593SOL     OW72625   3.949   2.327   7.307 -0.3252 -0.4985 -0.0819
22593SOL    HW172626   3.952   2.417   7.342 -3.0833 -0.4395  0.1676
22593SOL    HW272627   3.943   2.339   7.212 -0.9714 -0.3924 -0.0323
22594SOL     OW72628   7.680   4.517   3.868  0.2858 -0.4923  0.1680
22594SOL    HW172629   7.649   4.429   3.851 -0.0140 -0.0403 -1.8791
22594SOL    HW272630   7.621   4.574   3.818  0.7321  0.8373  1.0917
22595SOL     OW72631   7.148   6.269   9.627  0.2114  0.4281 -0.2112
22595SOL    HW172632   7.168   6.294   9.718  0.9850  1.9770 -0.7753
22595SOL    HW272633   7.065   6.313   9.607 -0.9448 -1.4057  0.2921
22596SOL     OW72634   3.687   5.376   0.222  0.0095  0.0138 -0.3474
22596SOL    HW172635   3.743   5.388   0.298  1.9721  0.5413 -1.7795
22596SOL    HW272636   3.601   5.358   0.258  1.2212 -1.6453  1.9941
22597SOL     OW72637   0.352   0.981   0.239 -0.1912 -0.5210 -0.7318
22597SOL    HW172638   0.384   1.063   0.203 -2.6768  0.7811 -0.1420
22597SOL    HW272639   0.424   0.950   0.294 -0.3536  3.0874  1.8769
22598SOL     OW72640   6.437   5.219   5.065  0.7038 -0.1193 -0.2914
22598SOL    HW172641   6.436   5.261   4.979  0.6752  0.3657 -0.0584
22598SOL    HW272642   6.385   5.277   5.121 -0.2255 -1.0037 -0.2064
22599SOL     OW72643   2.767   2.063   0.312  0.0049  0.0023 -0.1757
22599SOL    HW172644   2.705   2.133   0.331 -0.1039 -0.3064  0.6648
22599SOL    HW272645   2.824   2.060   0.389  0.4402 -0.3738 -0.5079
22600SOL     OW72646   2.340   6.568   8.613  0.1637 -0.4990  0.2759
22600SOL    HW172647   2.276   6.521   8.560 -1.0593 -2.2832  3.0976
22600SOL    HW272648   2.423   6.524   8.597 -0.6518 -2.6356  1.5817
22601SOL     OW72649   1.511   3.186   8.770 -0.5222 -0.7024 -0.9772
22601SOL    HW172650   1.469   3.272   8.761 -1.8404 -1.2991 -0.6519
22601SOL    HW272651   1.448   3.133   8.819  1.9029 -0.6905  2.4802
22602SOL     OW72652   5.813   0.710   8.803 -0.3647  0.1930  0.3947
22602SOL    HW172653   5.752   0.660   8.747  0.3635  0.7345 -0.9382
22602SOL    HW272654   5.761   0.734   8.879 -2.4231  2.1094 -1.4438
22603SOL     OW72655   5.622   9.421   8.388 -0.5206  0.1646  0.0273
22603SOL    HW172656   5.645   9.369   8.311  1.2216  0.0879  0.5689
22603SOL    HW272657   5.623   9.512   8.356  3.0944  0.4121  0.5131
22604SOL     OW72658   1.738   5.539   0.911 -0.4982  0.4380  0.1076
22604SOL    HW172659   1.715   5.495   0.829  0.2744  1.0635 -0.4607
22604SOL    HW272660   1.717   5.631   0.896  1.1748  0.8411 -0.0109
22605SOL     OW72661   4.446   1.310   1.275 -0.2693  0.3877  0.3672
22605SOL    HW172662   4.370   1.277   1.322  0.2782  0.6394  1.4827
22605SOL    HW272663   4.468   1.242   1.213  0.2331 -0.9330  1.9206
22606SOL     OW72664   2.322   6.613   7.963 -0.3836 -0.4745 -0.1742
22606SOL    HW172665   2.250   6.677   7.966  0.3478  0.3976 -0.7567
22606SOL    HW272666   2.376   6.634   8.039 -1.3214 -1.8741  0.9383
22607SOL     OW72667   7.099   1.226   2.773  0.2861  0.4078 -0.3572
22607SOL    HW172668   7.159   1.153   2.758  1.7583  1.5943 -0.5724
22607SOL    HW272669   7.018   1.186   2.802  2.2975 -1.2335  3.8149
22608SOL     OW72670   2.751   1.142   2.269 -0.1815 -0.1263 -0.0769
22608SOL    HW172671   2.768   1.057   2.229 -0.0587 -0.5610  0.8662
22608SOL    HW272672   2.656   1.154   2.261 -0.5101 -1.2719  1.4803
22609SOL     OW72673   4.434   6.524   4.497 -0.5508  0.1681 -0.1536
22609SOL    HW172674   4.466   6.514   4.408  0.0192  0.0000  0.0635
22609SOL    HW272675   4.441   6.436   4.535 -0.1638  0.3744  0.2582
22610SOL     OW72676   5.309   0.199   6.810  0.0211  0.7497 -0.0224
22610SOL    HW172677   5.264   0.260   6.868 -0.5688  0.6456 -0.3659
22610SOL    HW272678   5.309   0.242   6.725 -0.6729  0.1534 -0.3405
22611SOL     OW72679   5.712   4.698   6.711 -0.1549 -0.2248 -0.0112
22611SOL    HW172680   5.644   4.654   6.763 -0.6479 -1.0629 -1.3328
22611SOL    HW272681   5.761   4.750   6.775 -1.6634 -0.0679  1.0771
22612SOL     OW72682   8.211   7.234   2.098 -0.6946 -0.2565  0.4069
22612SOL    HW172683   8.130   7.196   2.063 -0.6887  0.2438 -0.1691
22612SOL    HW272684   8.236   7.176   2.170 -0.6251 -1.4170 -0.5232
22613SOL     OW72685   7.006   9.640   3.117  0.3763 -0.4195 -0.5059
22613SOL    HW172686   7.034   9.560   3.072  2.3871 -0.7579  1.1542
22613SOL    HW272687   7.061   9.642   3.196 -3.2874 -0.2172  2.2821
22614SOL     OW72688   3.674   1.353   2.762  0.1397  0.3920  0.0591
22614SOL    HW172689   3.679   1.420   2.693 -0.0589  0.4956  0.1447
22614SOL    HW272690   3.759   1.309   2.758 -0.1688 -0.1424 -0.7936
22615SOL     OW72691   8.864   2.151   9.399  0.5364  0.4440  0.0671
22615SOL    HW172692   8.852   2.242   9.425  0.9438  0.3146  0.7282
22615SOL    HW272693   8.776   2.115   9.396  0.4349  0.6558  0.5613
22616SOL     OW72694   0.614   5.969   4.773 -0.0677 -0.2732  0.1395
22616SOL    HW172695   0.667   5.925   4.840  0.9200  1.0365  0.2790
22616SOL    HW272696   0.665   6.047   4.751 -1.4063  0.4245 -0.5988
22617SOL     OW72697   3.078   8.263   6.229  0.4224 -0.5345 -0.2426
22617SOL    HW172698   3.012   8.288   6.295  0.3518 -0.3820 -0.3681
22617SOL    HW272699   3.123   8.345   6.210  0.8141 -0.6874  0.0199
22618SOL     OW72700   9.049   3.135   8.001 -0.0410 -0.5243  0.2383
22618SOL    HW172701   9.093   3.197   8.059  2.1514 -2.6856  1.0597
22618SOL    HW272702   9.117   3.071   7.978 -1.5200 -1.2415 -2.6182
22619SOL     OW72703   3.862   8.119   7.096 -0.0126 -0.2194  0.4310
22619SOL    HW172704   3.777   8.142   7.057  0.8862  0.3977 -1.2520
22619SOL    HW272705   3.926   8.140   7.028  1.6090  0.4030  2.0732
22620SOL     OW72706   1.447   1.213   5.104  0.0585  0.9148 -0.4680
22620SOL    HW172707   1.369   1.255   5.141 -0.9072 -1.6153  0.5804
22620SOL    HW272708   1.521   1.264   5.139 -0.9957  1.0226  1.7459
22621SOL     OW72709   4.209   7.343   0.896  0.2405 -0.4265  0.6043
22621SOL    HW172710   4.226   7.251   0.920  0.6947 -0.6831 -0.6267
22621SOL    HW272711   4.277   7.392   0.941 -0.0199 -0.6723  1.2966
22622SOL     OW72712   1.205   6.650   5.324  0.4359  0.3758 -0.5876
22622SOL    HW172713   1.155   6.579   5.283 -1.0672  1.0291  0.0505
22622SOL    HW272714   1.276   6.668   5.262  0.1687 -0.8968 -1.3022
22623SOL     OW72715   2.096   5.678   8.194  0.4690 -0.0526 -0.1975
22623SOL    HW172716   2.153   5.734   8.246 -2.1208  2.1650  0.5194
22623SOL    HW272717   2.030   5.647   8.256  0.6391 -2.2419 -1.0382
22624SOL     OW72718   4.404   9.168   2.575 -0.0651 -0.2207  0.3888
22624SOL    HW172719   4.390   9.247   2.523 -2.1890 -0.7387  0.0412
22624SOL    HW272720   4.379   9.193   2.663 -1.0160 -0.5431  0.2250
22625SOL     OW72721   9.572   7.892   8.760  0.5059  0.1465 -0.0542
22625SOL    HW172722   9.664   7.874   8.774  0.3187 -0.7694  0.0348
22625SOL    HW272723   9.561   7.983   8.789  1.3598  0.2511 -0.0307
22626SOL     OW72724   6.706   4.677   6.505 -0.1603 -0.1477 -0.0521
22626SOL    HW172725   6.647   4.642   6.571 -0.5924 -0.4113 -0.5705
22626SOL    HW272726   6.739   4.758   6.543 -2.8305  1.3969 -0.7305
22627SOL     OW72727   8.775   0.142   0.853 -0.0938  0.3369 -0.6523
22627SOL    HW172728   8.696   0.186   0.819 -0.4549  0.6742  0.5874
22627SOL    HW272729   8.749   0.108   0.938  0.7595 -0.6258 -0.7618
22628SOL     OW72730   4.764   8.772   2.811  0.7614 -0.0261 -0.3430
22628SOL    HW172731   4.768   8.746   2.719  2.0557 -0.8493 -0.0758
22628SOL    HW272732   4.751   8.867   2.809  0.2708 -0.1016 -1.3558
22629SOL     OW72733   1.054   5.315   5.832 -0.1609  0.3513 -0.3417
22629SOL    HW172734   1.127   5.363   5.871  0.7690 -1.1782 -0.1211
22629SOL    HW272735   0.988   5.310   5.902  0.6245 -0.5268  0.3622
22630SOL     OW72736   7.512   9.447   0.819  0.0391  0.2509  0.0078
22630SOL    HW172737   7.510   9.360   0.778  0.7233  0.1230  0.2350
22630SOL    HW272738   7.505   9.508   0.745 -0.4154  0.0088 -0.1552
22631SOL     OW72739   6.962   7.794   1.444 -0.1412  0.0475 -0.8755
22631SOL    HW172740   6.966   7.725   1.377 -0.8277 -1.9473  1.0238
22631SOL    HW272741   6.917   7.866   1.400 -0.7959 -1.2678 -2.5076
22632SOL     OW72742   6.717   5.348   1.628  0.3489  0.3879  0.5364
22632SOL    HW172743   6.736   5.379   1.717 -1.3860 -1.6812  1.7318
22632SOL    HW272744   6.624   5.326   1.630  1.0894 -3.5436 -0.5289
22633SOL     OW72745   0.745   0.394   0.513  0.5060  0.1446 -0.5311
22633SOL    HW172746   0.809   0.374   0.581  0.1473  1.9662  0.3935
22633SOL    HW272747   0.676   0.443   0.558 -0.0254  0.9133 -2.0922
22634SOL     OW72748   2.526   1.515   1.804 -0.3399 -0.4444  0.2641
22634SOL    HW172749   2.538   1.540   1.713  2.3888  0.5540  0.7976
22634SOL    HW272750   2.459   1.575   1.837 -0.6920 -0.2042 -0.8351
22635SOL     OW72751   6.215   5.600   2.939  0.2224 -0.3970  0.0884
22635SOL    HW172752   6.124   5.573   2.955 -0.3480  1.2773 -0.1026
22635SOL    HW272753   6.259   5.520   2.912 -1.0898 -1.3418  0.6136
22636SOL     OW72754   7.961   8.857   7.650 -0.3292 -0.1050 -0.1680
22636SOL    HW172755   7.993   8.782   7.702  0.7245  1.0932  1.0000
22636SOL    HW272756   8.006   8.848   7.566 -0.4557 -0.9582 -0.1540
22637SOL     OW72757   0.607   0.709   8.594  0.4354 -0.5451  0.2195
22637SOL    HW172758   0.650   0.717   8.679 -0.1351  0.2495  0.4529
22637SOL    HW272759   0.528   0.657   8.612  1.2557 -1.9777 -0.2013
22638SOL     OW72760   1.572   3.650   0.625 -0.1135 -0.3963 -0.0852
22638SOL    HW172761   1.576   3.561   0.591 -0.2457  0.0501 -1.3235
22638SOL    HW272762   1.602   3.643   0.715  0.1286 -1.6488 -0.2497
22639SOL     OW72763   2.541   4.835   5.810 -0.3361 -0.1944 -0.0724
22639SOL    HW172764   2.491   4.900   5.859  0.9452  0.2349  0.6895
22639SOL    HW272765   2.546   4.871   5.721 -0.3433  0.3354  0.1411
22640SOL     OW72766   0.077   5.645   4.094  0.5161 -1.0774  0.3095
22640SOL    HW172767   0.076   5.715   4.159 -2.4850 -0.5938 -0.1041
22640SOL    HW272768   0.003   5.665   4.036  1.9553 -2.4748 -2.2144
22641SOL     OW72769   3.777   0.502   4.898  0.7160 -0.4303 -0.4656
22641SOL    HW172770   3.807   0.525   4.810  0.2682 -1.3108 -0.8686
22641SOL    HW272771   3.689   0.466   4.884 -1.0554  2.9288  0.7377
22642SOL     OW72772   3.968   6.460   9.231  0.1720  0.2193 -0.2111
22642SOL    HW172773   3.873   6.456   9.221  0.1087  0.9949  0.0578
22642SOL    HW272774   3.995   6.532   9.174  0.5198  0.4722  0.2732
22643SOL     OW72775   5.855   5.473   0.635  0.8467 -0.2317  0.5953
22643SOL    HW172776   5.931   5.503   0.684  0.7126 -1.0836  1.3706
22643SOL    HW272777   5.788   5.458   0.703  0.1114  0.1387 -0.0301
22644SOL     OW72778   0.939   1.276   6.469  0.8985 -0.0190  0.4476
22644SOL    HW172779   0.973   1.315   6.389  0.4870  0.3686  0.4608
22644SOL    HW272780   0.905   1.190   6.442  0.0043  0.4459  0.0419
22645SOL     OW72781   7.350   0.094   9.442  0.4189  0.1761 -0.2339
22645SOL    HW172782   7.437   0.112   9.478  0.8756 -0.7178 -0.8579
22645SOL    HW272783   7.291   0.146   9.496  1.3882  1.2008 -0.1271
22646SOL     OW72784   3.772   8.149   2.102 -0.1198 -0.5610 -0.7120
22646SOL    HW172785   3.867   8.151   2.110 -0.1215  1.0952 -0.6882
22646SOL    HW272786   3.745   8.074   2.155  1.1117 -0.4835  0.0748
22647SOL     OW72787   5.205   6.236   7.572  0.1155  0.4979 -0.0025
22647SOL    HW172788   5.288   6.282   7.578  0.2233  0.2600  0.3961
22647SOL    HW272789   5.142   6.302   7.545  0.0363  1.1677  1.6845
22648SOL     OW72790   2.882   0.109   5.161  0.3017 -0.1963  0.0003
22648SOL    HW172791   2.952   0.084   5.100 -0.5316  0.8965 -1.4769
22648SOL    HW272792   2.802   0.082   5.117 -0.3046  0.2728  0.7968
22649SOL     OW72793   4.935   8.982   0.304 -0.0604  0.3081  0.1800
22649SOL    HW172794   4.985   8.913   0.259 -2.2386 -1.2897  0.0288
22649SOL    HW272795   4.934   9.055   0.242  2.1582  0.4634  0.2626
22650SOL     OW72796   1.548   5.625   1.146 -0.0136 -0.4379  0.4823
22650SOL    HW172797   1.641   5.612   1.161  0.5004  1.8547 -0.2384
22650SOL    HW272798   1.524   5.697   1.205 -0.1700  2.1022 -2.3956
22651SOL     OW72799   9.399   6.176   8.233 -0.4836 -0.0221  0.0105
22651SOL    HW172800   9.413   6.123   8.155 -0.3569 -0.2447  0.1831
22651SOL    HW272801   9.307   6.161   8.256 -0.6848  0.4950 -0.4253
22652SOL     OW72802   3.196   1.690   8.569 -0.5585  0.5054 -0.2470
22652SOL    HW172803   3.218   1.741   8.491  0.9527  1.8597  0.9838
22652SOL    HW272804   3.126   1.740   8.611 -0.8579  0.1749 -0.3504
22653SOL     OW72805   7.864   1.440   4.101  0.3499  0.0587 -0.3267
22653SOL    HW172806   7.768   1.448   4.101  0.3602  0.2335 -1.0458
22653SOL    HW272807   7.881   1.369   4.040  0.6467 -0.5268  0.4194
22654SOL     OW72808   6.283   4.882   8.799  0.4890 -0.0658 -0.3353
22654SOL    HW172809   6.325   4.842   8.876 -1.2463  0.6071  1.0119
22654SOL    HW272810   6.352   4.936   8.760  1.8055 -1.4970 -0.0943
22655SOL     OW72811   1.883   7.858   1.507 -0.2090 -0.2556 -0.0660
22655SOL    HW172812   1.888   7.943   1.550  1.1057  1.8589 -3.9201
22655SOL    HW272813   1.814   7.811   1.553 -0.6078  2.6533  2.5716
22656SOL     OW72814   5.211   1.085   7.827 -0.0071  0.2192  0.2062
22656SOL    HW172815   5.179   1.072   7.737 -0.8038  0.3867  0.4553
22656SOL    HW272816   5.236   0.998   7.857  2.7351  0.4666 -1.0511
22657SOL     OW72817   2.712   0.659   9.345 -0.2315  0.3351 -0.0660
22657SOL    HW172818   2.719   0.720   9.418 -1.4366 -0.7381  0.9815
22657SOL    HW272819   2.733   0.712   9.268  2.3041  1.2203  1.1102
22658SOL     OW72820   4.954   1.985   3.655 -0.0611  0.0258  0.3096
22658SOL    HW172821   4.988   1.917   3.596 -0.6433  2.0735 -2.5753
22658SOL    HW272822   5.019   2.054   3.652 -1.4204  1.3345 -0.1978
22659SOL     OW72823   1.873   6.583   1.127 -0.1029  0.4567  0.2161
22659SOL    HW172824   1.805   6.595   1.194  0.8200  0.2161  1.2222
22659SOL    HW272825   1.927   6.661   1.133  0.9140 -0.2715  0.8754
22660SOL     OW72826   4.407   5.943   5.670  0.0888 -0.1951  0.9243
22660SOL    HW172827   4.425   6.028   5.711  0.4577  0.9319 -1.4472
22660SOL    HW272828   4.319   5.920   5.700 -1.8471  3.1204 -1.5751
22661SOL     OW72829   7.702   9.317   7.517 -0.3143 -0.7975  0.2123
22661SOL    HW172830   7.735   9.344   7.431 -0.4053 -1.8630 -0.1675
22661SOL    HW272831   7.635   9.383   7.538  2.6967  2.1175  1.5314
22662SOL     OW72832   8.355   4.796   3.461  0.3509 -0.5603  0.0729
22662SOL    HW172833   8.435   4.791   3.409 -1.1157 -0.7767 -2.3140
22662SOL    HW272834   8.312   4.711   3.448 -0.8043 -0.0464  0.3813
22663SOL     OW72835   1.670   9.127   2.051  0.0333  0.1611  0.1512
22663SOL    HW172836   1.713   9.082   2.123 -1.6702 -1.2364  0.3695
22663SOL    HW272837   1.741   9.151   1.991  1.1011 -2.4148  0.2603
22664SOL     OW72838   4.264   5.669   3.031 -0.1377  0.1319 -0.0840
22664SOL    HW172839   4.273   5.702   2.942 -0.9029 -1.1186 -0.6653
22664SOL    HW272840   4.332   5.602   3.039  1.5764  1.9245  1.1688
22665SOL     OW72841   2.749   8.895   8.451 -0.6612 -0.6800  0.3707
22665SOL    HW172842   2.655   8.898   8.438 -1.0562 -1.2780  2.6584
22665SOL    HW272843   2.769   8.974   8.502  0.3745  0.2744 -1.3910
22666SOL     OW72844   5.525   1.653   9.739 -0.8301  0.4763 -0.2897
22666SOL    HW172845   5.594   1.667   9.673 -1.0075  3.2341 -0.0311
22666SOL    HW272846   5.445   1.643   9.688 -0.7830  1.3043 -0.5464
22667SOL     OW72847   9.466   5.992   0.536 -0.0147  0.0164  0.3677
22667SOL    HW172848   9.501   6.073   0.499 -1.5229  2.0962  3.1245
22667SOL    HW272849   9.543   5.941   0.561  0.9643  0.9740 -0.5886
22668SOL     OW72850   0.951   4.374   2.486 -1.1721  0.9023  0.8576
22668SOL    HW172851   0.937   4.298   2.542  0.9952 -0.0651  0.1843
22668SOL    HW272852   0.863   4.405   2.466 -2.1358 -1.5047  1.0509
22669SOL     OW72853   9.675   3.953   4.314  0.1638 -0.4181 -0.1260
22669SOL    HW172854   9.700   3.939   4.223  1.4044 -1.0729  0.2938
22669SOL    HW272855   9.629   3.872   4.339 -1.4659  0.3325 -0.5645
22670SOL     OW72856   5.908   7.366   6.086 -0.1205  0.5211 -0.5460
22670SOL    HW172857   5.850   7.292   6.108 -0.0736  0.9026  0.9540
22670SOL    HW272858   5.850   7.442   6.087  0.4017  0.9372  1.1734
22671SOL     OW72859   0.061   6.336   7.290 -0.1609  0.4482 -0.2591
22671SOL    HW172860   0.146   6.297   7.310 -0.1269  0.5107 -0.2844
22671SOL    HW272861   0.035   6.296   7.207 -0.4196 -0.0079  0.0345
22672SOL     OW72862   6.062   0.464   7.466 -0.3688  0.1144 -0.2389
22672SOL    HW172863   6.122   0.403   7.424 -0.6450 -0.5198  0.2585
22672SOL    HW272864   6.118   0.527   7.512 -0.0811 -0.6179  0.4280
22673SOL     OW72865   4.381   3.794   6.819 -0.2197  1.1102  0.5531
22673SOL    HW172866   4.347   3.741   6.747  0.1631 -1.5855  2.1875
22673SOL    HW272867   4.453   3.844   6.781  1.1909 -1.6108 -0.6113
22674SOL     OW72868   3.444   3.463   5.482  0.3183  0.2514 -0.2552
22674SOL    HW172869   3.491   3.425   5.556 -1.7150 -0.8630  0.5249
22674SOL    HW272870   3.495   3.542   5.460  1.4171  0.1862  1.7906
22675SOL     OW72871   8.758   4.657   5.076  0.5500 -1.3468  0.0507
22675SOL    HW172872   8.758   4.614   4.991 -2.2270  1.8453 -1.8352
22675SOL    HW272873   8.669   4.643   5.110 -1.2181  3.6970 -1.4846
22676SOL     OW72874   1.518   9.672   4.024 -0.4414  0.0602  0.2424
22676SOL    HW172875   1.429   9.708   4.019  0.2521  1.7511 -0.5932
22676SOL    HW272876   1.562   9.707   3.947  2.2334  2.8939  2.8424
22677SOL     OW72877   4.963   5.543   1.241 -0.0163 -0.4420  0.1241
22677SOL    HW172878   4.900   5.496   1.296  0.1403 -0.1053  0.5958
22677SOL    HW272879   4.984   5.482   1.171 -1.3398 -0.3487 -0.4011
22678SOL     OW72880   1.476   0.618   6.988  0.0989  0.4213 -0.0690
22678SOL    HW172881   1.569   0.614   6.969  0.0446 -0.8471 -0.1742
22678SOL    HW272882   1.444   0.530   6.968 -0.5203 -0.1358  2.8776
22679SOL     OW72883   7.264   5.072   9.063 -0.1555  0.1767  0.1189
22679SOL    HW172884   7.244   5.046   8.973 -1.4453  1.6665 -0.0721
22679SOL    HW272885   7.341   5.129   9.055 -0.9253  1.1999 -0.2074
22680SOL     OW72886   7.768   5.743   5.070 -0.2226 -0.1284 -0.1164
22680SOL    HW172887   7.849   5.788   5.095 -0.2989 -0.4441  0.7248
22680SOL    HW272888   7.718   5.810   5.023  0.1670  0.3232  0.0977
22681SOL     OW72889   2.598   2.183   4.854 -0.0355 -0.3794 -0.0008
22681SOL    HW172890   2.553   2.200   4.772 -1.8013 -0.5079  0.8820
22681SOL    HW272891   2.596   2.268   4.900  1.4485 -0.1624 -0.3152
22682SOL     OW72892   7.306   8.607   0.711 -0.0821  0.2931 -0.0682
22682SOL    HW172893   7.361   8.602   0.789  2.5309 -0.2673 -1.8066
22682SOL    HW272894   7.289   8.516   0.687 -0.6131  0.4534 -0.3158
22683SOL     OW72895   1.668   5.418   9.637 -0.4361  0.3483 -0.5901
22683SOL    HW172896   1.722   5.343   9.615 -1.1200 -0.3801  0.1337
22683SOL    HW272897   1.641   5.454   9.553 -0.4012 -0.4453 -0.9511
22684SOL     OW72898   1.953   3.269   9.741 -0.2720  0.2464 -0.5270
22684SOL    HW172899   1.870   3.294   9.783  0.9702  0.5777  1.9060
22684SOL    HW272900   1.955   3.174   9.749 -1.0533  0.0897 -1.9347
22685SOL     OW72901   8.689   3.269   3.287 -0.6741 -0.8493 -0.1425
22685SOL    HW172902   8.747   3.197   3.263  0.3405 -0.1562  0.1496
22685SOL    HW272903   8.729   3.306   3.367 -1.7912 -0.6690  0.3488
22686SOL     OW72904   7.862   8.720   0.669 -0.3042 -0.3929  0.3621
22686SOL    HW172905   7.895   8.725   0.579  1.5146 -0.9255  0.9639
22686SOL    HW272906   7.827   8.632   0.677 -1.4958  0.0117 -0.1272
22687SOL     OW72907   0.001   1.016   8.577 -0.3899 -1.0373 -0.2542
22687SOL    HW172908   0.024   1.093   8.524 -1.7269 -0.6287 -0.2643
22687SOL    HW272909   0.070   0.953   8.557  0.7568  0.1543 -0.2332
22688SOL     OW72910   9.376   4.431   2.288  0.2108 -0.0593  0.1948
22688SOL    HW172911   9.384   4.484   2.367 -0.0464  2.1161 -1.1553
22688SOL    HW272912   9.466   4.405   2.266  0.2218 -1.2409  1.5000
22689SOL     OW72913   1.868   7.736   6.788 -0.7442  0.0995  0.3259
22689SOL    HW172914   1.857   7.821   6.830 -0.1135  0.3460  0.0131
22689SOL    HW272915   1.945   7.747   6.732  0.1579 -1.0587  1.2886
22690SOL     OW72916   5.865   6.558   8.399  0.0219  0.2831 -0.4840
22690SOL    HW172917   5.789   6.520   8.355  0.2309 -1.7834  0.8456
22690SOL    HW272918   5.860   6.525   8.489  2.2120  0.5115 -0.2397
22691SOL     OW72919   5.149   6.524   7.708  0.4059 -0.2783 -0.4218
22691SOL    HW172920   5.239   6.556   7.703  0.9970 -1.4174  1.6594
22691SOL    HW272921   5.126   6.530   7.801 -1.9579  0.6462 -0.9906
22692SOL     OW72922   2.283   6.732   0.089  0.1585 -0.0366  0.3464
22692SOL    HW172923   2.222   6.675   0.136 -0.8797  1.3492  0.7843
22692SOL    HW272924   2.277   6.816   0.136  2.5611  0.1074  0.5036
22693SOL     OW72925   2.295   3.681   7.599  0.2537 -0.2426 -0.2612
22693SOL    HW172926   2.357   3.622   7.554  1.0694  0.8790 -0.6688
22693SOL    HW272927   2.298   3.761   7.547 -1.4697 -0.1103 -0.2010
22694SOL     OW72928   3.108   6.820   9.199  0.1021 -0.3629 -0.2850
22694SOL    HW172929   3.029   6.768   9.184  0.1666 -0.1263 -1.5542
22694SOL    HW272930   3.131   6.804   9.290 -1.0703 -0.9064 -0.0752
22695SOL     OW72931   8.895   0.878   6.934  0.4226  0.4533 -0.1286
22695SOL    HW172932   8.989   0.878   6.920  0.4682  2.0073 -0.0246
22695SOL    HW272933   8.877   0.794   6.977  1.5303 -0.4638 -1.3758
22696SOL     OW72934   6.936   9.625   4.385  0.7295  0.1485  0.2310
22696SOL    HW172935   7.030   9.622   4.369  0.7817  2.6020 -0.4139
22696SOL    HW272936   6.928   9.670   4.469  0.1871  2.6999 -1.0597
22697SOL     OW72937   0.277   4.187   1.069 -0.2708 -0.0749 -0.4966
22697SOL    HW172938   0.280   4.116   1.134  0.0170  0.7139  0.3793
22697SOL    HW272939   0.280   4.267   1.122  0.0732  0.5848 -1.4996
22698SOL     OW72940   8.432   4.291   1.125  0.2691  0.2510  0.4849
22698SOL    HW172941   8.506   4.245   1.163  1.0621  2.5118  1.8857
22698SOL    HW272942   8.410   4.359   1.188 -1.3133  1.3297 -1.0929
22699SOL     OW72943   5.908   0.404   5.013  0.3714 -0.6266 -0.0334
22699SOL    HW172944   5.935   0.482   5.061  0.2044 -1.1462  0.9091
22699SOL    HW272945   5.964   0.334   5.045  2.6930 -0.3896 -3.0451
22700SOL     OW72946   0.211   9.696   9.025  0.5670  0.3487  0.1597
22700SOL    HW172947   0.219   9.756   9.099  2.6339  0.3058  0.0359
22700SOL    HW272948   0.204   9.609   9.065 -1.1260  0.5373  0.3175
22701SOL     OW72949   1.958   8.476   0.582 -0.2020  0.3915 -0.6481
22701SOL    HW172950   1.988   8.395   0.540  2.0934  0.8087  0.0359
22701SOL    HW272951   1.927   8.447   0.668  0.6179  0.1853 -0.4019
22702SOL     OW72952   2.662   7.951   3.676  0.0947 -0.0067  0.5475
22702SOL    HW172953   2.725   8.007   3.721 -0.0528  0.1672  0.5369
22702SOL    HW272954   2.691   7.952   3.584 -0.2013  0.4624  0.4527
22703SOL     OW72955   5.330   7.129   5.225 -0.0695  0.4366 -0.2325
22703SOL    HW172956   5.242   7.153   5.194  0.6138 -0.1817 -2.8948
22703SOL    HW272957   5.385   7.136   5.147  2.0882 -0.0952  1.1781
22704SOL     OW72958   7.925   5.428   1.535  0.5155  0.2995  0.3349
22704SOL    HW172959   7.978   5.379   1.471  0.7928  0.7255  0.2349
22704SOL    HW272960   7.876   5.360   1.582  1.3154 -0.1235  0.5792
22705SOL     OW72961   8.013   4.073   3.671  0.2345  0.4237  0.3124
22705SOL    HW172962   8.006   4.002   3.735  0.8806 -0.8671 -0.9895
22705SOL    HW272963   7.943   4.134   3.695  0.0418 -0.3490  1.8329
22706SOL     OW72964   3.798   9.000   0.917 -0.5013  0.4355  0.2051
22706SOL    HW172965   3.804   9.084   0.871  0.8850 -0.4366 -1.2730
22706SOL    HW272966   3.764   8.939   0.852 -0.0337 -0.4852  0.7994
22707SOL     OW72967   2.615   9.603   9.461 -0.2776 -0.0046  0.5693
22707SOL    HW172968   2.603   9.538   9.531  0.4121  0.2865  0.9681
22707SOL    HW272969   2.528   9.642   9.451 -0.3873 -0.0424  1.2735
22708SOL     OW72970   4.203   9.527   4.022 -0.4134 -0.2021 -0.5314
22708SOL    HW172971   4.166   9.610   4.052 -0.2433  0.3179 -1.6930
22708SOL    HW272972   4.160   9.510   3.938  2.1290  0.6174 -2.1231
22709SOL     OW72973   6.450   3.209   4.297  0.6424 -1.0911 -0.9528
22709SOL    HW172974   6.518   3.144   4.314  1.7743 -0.0709 -1.4422
22709SOL    HW272975   6.383   3.191   4.363  2.7881 -0.1802  1.6632
22710SOL     OW72976   7.800   0.003   0.690  0.4341  0.0970 -0.2068
22710SOL    HW172977   7.811   0.066   0.619  0.7913  1.3390  0.9000
22710SOL    HW272978   7.843   0.044   0.765 -0.0063 -1.1313  0.7531
22711SOL     OW72979   3.803   4.114   5.324  0.0564 -0.1746 -0.0193
22711SOL    HW172980   3.838   4.200   5.303  1.5650 -0.8878 -0.5762
22711SOL    HW272981   3.878   4.065   5.359 -0.6817 -1.3529 -0.0195
22712SOL     OW72982   8.464   3.120   7.778  0.2493  0.3497 -0.5718
22712SOL    HW172983   8.499   3.094   7.693  1.3498  0.8992 -0.3008
22712SOL    HW272984   8.454   3.215   7.773 -1.6081  0.1840 -0.7642
22713SOL     OW72985   4.667   6.823   0.697  1.3690  0.7113 -0.3140
22713SOL    HW172986   4.702   6.802   0.783  0.8443 -0.0846 -0.2782
22713SOL    HW272987   4.737   6.800   0.636  2.1644  2.3357 -0.0464
22714SOL     OW72988   9.433   6.101   3.814 -0.5600  0.2070  0.1744
22714SOL    HW172989   9.468   6.054   3.739  0.5944  0.4818  0.5152
22714SOL    HW272990   9.480   6.066   3.890 -0.0570  1.5070  0.4950
22715SOL     OW72991   3.869   0.034   5.964 -0.6371 -0.2618 -0.0500
22715SOL    HW172992   3.896  -0.057   5.959  2.8991  0.6020  0.7536
22715SOL    HW272993   3.873   0.055   6.057 -1.9176  0.6358 -0.1641
22716SOL     OW72994   0.500   7.539   8.257  0.4770  0.2923  0.1690
22716SOL    HW172995   0.418   7.505   8.292 -0.9308  0.9398 -2.3476
22716SOL    HW272996   0.538   7.466   8.209  2.2411 -0.4823  2.4994
22717SOL     OW72997   1.887   5.015   1.507 -0.3868  0.2146 -0.3087
22717SOL    HW172998   1.963   4.961   1.530 -0.3067 -0.1296 -1.3136
22717SOL    HW272999   1.897   5.094   1.560  1.9837  1.2273 -2.0591
22718SOL     OW73000   6.094   7.050   6.176  0.2716 -0.8539  0.2665
22718SOL    HW173001   6.147   7.127   6.157 -2.2231  1.1534  0.8576
22718SOL    HW273002   6.126   7.019   6.261 -0.3874  1.2420  1.3638
22719SOL     OW73003   8.770   8.519   6.394 -0.1042  0.1426 -0.1784
22719SOL    HW173004   8.746   8.435   6.433 -1.4271  0.9232  0.7690
22719SOL    HW273005   8.854   8.503   6.351 -0.1470 -1.5527  0.3234
22720SOL     OW73006   6.770   6.651   4.469 -0.4970  0.0069 -0.4680
22720SOL    HW173007   6.862   6.646   4.496 -1.1098 -1.6967  1.4944
22720SOL    HW273008   6.740   6.735   4.505  0.0348  0.1312 -0.2938
22721SOL     OW73009   4.555   7.769   4.424  0.4394  0.4124  0.2963
22721SOL    HW173010   4.582   7.803   4.510  0.4409 -0.1613  0.5284
22721SOL    HW273011   4.623   7.706   4.401 -0.1502 -0.2820  0.4068
22722SOL     OW73012   1.807   0.401   2.901 -0.0874  0.0218 -0.0605
22722SOL    HW173013   1.797   0.353   2.983 -0.7320  0.0025 -0.1438
22722SOL    HW273014   1.717   0.418   2.872  0.1228  1.2721 -0.0382
22723SOL     OW73015   4.229   3.119   1.461  0.0734  0.6795  0.1542
22723SOL    HW173016   4.312   3.075   1.478  0.7083  2.0923  0.8959
22723SOL    HW273017   4.248   3.212   1.472 -1.4716  1.0848 -0.2626
22724SOL     OW73018   9.209   2.351   8.026 -0.3570 -0.1712 -0.3165
22724SOL    HW173019   9.292   2.372   8.067 -0.3468 -1.9383  0.6256
22724SOL    HW273020   9.232   2.323   7.937 -0.2008  1.6293 -0.8903
22725SOL     OW73021   2.930   4.938   3.905 -0.1453 -1.0589 -0.4049
22725SOL    HW173022   2.907   4.847   3.923 -0.6144 -0.9086 -0.2256
22725SOL    HW273023   2.997   4.960   3.970  0.3847 -1.4464 -0.8136
22726SOL     OW73024   2.335   3.998   2.769 -0.7712 -0.2792 -0.0158
22726SOL    HW173025   2.416   4.007   2.819 -0.8814 -2.4970  0.6390
22726SOL    HW273026   2.285   4.077   2.789  0.8426  0.7160  0.2419
22727SOL     OW73027   7.332   6.883   8.936  0.3116  0.4293  0.2431
22727SOL    HW173028   7.324   6.852   9.026  0.5720  0.6797  0.3519
22727SOL    HW273029   7.402   6.948   8.938  1.4485 -0.7246 -0.4485
22728SOL     OW73030   6.915   8.529   8.156  0.2556 -0.4930 -0.5880
22728SOL    HW173031   6.917   8.554   8.249  0.3891  0.7527 -0.9150
22728SOL    HW273032   6.949   8.605   8.110 -1.9667 -0.1869 -1.8415
22729SOL     OW73033   8.284   4.991   6.922  0.5010  0.4227 -0.6761
22729SOL    HW173034   8.312   4.919   6.865 -0.6457 -0.1967 -0.4973
22729SOL    HW273035   8.221   5.039   6.870  0.7713  0.9158 -0.5528
22730SOL     OW73036   1.087   2.735   2.119  0.1707  0.5121  0.0895
22730SOL    HW173037   1.009   2.688   2.151  1.3963 -2.2111 -0.6538
22730SOL    HW273038   1.052   2.817   2.084 -2.4457 -0.7242 -0.5029
22731SOL     OW73039   9.040   0.018   9.689  0.4418  0.5224  0.2970
22731SOL    HW173040   9.008  -0.072   9.680  0.2721  0.5793  0.3242
22731SOL    HW273041   9.063   0.044   9.600  0.3608  0.4982  0.2683
22732SOL     OW73042   9.155   4.576   5.899  0.0221 -0.2201 -0.1577
22732SOL    HW173043   9.167   4.492   5.942  1.8514 -0.9366 -1.9459
22732SOL    HW273044   9.229   4.629   5.927 -0.6782  0.5433  0.3094
22733SOL     OW73045   0.255   4.490   1.822  0.3640  0.5483  0.0959
22733SOL    HW173046   0.313   4.414   1.823  0.2231  0.4352  1.7922
22733SOL    HW273047   0.170   4.455   1.797  1.0060  0.7754 -2.8128
22734SOL     OW73048   4.188   7.458   2.659  0.2420  0.2671 -0.6804
22734SOL    HW173049   4.282   7.455   2.679  0.2380  1.6104 -0.3789
22734SOL    HW273050   4.179   7.532   2.599 -1.0947  2.7319  2.2640
22735SOL     OW73051   4.912   8.209   1.183 -0.2490  0.3823  0.3049
22735SOL    HW173052   4.834   8.261   1.169  0.8470  2.1420  0.3805
22735SOL    HW273053   4.916   8.149   1.108 -2.2037 -0.5246  0.8651
22736SOL     OW73054   7.924   4.956   2.783 -0.3290 -0.3841 -0.3794
22736SOL    HW173055   7.898   4.889   2.847 -1.3282 -1.3872 -1.7609
22736SOL    HW273056   7.889   4.923   2.700  1.9049  0.2916 -1.6496
22737SOL     OW73057   1.607   1.758   3.343  0.0616 -0.0742 -1.4554
22737SOL    HW173058   1.678   1.694   3.342  0.4811  0.3767 -0.7228
22737SOL    HW273059   1.650   1.842   3.355 -0.5859  0.2119 -1.1079
22738SOL     OW73060   4.275   0.703   1.784  0.3696  0.2302  0.0353
22738SOL    HW173061   4.308   0.650   1.856 -0.3828  0.4563  0.5658
22738SOL    HW273062   4.208   0.759   1.824 -1.4342 -0.9495 -1.1305
22739SOL     OW73063   9.509   5.411   0.342 -0.4788 -0.1358 -0.0755
22739SOL    HW173064   9.460   5.387   0.263  1.1274 -2.3164 -0.5064
22739SOL    HW273065   9.541   5.328   0.377  0.8550  0.9861  1.5461
22740SOL     OW73066   0.364   6.751   9.429  0.3448 -0.2443  0.5794
22740SOL    HW173067   0.314   6.669   9.416  1.2585 -0.7621  0.2334
22740SOL    HW273068   0.330   6.787   9.511  0.3159 -1.2713  1.0374
22741SOL     OW73069   2.817   8.163   0.596  0.0881  0.0533  0.0279
22741SOL    HW173070   2.796   8.222   0.524 -3.7940  0.5207  1.3040
22741SOL    HW273071   2.863   8.218   0.660 -0.6061  0.8506 -0.1522
22742SOL     OW73072   1.020   5.218   0.672 -0.1138 -0.1618  0.3363
22742SOL    HW173073   1.045   5.306   0.647  1.2787 -0.6257  0.0352
22742SOL    HW273074   1.009   5.222   0.767 -0.8170  0.5000  0.2334
22743SOL     OW73075   7.004   3.028   5.971 -0.0870 -0.4098  0.2588
22743SOL    HW173076   6.998   2.990   5.883 -2.1326 -1.6052  0.8695
22743SOL    HW273077   6.998   2.954   6.030 -0.7656  0.5510  1.4430
22744SOL     OW73078   6.694   3.000   1.149  0.7010 -0.4786  0.2244
22744SOL    HW173079   6.718   2.942   1.221  1.4310  0.2524  0.5795
22744SOL    HW273080   6.719   3.087   1.179  2.5003 -0.3175 -1.5195
22745SOL     OW73081   3.081   7.412   4.107  0.1887  0.3812 -0.4063
22745SOL    HW173082   3.173   7.389   4.118  0.9840  2.5699 -1.9226
22745SOL    HW273083   3.049   7.429   4.196  1.8209  1.5726 -0.0146
22746SOL     OW73084   6.914   7.480   8.406 -0.0476  0.4296  0.2823
22746SOL    HW173085   6.888   7.522   8.324 -0.2774 -0.5994 -0.1837
22746SOL    HW273086   6.975   7.542   8.446  0.8253  0.5191 -1.1199
22747SOL     OW73087   2.209   7.237   0.705 -0.4760 -0.0910 -0.2891
22747SOL    HW173088   2.212   7.330   0.729  0.4164 -0.2056  0.1034
22747SOL    HW273089   2.167   7.235   0.620  0.0561  0.7412 -0.5824
22748SOL     OW73090   0.617   4.101   2.581 -0.2023 -0.3025 -0.2311
22748SOL    HW173091   0.639   4.091   2.673  1.5137 -1.0058 -0.6794
22748SOL    HW273092   0.539   4.156   2.581 -0.2518 -0.3089  1.6280
22749SOL     OW73093   7.407   9.152   0.949  0.5146 -0.0666  0.3738
22749SOL    HW173094   7.326   9.200   0.932  0.3972  0.2730  1.7600
22749SOL    HW273095   7.382   9.060   0.941 -0.7383 -0.0890  3.4349
22750SOL     OW73096   6.011   1.960   0.057  0.2647 -0.2531  0.4302
22750SOL    HW173097   5.947   1.974   0.127  0.1568  1.9803 -0.0232
22750SOL    HW273098   6.076   2.028   0.071 -0.0369  0.6246 -1.9148
22751SOL     OW73099   4.156   4.472   2.238  0.1649 -0.1649  0.1614
22751SOL    HW173100   4.066   4.458   2.208 -0.4610  1.0220  1.3710
22751SOL    HW273101   4.153   4.555   2.285  1.9485 -0.0150  0.0874
22752SOL     OW73102   4.961   5.620   8.292 -0.0145 -0.2990 -0.4118
22752SOL    HW173103   4.877   5.633   8.248  0.4166 -0.3321 -1.2652
22752SOL    HW273104   5.010   5.700   8.276 -0.3988  0.3333  1.3241
22753SOL     OW73105   4.425   0.909   2.371  0.7588 -0.1374 -0.6172
22753SOL    HW173106   4.427   1.000   2.402 -0.1119  1.1499 -3.8304
22753SOL    HW273107   4.470   0.912   2.286  1.4797 -2.9281 -0.4215
22754SOL     OW73108   4.867   5.492   3.541  0.6212 -0.0232  0.3401
22754SOL    HW173109   4.921   5.543   3.601  0.0456  1.4572 -0.3379
22754SOL    HW273110   4.901   5.513   3.454  0.8174 -1.3733  0.0795
22755SOL     OW73111   5.362   4.609   1.878  0.1255 -0.8509  0.4742
22755SOL    HW173112   5.363   4.628   1.784 -2.0395 -2.2844  0.0872
22755SOL    HW273113   5.411   4.527   1.886 -0.5965 -1.2966  0.4173
22756SOL     OW73114   5.604   3.996   5.226  0.0563  0.2893 -0.2627
22756SOL    HW173115   5.527   3.945   5.204 -1.2422  1.4410  1.2765
22756SOL    HW273116   5.661   3.935   5.272 -0.1681 -0.4504 -0.9492
22757SOL     OW73117   7.074   8.004   4.739  0.2003  0.0750  0.1897
22757SOL    HW173118   6.994   8.012   4.687 -0.8852  0.0872  1.8103
22757SOL    HW273119   7.062   8.065   4.812  2.0851  0.7395 -0.0044
22758SOL     OW73120   6.303   2.976   4.995 -0.6693  0.6496 -0.0296
22758SOL    HW173121   6.264   2.954   5.080  1.6815 -1.5724  0.6475
22758SOL    HW273122   6.264   2.914   4.934  0.9875 -1.0257  0.4897
22759SOL     OW73123   6.088   6.415   1.331 -0.0990  0.2476  0.0721
22759SOL    HW173124   6.137   6.362   1.394 -0.3419 -1.4261 -1.0579
22759SOL    HW273125   6.021   6.458   1.383 -0.0391 -0.7739  1.0424
22760SOL     OW73126   6.606   0.040   7.087  0.6555  0.7640 -0.4037
22760SOL    HW173127   6.531  -0.015   7.066  1.5992  0.0741 -2.1442
22760SOL    HW273128   6.680  -0.021   7.097  1.1137  1.4667  0.7853
22761SOL     OW73129   1.045   0.930   4.847  0.0801 -0.2437  0.4881
22761SOL    HW173130   0.950   0.931   4.860 -0.2090 -0.5470 -1.3648
22761SOL    HW273131   1.059   0.863   4.780  1.4673  0.6255 -0.1302
22762SOL     OW73132   6.223   0.776   8.481 -0.5107 -0.3123 -0.1669
22762SOL    HW173133   6.261   0.864   8.475 -1.1668 -0.0774 -1.3223
22762SOL    HW273134   6.152   0.785   8.544  0.6070 -0.4878  1.1525
22763SOL     OW73135   6.428   3.589   7.961  0.5481 -0.4243  0.6378
22763SOL    HW173136   6.358   3.653   7.969  1.1991  0.4326 -0.2122
22763SOL    HW273137   6.430   3.544   8.045 -0.8418 -0.2915  0.7595
22764SOL     OW73138   5.944   8.339   1.362  0.0548  0.3080  0.3141
22764SOL    HW173139   5.945   8.261   1.306  0.1023  0.2515  0.3950
22764SOL    HW273140   6.022   8.388   1.336 -0.1632  0.5051  0.0113
22765SOL     OW73141   0.456   4.953   3.735 -0.2682 -0.1364 -0.1564
22765SOL    HW173142   0.367   4.975   3.763 -0.4264  1.4764 -1.7335
22765SOL    HW273143   0.492   5.036   3.704  2.3686 -0.3857  1.8195
22766SOL     OW73144   5.975   6.600   2.955 -0.5108 -0.2702  0.5671
22766SOL    HW173145   5.970   6.695   2.948  1.3545 -0.2172 -1.1819
22766SOL    HW273146   6.057   6.584   3.004 -1.9993 -1.0246  3.0201
22767SOL     OW73147   6.833   5.856   3.089  0.0623  0.4943 -0.6016
22767SOL    HW173148   6.854   5.947   3.066 -1.7718  0.8850 -0.8744
22767SOL    HW273149   6.788   5.822   3.011 -0.3455 -0.2701 -0.0367
22768SOL     OW73150   2.628   3.535   3.994 -0.4049 -0.5770  0.0843
22768SOL    HW173151   2.640   3.461   4.054 -0.4508 -0.9258 -0.3334
22768SOL    HW273152   2.717   3.569   3.979 -0.1626 -1.6402 -1.0898
22769SOL     OW73153   0.826   1.030   2.000  0.2195 -0.3648  0.0886
22769SOL    HW173154   0.756   1.067   1.948 -0.0738 -0.6846  0.2537
22769SOL    HW273155   0.850   1.100   2.061 -1.3792 -0.9098  1.4441
22770SOL     OW73156   7.473   2.672   1.942 -0.2667  0.3771  0.2571
22770SOL    HW173157   7.467   2.635   2.030  1.2586  0.0042  0.2316
22770SOL    HW273158   7.429   2.609   1.886  1.2633 -0.8698  0.3849
22771SOL     OW73159   6.969   6.314   4.226  0.3466  0.2412 -0.2073
22771SOL    HW173160   6.949   6.226   4.255  1.6221  0.7011  2.4266
22771SOL    HW273161   6.888   6.363   4.237  0.4400  0.0717  1.4322
22772SOL     OW73162   8.388   3.894   1.581 -0.0141 -0.3448 -0.0115
22772SOL    HW173163   8.358   3.808   1.552  0.4010 -0.3406 -0.4599
22772SOL    HW273164   8.385   3.889   1.676 -2.1289 -0.1047 -0.0225
22773SOL     OW73165   6.890   8.884   3.104  0.4681  0.4940  0.3049
22773SOL    HW173166   6.848   8.866   3.188  1.4798 -0.5183  0.6249
22773SOL    HW273167   6.830   8.847   3.039 -0.8836  2.2953  0.4591
22774SOL     OW73168   3.491   1.553   2.510 -0.2593 -0.1329  0.3368
22774SOL    HW173169   3.421   1.600   2.464 -0.5393  0.1950  1.0771
22774SOL    HW273170   3.446   1.488   2.564 -0.0060  0.1355  0.8826
22775SOL     OW73171   1.368   3.566   3.347 -0.4419 -0.1265 -0.6843
22775SOL    HW173172   1.450   3.580   3.393 -0.0477 -1.2441 -1.0275
22775SOL    HW273173   1.306   3.542   3.416 -0.0315 -1.0672 -0.6278
22776SOL     OW73174   5.570   5.280   3.503  0.0482 -0.6606  0.2698
22776SOL    HW173175   5.553   5.370   3.474 -1.4519 -0.8637  0.4687
22776SOL    HW273176   5.492   5.231   3.477  0.0321 -1.5121  1.8128
22777SOL     OW73177   9.270   7.887   6.657 -0.6068 -0.4727 -0.0733
22777SOL    HW173178   9.196   7.846   6.612 -0.6930 -0.5859  0.1738
22777SOL    HW273179   9.323   7.814   6.687 -1.2481 -0.4373  1.2028
22778SOL     OW73180   4.663   2.221   8.743  0.2091  0.6769  0.2494
22778SOL    HW173181   4.638   2.219   8.835 -1.0764  0.7592 -0.0854
22778SOL    HW273182   4.720   2.145   8.732 -4.8500 -3.6153 -0.2888
22779SOL     OW73183   2.443   3.193   4.268  0.0252 -0.0700  0.0456
22779SOL    HW173184   2.468   3.104   4.244  0.3208  0.4568 -1.7628
22779SOL    HW273185   2.349   3.196   4.250 -0.4253 -0.5629  2.0353
22780SOL     OW73186   5.747   2.648   7.475  0.0417  0.3704 -0.1136
22780SOL    HW173187   5.694   2.597   7.414 -0.4413  0.0358  0.5691
22780SOL    HW273188   5.791   2.583   7.530  0.4096  0.6672 -0.0459
22781SOL     OW73189   8.802   7.725   5.261  0.3303  0.1905 -0.7012
22781SOL    HW173190   8.833   7.780   5.333 -0.6402  0.8596 -0.7642
22781SOL    HW273191   8.877   7.715   5.203  1.3233 -0.9275  0.7303
22782SOL     OW73192   5.066   9.468   9.337  0.3290 -0.0286 -0.3931
22782SOL    HW173193   4.984   9.422   9.318  0.0481 -0.6585  2.0492
22782SOL    HW273194   5.124   9.446   9.264 -1.4177 -0.1225 -1.8284
22783SOL     OW73195   8.625   4.873   9.218  0.5144 -0.6862  0.3439
22783SOL    HW173196   8.683   4.892   9.292  0.6775  1.2978 -0.2353
22783SOL    HW273197   8.538   4.898   9.249  0.5233 -0.2207  0.0001
22784SOL     OW73198   2.900   7.388   8.841 -0.1352  0.2438  0.0190
22784SOL    HW173199   2.886   7.372   8.934 -0.3644 -1.2844 -0.2475
22784SOL    HW273200   2.839   7.458   8.819 -0.0853  0.6157  1.0146
22785SOL     OW73201   0.791   6.481   2.725  0.8385  0.6256 -0.1401
22785SOL    HW173202   0.872   6.429   2.728 -0.2056 -1.1445  2.9773
22785SOL    HW273203   0.777   6.507   2.816 -3.2619 -1.2209 -0.0334
22786SOL     OW73204   3.865   5.465   0.043 -0.0283 -0.3659  0.2440
22786SOL    HW173205   3.939   5.503   0.090 -0.0724 -2.0823  1.8141
22786SOL    HW273206   3.811   5.424   0.111 -1.0907 -1.3288 -1.1155
22787SOL     OW73207   6.218   3.805   3.697  0.2029 -0.3433  0.1303
22787SOL    HW173208   6.281   3.733   3.695  0.6710 -0.0271  1.9259
22787SOL    HW273209   6.142   3.771   3.651  0.1825 -2.2383  1.4342
22788SOL     OW73210   2.151   7.516   2.048 -0.3069  0.5141 -0.4069
22788SOL    HW173211   2.142   7.474   2.134  0.2047  1.0772 -0.0750
22788SOL    HW273212   2.228   7.571   2.056  1.1127 -1.1415 -1.9276
22789SOL     OW73213   4.787   7.026   1.017  0.5348  0.7582 -0.0519
22789SOL    HW173214   4.693   7.039   1.027  0.6425  1.7509 -0.2246
22789SOL    HW273215   4.808   6.954   1.077 -0.3187  0.5785  0.0380
22790SOL     OW73216   2.471   7.401   9.649 -0.1852 -0.2093 -0.1339
22790SOL    HW173217   2.530   7.340   9.604  0.7379  0.5347  0.0349
22790SOL    HW273218   2.383   7.368   9.630  0.2127 -0.3841 -1.8132
22791SOL     OW73219   7.228   6.312   0.959 -0.2816  0.4559 -0.2662
22791SOL    HW173220   7.229   6.354   0.873 -1.9001 -1.0467 -1.0772
22791SOL    HW273221   7.141   6.272   0.965 -0.4918  1.1087  2.3783
22792SOL     OW73222   5.791   8.035   8.283  0.4887  0.2165  0.0437
22792SOL    HW173223   5.814   7.986   8.362  1.0935  0.5336  0.0651
22792SOL    HW273224   5.801   8.127   8.307 -0.0926  0.3432 -0.1710
22793SOL     OW73225   1.390   9.241   7.665 -0.3187  0.3063 -0.2489
22793SOL    HW173226   1.321   9.225   7.729 -0.0161 -0.9316 -0.2145
22793SOL    HW273227   1.444   9.162   7.667  0.8078  1.0346 -0.6498
22794SOL     OW73228   3.606   7.315   7.091 -0.2788 -0.5006  0.3332
22794SOL    HW173229   3.548   7.390   7.075 -0.3998 -0.1147  2.3724
22794SOL    HW273230   3.692   7.355   7.107  0.0153 -0.9204 -0.1623
22795SOL     OW73231   1.400   5.351   8.761 -0.0318 -0.2472  0.1504
22795SOL    HW173232   1.343   5.414   8.716 -1.5487 -1.0007  0.9553
22795SOL    HW273233   1.414   5.281   8.697  0.7670  0.3537 -0.3604
22796SOL     OW73234   8.012   0.958   1.133  0.1445 -0.9392 -0.2963
22796SOL    HW173235   7.916   0.951   1.135  0.1461 -0.8276  0.6936
22796SOL    HW273236   8.042   0.896   1.199  0.5516  1.7194  2.2215
22797SOL     OW73237   4.804   2.113   7.186 -0.1379 -0.4155  0.0739
22797SOL    HW173238   4.840   2.050   7.123  0.8625 -1.0110  1.2102
22797SOL    HW273239   4.878   2.138   7.241 -0.5915  1.4796 -0.0907
22798SOL     OW73240   5.066   3.016   0.194  0.2039  0.4080  0.0003
22798SOL    HW173241   5.085   3.110   0.197  1.1738  0.2634 -0.7211
22798SOL    HW273242   5.002   3.001   0.263 -1.0519  1.8431 -0.8141
22799SOL     OW73243   0.009   7.857   0.999  0.5477 -0.2961  0.2612
22799SOL    HW173244  -0.004   7.896   1.086 -1.1651  1.4303 -0.6958
22799SOL    HW273245  -0.064   7.796   0.989  0.3960 -0.0396 -0.1983
22800SOL     OW73246   6.962   1.119   1.769  0.2973 -0.6287 -0.2768
22800SOL    HW173247   7.011   1.157   1.843 -1.3603  0.6086  0.2416
22800SOL    HW273248   6.999   1.031   1.759  0.9360 -0.6458  1.6812
22801SOL     OW73249   6.096   0.347   6.605  0.3234 -0.2889 -0.4294
22801SOL    HW173250   6.177   0.308   6.572  0.3799 -0.6889  0.1535
22801SOL    HW273251   6.125   0.407   6.673  0.1111 -0.7422  0.0711
22802SOL     OW73252   5.366   9.685   8.104  0.0691  0.1635 -0.4705
22802SOL    HW173253   5.448   9.691   8.056  1.0205  0.4879  1.1194
22802SOL    HW273254   5.313   9.758   8.072  1.7654  2.0991  0.8968
22803SOL     OW73255   5.595   7.725   2.912  0.1608  0.0799 -0.3579
22803SOL    HW173256   5.613   7.757   3.000  1.2619 -0.7564 -0.2527
22803SOL    HW273257   5.534   7.789   2.875  0.7554  1.1993  0.5237
22804SOL     OW73258   7.620   5.824   7.142  0.1219  0.6136  0.1851
22804SOL    HW173259   7.637   5.910   7.104  1.8389  0.3929  0.3801
22804SOL    HW273260   7.703   5.777   7.134 -0.2928 -0.4345  1.6055
22805SOL     OW73261   3.136   8.894   1.947 -0.2019  0.3927  0.0234
22805SOL    HW173262   3.231   8.890   1.941  0.0898  2.0798  2.1756
22805SOL    HW273263   3.110   8.807   1.978  0.5078 -0.3036 -1.2321
22806SOL     OW73264   1.987   3.041   9.130  0.5191  0.0026  0.4640
22806SOL    HW173265   1.925   3.105   9.094  0.3781 -0.7695 -0.7065
22806SOL    HW273266   1.961   2.958   9.091  2.5024 -0.2909 -0.3440
22807SOL     OW73267   5.187   1.007   2.020 -0.5421 -0.0290  0.2368
22807SOL    HW173268   5.227   0.927   1.984  0.0911  0.4570 -0.1764
22807SOL    HW273269   5.251   1.039   2.084 -0.4996  0.4703 -0.0446
22808SOL     OW73270   7.369   6.621   8.559 -0.0207 -0.5251 -0.4940
22808SOL    HW173271   7.404   6.540   8.595  2.0970  0.4133 -0.3269
22808SOL    HW273272   7.445   6.666   8.522 -1.4661  0.4467 -2.4582
22809SOL     OW73273   1.330   4.279   6.026  0.1818 -0.2803  0.4257
22809SOL    HW173274   1.303   4.285   5.934  3.4693 -0.2555 -0.6760
22809SOL    HW273275   1.304   4.363   6.064 -2.2132 -0.7146 -0.1108
22810SOL     OW73276   7.197   5.205   1.898  0.4031  0.4477 -0.5803
22810SOL    HW173277   7.249   5.208   1.979  1.3583  0.9351 -1.1862
22810SOL    HW273278   7.162   5.294   1.890 -0.4118  0.1635 -0.2605
22811SOL     OW73279   8.614   4.878   8.882 -0.2188  0.6291 -0.4715
22811SOL    HW173280   8.587   4.915   8.966 -1.0073 -1.2815  0.1826
22811SOL    HW273281   8.708   4.864   8.891 -0.4637 -0.5239  0.5277
22812SOL     OW73282   1.222   5.732   3.694  0.1956 -0.0027 -0.4588
22812SOL    HW173283   1.223   5.766   3.783 -1.3926 -0.0647 -0.3847
22812SOL    HW273284   1.311   5.698   3.680  0.8323  1.1270  0.6332
22813SOL     OW73285   8.800   6.758   6.823 -0.1660 -0.6005 -0.2075
22813SOL    HW173286   8.749   6.698   6.770 -0.0858 -2.5420  1.7790
22813SOL    HW273287   8.890   6.727   6.816 -0.0853 -0.5866  0.6637
22814SOL     OW73288   9.288   7.623   1.630  0.3958  0.4070  0.3517
22814SOL    HW173289   9.205   7.580   1.613  1.2395 -1.0256 -0.2937
22814SOL    HW273290   9.266   7.695   1.689 -1.2520 -0.0938  0.3878
22815SOL     OW73291   7.791   6.976   1.394  0.0123 -0.1124  0.5391
22815SOL    HW173292   7.764   7.003   1.481 -1.6639 -1.2774  0.4272
22815SOL    HW273293   7.710   6.975   1.343  0.9636  0.6412 -1.0755
22816SOL     OW73294   4.111   1.462   6.918 -0.1418 -0.4403  0.1703
22816SOL    HW173295   4.110   1.529   6.849 -0.1108  0.2426  0.8254
22816SOL    HW273296   4.083   1.508   6.997  0.4735 -1.0508  0.7586
22817SOL     OW73297   1.143   7.629   8.016 -0.3038  0.2852  0.1356
22817SOL    HW173298   1.113   7.707   8.062  0.3037  0.2808  0.5428
22817SOL    HW273299   1.207   7.590   8.074 -0.7398 -0.6270  0.0143
22818SOL     OW73300   1.944   1.729   4.445 -0.0466 -0.3583  0.0042
22818SOL    HW173301   1.858   1.688   4.433 -0.0136  0.1341 -2.2944
22818SOL    HW273302   1.953   1.789   4.370  1.6401  0.7848  1.0539
22819SOL     OW73303   0.875   9.678   0.665 -0.1135  0.3333 -0.1759
22819SOL    HW173304   0.829   9.704   0.585  0.9508  2.6237 -0.1275
22819SOL    HW273305   0.832   9.597   0.692 -1.5313  0.3301 -2.2102
22820SOL     OW73306   1.163   5.279   2.604  0.3683 -0.0233  0.2415
22820SOL    HW173307   1.255   5.302   2.590  0.6725  1.0977  3.2947
22820SOL    HW273308   1.114   5.356   2.576  0.5036  0.0324  0.1571
22821SOL     OW73309   8.498   5.218   5.600 -0.3323 -0.4944 -0.3543
22821SOL    HW173310   8.516   5.136   5.552 -1.2468 -0.6613 -0.4272
22821SOL    HW273311   8.467   5.278   5.532  0.5012 -0.0106 -0.3315
22822SOL     OW73312   1.086   9.391   6.364 -0.0054  0.0016 -0.6486
22822SOL    HW173313   1.106   9.431   6.448 -0.6907 -0.3902 -0.2954
22822SOL    HW273314   1.008   9.337   6.380 -0.7814  0.7508 -1.7672
22823SOL     OW73315   8.951   8.893   2.438 -0.3516  0.3589  0.3581
22823SOL    HW173316   8.981   8.980   2.413  0.2661 -0.6512 -2.8828
22823SOL    HW273317   9.031   8.842   2.449 -0.5958 -0.8688 -2.4918
22824SOL     OW73318   6.578   9.283   2.019 -0.4684 -0.5704 -0.7205
22824SOL    HW173319   6.571   9.195   2.057  2.4191  0.3565  2.5160
22824SOL    HW273320   6.617   9.268   1.933 -1.0972 -2.5067 -0.7260
22825SOL     OW73321   8.180   3.308   5.896 -0.2588  0.4209 -0.0451
22825SOL    HW173322   8.236   3.231   5.886  0.8311  1.1442  0.3144
22825SOL    HW273323   8.226   3.378   5.848 -1.4679  0.7464 -0.7786
22826SOL     OW73324   7.119   9.016   5.333 -0.5920 -0.7916  0.0660
22826SOL    HW173325   7.197   9.072   5.339  0.2673 -2.0956  2.0380
22826SOL    HW273326   7.062   9.048   5.403 -0.3478 -1.9463  0.8183
22827SOL     OW73327   7.566   9.010   5.302  0.1350 -0.6818 -0.2953
22827SOL    HW173328   7.628   8.964   5.245  1.2399 -0.1729  0.4560
22827SOL    HW273329   7.620   9.073   5.349 -0.8432 -0.7327  0.9379
22828SOL     OW73330   5.302   2.413   3.333 -0.0011 -0.0328 -0.5363
22828SOL    HW173331   5.314   2.477   3.403 -1.3312  0.1283 -0.4233
22828SOL    HW273332   5.247   2.457   3.269 -1.2972 -1.1684 -0.2562
22829SOL     OW73333   0.413   0.376   0.508  0.4188  0.0916  0.7026
22829SOL    HW173334   0.388   0.283   0.507 -1.5203  0.5765 -0.0873
22829SOL    HW273335   0.458   0.388   0.592  0.0377 -1.3969  1.1443
22830SOL     OW73336   9.749   0.994   8.064  0.2294  0.3545 -0.3177
22830SOL    HW173337   9.710   0.949   7.988 -1.4165  0.4949  0.4075
22830SOL    HW273338   9.767   0.924   8.126  0.5497  0.3629 -0.4000
22831SOL     OW73339   4.102   2.390   3.909 -0.0116 -0.2427  0.3737
22831SOL    HW173340   4.135   2.313   3.862 -0.7708  0.4586 -1.4119
22831SOL    HW273341   4.179   2.447   3.920  0.1291 -0.2989 -0.2907
22832SOL     OW73342   1.532   2.588   7.775  0.1336  0.2660 -0.0383
22832SOL    HW173343   1.627   2.582   7.787 -0.1057 -0.7575  1.7944
22832SOL    HW273344   1.520   2.584   7.680  1.8110 -2.1154 -0.2626
22833SOL     OW73345   3.465   7.613   5.841 -0.1484 -0.4351  1.0515
22833SOL    HW173346   3.523   7.674   5.796 -1.7847  0.8732  0.6418
22833SOL    HW273347   3.424   7.563   5.770 -0.5633 -0.3866  1.2567
22834SOL     OW73348   3.581   6.138   1.904 -0.2995  0.0037 -0.2343
22834SOL    HW173349   3.504   6.111   1.854 -0.4037  1.5028 -0.9703
22834SOL    HW273350   3.643   6.168   1.837 -0.2445  1.5956  0.4807
22835SOL     OW73351   7.019   2.413   8.266  0.4547  0.0613 -0.5021
22835SOL    HW173352   7.071   2.333   8.272 -0.5797 -0.5350  1.2771
22835SOL    HW273353   6.939   2.386   8.220 -0.1872 -0.1241  0.6855
22836SOL     OW73354   6.325   0.645   4.930 -0.7123 -0.3007 -0.1164
22836SOL    HW173355   6.358   0.731   4.959 -0.1410 -0.4171 -0.4106
22836SOL    HW273356   6.236   0.663   4.900 -0.2879  0.3637 -1.0238
22837SOL     OW73357   6.712   8.889   9.405 -0.3470 -0.5451 -0.3572
22837SOL    HW173358   6.756   8.921   9.484 -0.3280 -1.3783 -0.0207
22837SOL    HW273359   6.641   8.834   9.438 -2.6566  1.9193 -0.8298
22838SOL     OW73360   7.247   7.555   4.612 -0.3928 -0.0984 -0.1753
22838SOL    HW173361   7.243   7.611   4.534  0.2392 -0.0124 -0.1504
22838SOL    HW273362   7.331   7.577   4.653  0.5851 -2.0847 -0.9542
22839SOL     OW73363   5.279   7.873   8.971  0.0373  0.0176  0.4706
22839SOL    HW173364   5.333   7.910   9.041  1.6374  2.2401 -1.7329
22839SOL    HW273365   5.338   7.813   8.925  0.9088  2.5371 -2.0141
22840SOL     OW73366   8.491   2.530   5.788 -0.2350  0.3793  0.6778
22840SOL    HW173367   8.426   2.570   5.730  2.4482  1.5419 -1.7626
22840SOL    HW273368   8.499   2.440   5.755  0.8518  0.8621 -0.4519
22841SOL     OW73369   2.977   4.654   0.674 -0.3014  0.3555 -0.1470
22841SOL    HW173370   2.960   4.748   0.678 -1.7792  0.1674 -1.0641
22841SOL    HW273371   2.979   4.625   0.765  0.3735  1.2896  0.1479
22842SOL     OW73372   0.254   5.917   1.247  0.3030  0.1416  0.1247
22842SOL    HW173373   0.187   5.982   1.225 -1.0593 -0.8183  1.2799
22842SOL    HW273374   0.205   5.840   1.273  1.8638 -1.7048 -2.0055
22843SOL     OW73375   7.520   5.264   2.729 -0.0153 -0.5478  0.3965
22843SOL    HW173376   7.442   5.298   2.773  0.9123  1.0643  0.9106
22843SOL    HW273377   7.544   5.186   2.778 -0.8832 -0.6368  0.6912
22844SOL     OW73378   4.419   9.712   8.727 -0.1720 -0.0669  0.1426
22844SOL    HW173379   4.365   9.680   8.654  0.0271  0.1920 -0.1243
22844SOL    HW273380   4.428   9.806   8.709  0.6094 -0.1564  0.0242
22845SOL     OW73381   2.403   9.217   7.568  0.2497  0.2306 -0.6162
22845SOL    HW173382   2.416   9.304   7.606  1.0847 -0.1380 -0.0284
22845SOL    HW273383   2.319   9.187   7.603  0.2472  0.5582 -0.3437
22846SOL     OW73384   8.131   5.265   0.941 -0.3948 -0.0082 -0.2947
22846SOL    HW173385   8.194   5.199   0.912 -1.0331 -0.9195  0.3237
22846SOL    HW273386   8.180   5.320   1.002  0.1233  0.0601 -0.7628
22847SOL     OW73387   2.440   1.725   3.457 -0.0261  0.2229 -0.3454
22847SOL    HW173388   2.369   1.661   3.466  0.5569 -0.2819  0.8052
22847SOL    HW273389   2.435   1.778   3.536  0.0354  1.0764 -0.8959
22848SOL     OW73390   8.448   7.395   4.026 -0.1635  0.0658 -0.1646
22848SOL    HW173391   8.497   7.460   4.075 -0.8648  0.9062 -0.5481
22848SOL    HW273392   8.357   7.423   4.033 -0.3941 -0.4392 -0.9818
22849SOL     OW73393   5.059   7.906   3.339  0.0646 -0.2640  0.3782
22849SOL    HW173394   5.116   7.979   3.316  1.0298 -0.7403  1.1528
22849SOL    HW273395   5.045   7.859   3.257  2.0895 -1.0070  0.3981
22850SOL     OW73396   5.709   5.708   3.995 -0.1238  0.1286 -0.0332
22850SOL    HW173397   5.652   5.784   4.002 -0.4759 -0.0286 -0.9922
22850SOL    HW273398   5.665   5.639   4.044  0.4673  0.6719  1.3104
22851SOL     OW73399   1.676   8.297   2.834  0.3388  0.0059 -0.2615
22851SOL    HW173400   1.692   8.202   2.837  0.2962 -0.0041  2.4104
22851SOL    HW273401   1.587   8.307   2.866  0.3841  0.9608 -0.4042
22852SOL     OW73402   6.274   8.438   9.521 -0.0650  0.0811  0.4891
22852SOL    HW173403   6.308   8.527   9.522  1.1486 -0.3475 -0.1453
22852SOL    HW273404   6.207   8.439   9.452  1.4407  0.0127 -1.0305
22853SOL     OW73405   2.582   3.726   5.413  0.4082  0.0418 -0.2465
22853SOL    HW173406   2.673   3.721   5.384  0.6948 -0.3216  0.6725
22853SOL    HW273407   2.530   3.709   5.334  1.1553 -0.6757 -0.5919
22854SOL     OW73408   8.492   0.250   5.575 -0.0063  0.1864  0.3309
22854SOL    HW173409   8.544   0.328   5.555 -1.8744  1.0811 -1.3826
22854SOL    HW273410   8.430   0.280   5.642 -0.5370  0.1037 -0.1200
22855SOL     OW73411   4.321   0.312   9.395 -0.2044  0.1716 -0.9316
22855SOL    HW173412   4.407   0.355   9.393  0.4902 -1.1757 -2.1600
22855SOL    HW273413   4.296   0.313   9.487  2.8721 -2.5869  0.1519
22856SOL     OW73414   3.686   4.842   1.108  0.9827  0.2504 -0.5243
22856SOL    HW173415   3.704   4.905   1.177  0.7986 -0.3867  0.1153
22856SOL    HW273416   3.591   4.849   1.093  0.7091 -0.8263  0.5209
22857SOL     OW73417   7.828   8.505   2.097 -0.0640  0.5780 -0.4748
22857SOL    HW173418   7.878   8.477   2.173  0.5540 -1.6825 -1.6284
22857SOL    HW273419   7.766   8.569   2.131 -0.4432 -1.0134  2.1000
22858SOL     OW73420   5.800   4.007   3.378 -0.1405 -0.2411 -0.0384
22858SOL    HW173421   5.746   3.932   3.400 -0.4359  0.4452  1.7138
22858SOL    HW273422   5.797   4.063   3.455 -0.8007  2.1154 -1.6693
22859SOL     OW73423   8.465   7.082   1.486  0.7354  0.3562  0.0124
22859SOL    HW173424   8.387   7.131   1.512  0.6752  0.0374  0.4419
22859SOL    HW273425   8.510   7.064   1.568  1.3399  0.6621 -0.2441
22860SOL     OW73426   7.111   2.281   0.494  0.2893  0.0936 -0.5583
22860SOL    HW173427   7.086   2.204   0.545  2.9628 -0.3843  0.2032
22860SOL    HW273428   7.164   2.245   0.422  1.9047  1.1755  0.0283
22861SOL     OW73429   0.169   4.095   2.500  0.3667 -0.3590 -0.1218
22861SOL    HW173430   0.254   4.082   2.540  0.2614 -0.7640 -0.0295
22861SOL    HW273431   0.128   4.164   2.553  1.0173  0.5569 -0.7676
22862SOL     OW73432   7.256   9.021   9.547  0.6901  0.1455 -0.3946
22862SOL    HW173433   7.230   8.996   9.635  1.0991  1.4263  0.1130
22862SOL    HW273434   7.342   8.980   9.534  1.0747  0.7509  0.1887
22863SOL     OW73435   1.284   0.460   7.352  0.3966  0.2017  0.8683
22863SOL    HW173436   1.371   0.439   7.319 -0.3915  0.0652 -1.3212
22863SOL    HW273437   1.228   0.392   7.315 -0.6513  0.2750  2.2511
22864SOL     OW73438   6.934   2.936   5.407  0.0783  0.3477  0.1117
22864SOL    HW173439   6.912   3.017   5.362 -1.7115 -0.9577 -1.6058
22864SOL    HW273440   6.856   2.915   5.459 -0.3410 -1.2210 -1.0533
22865SOL     OW73441   7.363   0.079   2.709 -0.7264 -0.2053 -0.5478
22865SOL    HW173442   7.279   0.064   2.667  0.0987 -1.9035 -1.7222
22865SOL    HW273443   7.342   0.086   2.802 -2.1718 -0.5935 -0.8139
22866SOL     OW73444   3.269   1.515   1.190  1.1641  0.0961  0.1591
22866SOL    HW173445   3.257   1.513   1.096  2.8552  1.9906 -0.1865
22866SOL    HW273446   3.245   1.604   1.216  2.9467  0.3698  1.0905
22867SOL     OW73447   4.576   0.758   7.760 -0.6392 -0.1534 -0.4223
22867SOL    HW173448   4.623   0.801   7.832 -0.4860  0.5043 -0.9073
22867SOL    HW273449   4.645   0.714   7.710 -0.8826 -1.8237  0.6011
22868SOL     OW73450   2.586   5.654   0.507 -0.0587 -0.5010 -0.2698
22868SOL    HW173451   2.595   5.666   0.601 -3.2837  1.4466 -0.0215
22868SOL    HW273452   2.630   5.729   0.468 -2.0195  0.8937  0.0310
22869SOL     OW73453   3.419   6.859   2.025  0.5237 -0.6886  0.2458
22869SOL    HW173454   3.410   6.898   2.112  1.3575 -0.4177  0.2168
22869SOL    HW273455   3.371   6.776   2.030 -1.2975  0.3226  0.3061
22870SOL     OW73456   2.504   5.927   5.037 -0.1706 -0.3115 -0.0969
22870SOL    HW173457   2.537   6.000   4.984 -1.3712  0.4951  0.2246
22870SOL    HW273458   2.478   5.967   5.120  1.0336 -1.4502  0.8845
22871SOL     OW73459   8.461   9.432   8.725  0.5616  0.5924  0.4359
22871SOL    HW173460   8.492   9.344   8.705 -1.4071 -0.6357  2.3420
22871SOL    HW273461   8.520   9.465   8.793 -0.1046 -0.2721  1.4616
22872SOL     OW73462   1.080   8.604   9.229  0.5915  0.6023 -0.0413
22872SOL    HW173463   1.111   8.539   9.293  1.0525 -1.5478 -2.3145
22872SOL    HW273464   1.154   8.616   9.169 -0.0158  2.1430 -0.5506
22873SOL     OW73465   3.976   8.781   6.426 -0.1612 -0.5685 -0.3390
22873SOL    HW173466   3.882   8.762   6.424 -0.0369 -1.2218 -0.3605
22873SOL    HW273467   3.982   8.869   6.463 -0.7182 -0.9924  0.8167
22874SOL     OW73468   3.365   8.687   6.018 -0.1941 -0.3013  0.1658
22874SOL    HW173469   3.438   8.741   5.990  0.0025 -0.7441 -0.1912
22874SOL    HW273470   3.337   8.642   5.938 -1.5905  0.7181  0.0410
22875SOL     OW73471   1.447   0.582   3.392 -0.0007  0.9369  0.0039
22875SOL    HW173472   1.474   0.579   3.483  0.2852 -3.5238 -0.0125
22875SOL    HW273473   1.354   0.561   3.393  0.4893 -1.6651 -0.6928
22876SOL     OW73474   1.589   4.064   2.990  0.0975  0.4697 -0.2206
22876SOL    HW173475   1.668   4.018   3.020  0.8749  2.0127  0.1871
22876SOL    HW273476   1.603   4.078   2.897 -0.7556 -1.2276 -0.6654
22877SOL     OW73477   3.304   8.132   3.052  0.0178 -0.0418  0.4218
22877SOL    HW173478   3.327   8.060   3.111 -0.4285 -0.7505 -0.2535
22877SOL    HW273479   3.352   8.207   3.086  0.8929 -0.7755  0.8470
22878SOL     OW73480   9.742   2.498   8.830 -0.4929 -0.1113  0.4645
22878SOL    HW173481   9.660   2.460   8.798 -0.9419  1.4628 -0.3635
22878SOL    HW273482   9.792   2.423   8.862 -1.4179 -1.3657 -0.8686
22879SOL     OW73483   6.537   8.670   7.116  0.3855 -0.7817  0.1370
22879SOL    HW173484   6.509   8.741   7.174 -1.2700 -0.9346 -0.4294
22879SOL    HW273485   6.580   8.607   7.174 -0.4455 -0.5100  1.0686
22880SOL     OW73486   2.061   1.941   0.179  0.5731  0.1235  0.0014
22880SOL    HW173487   2.075   1.881   0.252  0.8934 -0.1281 -0.2601
22880SOL    HW273488   1.990   1.998   0.208 -2.6390 -2.8542 -1.1738
22881SOL     OW73489   1.907   8.109   0.467 -0.3056 -0.0200  0.0481
22881SOL    HW173490   1.925   8.095   0.374 -0.6175 -1.5882  0.1999
22881SOL    HW273491   1.964   8.046   0.512 -0.4955  0.4025  0.8953
22882SOL     OW73492   1.657   1.420   4.109  0.0875 -0.7749  0.4390
22882SOL    HW173493   1.667   1.325   4.097  0.7557 -0.4442 -2.1915
22882SOL    HW273494   1.676   1.457   4.023 -2.9125  1.5837  0.6108
22883SOL     OW73495   1.383   8.312   1.899 -0.2512 -0.0065 -0.0250
22883SOL    HW173496   1.327   8.290   1.973  0.3463  1.2273  0.8268
22883SOL    HW273497   1.384   8.233   1.845 -1.1253 -0.7441  1.0033
22884SOL     OW73498   6.443   2.942   8.923 -0.0870 -0.2454 -0.0963
22884SOL    HW173499   6.517   2.986   8.966  0.9674 -1.0385 -1.0118
22884SOL    HW273500   6.375   3.009   8.918 -0.0690  0.0263  2.2622
22885SOL     OW73501   0.123   7.020   0.100  0.3727 -0.2353  0.4167
22885SOL    HW173502   0.173   7.012   0.019 -0.9901 -1.3350 -0.3530
22885SOL    HW273503   0.050   7.077   0.077  0.6027  0.3992  1.2124
22886SOL     OW73504   6.406   4.344   0.666  0.3039  0.1051 -0.1679
22886SOL    HW173505   6.455   4.423   0.688 -0.5929  0.3125  1.2315
22886SOL    HW273506   6.385   4.305   0.751 -1.2011 -0.4487 -0.7664
22887SOL     OW73507   2.140   8.265   9.519 -0.4484  0.2314 -0.9851
22887SOL    HW173508   2.161   8.353   9.489 -0.3549  0.6695  0.3361
22887SOL    HW273509   2.045   8.261   9.519 -0.4551  0.4445 -0.7009
22888SOL     OW73510   8.816   0.251   5.289 -0.2408 -0.2340  0.0912
22888SOL    HW173511   8.777   0.221   5.371  1.5147  0.0042  1.0468
22888SOL    HW273512   8.892   0.303   5.315  0.2438  0.0311 -1.6833
22889SOL     OW73513   7.893   6.846   7.687 -0.0247  0.4225 -0.0118
22889SOL    HW173514   7.809   6.817   7.651 -0.1634  1.0656 -0.2130
22889SOL    HW273515   7.874   6.864   7.779  0.3497 -1.3074  0.4454
22890SOL     OW73516   1.165   8.530   5.302 -0.4705  0.6480  0.0793
22890SOL    HW173517   1.107   8.558   5.373 -0.6420  1.3798 -0.3378
22890SOL    HW273518   1.251   8.520   5.343 -0.6474  0.6830  0.4636
22891SOL     OW73519   2.289   4.701   5.723 -0.1204  0.1106  0.1975
22891SOL    HW173520   2.356   4.735   5.782  1.2020 -3.4480  0.9760
22891SOL    HW273521   2.232   4.648   5.779  1.0741 -3.2483 -1.4985
22892SOL     OW73522   7.862   9.245   4.757 -0.2628 -0.0202  0.2086
22892SOL    HW173523   7.803   9.224   4.685  0.8598  0.0790 -0.7737
22892SOL    HW273524   7.912   9.320   4.726  0.4944 -0.2032  0.9420
22893SOL     OW73525   2.034   8.026   5.078  0.2331 -0.2587  0.6192
22893SOL    HW173526   2.126   8.024   5.103  0.4919 -2.2415 -0.3057
22893SOL    HW273527   2.017   8.118   5.057  2.5222 -0.1133 -0.9988
22894SOL     OW73528   1.205   9.684   6.638 -0.4252 -0.3166  0.0146
22894SOL    HW173529   1.271   9.700   6.571  0.4093  0.9834  1.0932
22894SOL    HW273530   1.122   9.681   6.590  0.2841 -0.9020 -1.2277
22895SOL     OW73531   3.022   2.480   6.722  0.1139  0.0849  0.1875
22895SOL    HW173532   2.961   2.504   6.652 -1.5838 -1.4595  1.0659
22895SOL    HW273533   3.026   2.384   6.718  0.9099  0.0447  1.4590
22896SOL     OW73534   5.666   9.544   9.451  0.1514  0.2496  0.3241
22896SOL    HW173535   5.712   9.623   9.420  2.2323 -0.8682  0.3650
22896SOL    HW273536   5.586   9.541   9.400  1.3189  0.9443 -1.6507
22897SOL     OW73537   3.011   6.977   8.543  0.3601  0.5213  0.2907
22897SOL    HW173538   3.036   6.933   8.462 -0.6549 -0.4131  0.4592
22897SOL    HW273539   2.977   7.062   8.515  2.8607  1.5202  0.0030
22898SOL     OW73540   2.892   8.727   1.967  0.0614  0.1273  0.0395
22898SOL    HW173541   2.875   8.778   2.046 -0.4593  0.5893 -0.3549
22898SOL    HW273542   2.841   8.647   1.979  1.6208 -0.7455  1.0766
22899SOL     OW73543   5.401   0.381   7.942  0.1857 -0.8451  0.1896
22899SOL    HW173544   5.493   0.367   7.962  0.6667  1.6327  0.0553
22899SOL    HW273545   5.381   0.466   7.981 -1.7202 -0.7724 -0.8348
22900SOL     OW73546   5.261   6.022   1.866  0.0628  0.1993  0.0237
22900SOL    HW173547   5.299   5.943   1.905  1.3475  0.2030 -1.1259
22900SOL    HW273548   5.328   6.053   1.805  0.2122  2.9575  1.3968
22901SOL     OW73549   3.848   0.664   4.041  0.1809  0.5688 -0.1016
22901SOL    HW173550   3.851   0.652   4.136 -2.0235 -1.0987 -0.1518
22901SOL    HW273551   3.792   0.741   4.028 -1.7865 -0.7737 -0.0176
22902SOL     OW73552   5.741   4.781   6.342  0.2515 -0.1167  0.0122
22902SOL    HW173553   5.789   4.820   6.414  1.1928  0.4369 -0.8828
22902SOL    HW273554   5.651   4.774   6.373  0.8050 -0.7379  1.5587
22903SOL     OW73555   1.562   1.041   6.196 -0.2156 -0.5812  0.5044
22903SOL    HW173556   1.595   1.097   6.266  0.2277 -0.7610  0.4413
22903SOL    HW273557   1.538   0.960   6.239 -1.8198 -0.0043  0.7626
22904SOL     OW73558   8.682   5.920   9.195 -0.1778  0.7751 -0.3327
22904SOL    HW173559   8.621   5.919   9.269 -0.0829  0.8678 -0.2538
22904SOL    HW273560   8.744   5.850   9.215  0.7791  1.8155  0.4579
22905SOL     OW73561   8.637   7.700   3.523 -0.0268 -0.5620  0.2336
22905SOL    HW173562   8.709   7.725   3.581 -0.5391  1.2240  0.1490
22905SOL    HW273563   8.559   7.735   3.565 -0.6020 -0.6695 -0.7109
22906SOL     OW73564   7.100   1.005   1.177 -0.1461 -0.2382  0.6315
22906SOL    HW173565   7.031   0.951   1.216 -1.4193  0.3673 -0.6694
22906SOL    HW273566   7.111   0.968   1.089  0.1641  0.5794  0.3229
22907SOL     OW73567   5.933   6.442   1.603  0.0421  0.2261 -0.1193
22907SOL    HW173568   5.908   6.360   1.561  0.8202  0.6444 -1.4339
22907SOL    HW273569   5.950   6.418   1.694 -2.4124 -0.5590  0.1910
22908SOL     OW73570   8.316   2.611   7.705  0.1363 -0.0691 -0.4799
22908SOL    HW173571   8.268   2.601   7.787  2.2493  0.5109  0.9438
22908SOL    HW273572   8.268   2.679   7.657 -0.7768  0.0723  0.5887
22909SOL     OW73573   1.417   2.718   3.267  0.7666  0.4050 -0.4591
22909SOL    HW173574   1.500   2.677   3.291 -0.2642 -2.2063 -1.0066
22909SOL    HW273575   1.422   2.729   3.172 -0.2326 -1.7691 -0.8367
22910SOL     OW73576   1.182   8.918   5.045  0.2472  0.4093  0.4300
22910SOL    HW173577   1.161   8.989   4.984  1.9717  1.3798  0.8996
22910SOL    HW273578   1.101   8.906   5.096 -0.4258  1.2879 -0.3849
22911SOL     OW73579   0.857   0.180   8.330 -0.1570  0.3247  0.2123
22911SOL    HW173580   0.884   0.090   8.312 -1.1530  0.1190 -0.3431
22911SOL    HW273581   0.836   0.216   8.244 -0.4936  0.8450  0.5098
22912SOL     OW73582   0.861   7.322   6.128  0.4351  0.3941 -0.4695
22912SOL    HW173583   0.874   7.396   6.187  0.1110 -0.6055  0.9053
22912SOL    HW273584   0.874   7.358   6.041  1.4740  1.8055  0.2326
22913SOL     OW73585   3.717   1.276   7.344 -0.4066 -0.3871 -0.0535
22913SOL    HW173586   3.760   1.197   7.311  1.9940 -0.0007  1.8282
22913SOL    HW273587   3.770   1.348   7.311 -0.0992  0.1737  1.5611
22914SOL     OW73588   2.522   0.738   3.649 -0.2983 -0.2137 -0.0090
22914SOL    HW173589   2.581   0.813   3.643  0.2614 -0.6843 -0.5326
22914SOL    HW273590   2.539   0.701   3.735 -0.4013  0.1056  0.1529
22915SOL     OW73591   5.602   2.517   6.411 -0.1030  0.7704  0.2126
22915SOL    HW173592   5.692   2.488   6.425 -0.5372 -0.4335  0.6437
22915SOL    HW273593   5.576   2.477   6.328  0.1458  2.1312 -0.5502
22916SOL     OW73594   2.827   2.962   2.272  0.4077  0.7018 -0.2141
22916SOL    HW173595   2.796   3.000   2.189  0.7906  1.3008 -0.0915
22916SOL    HW273596   2.874   2.883   2.246 -0.5763  0.1812 -0.4615
22917SOL     OW73597   8.366   1.276   0.361  0.6329 -0.0168  0.2353
22917SOL    HW173598   8.454   1.239   0.362  0.5739 -0.1785  1.7836
22917SOL    HW273599   8.376   1.361   0.317  1.6663  0.1772  0.8040
22918SOL     OW73600   3.856   0.998   2.716 -0.5067 -0.1440 -0.2969
22918SOL    HW173601   3.846   0.954   2.800 -1.6302  1.0344  0.2080
22918SOL    HW273602   3.769   0.997   2.677 -0.3102  0.6390 -0.7833
22919SOL     OW73603   3.124   8.705   9.204  0.3496 -0.7374 -0.1431
22919SOL    HW173604   3.126   8.610   9.193  0.0740 -0.9699  1.5138
22919SOL    HW273605   3.090   8.738   9.121 -1.5781 -2.2487 -0.0389
22920SOL     OW73606   0.331   4.408   8.102 -0.8532 -0.1986  0.4623
22920SOL    HW173607   0.357   4.500   8.092 -2.9702  0.4959  0.8441
22920SOL    HW273608   0.251   4.400   8.050  0.4653 -2.4497 -1.4177
22921SOL     OW73609   8.356   6.705   4.350 -0.2939  0.0838 -0.0891
22921SOL    HW173610   8.288   6.737   4.409 -0.5262  1.5390 -1.0925
22921SOL    HW273611   8.414   6.780   4.337  0.1255 -0.4078 -1.1857
22922SOL     OW73612   3.275   5.846   0.316 -0.0850 -0.2000 -0.3425
22922SOL    HW173613   3.253   5.825   0.406 -0.5575  0.0949 -0.3845
22922SOL    HW273614   3.282   5.761   0.273 -1.0702 -0.3175 -0.3005
22923SOL     OW73615   9.487   8.154   1.246  0.0653  0.1280  0.2277
22923SOL    HW173616   9.495   8.247   1.266 -0.1930  0.5103 -1.2846
22923SOL    HW273617   9.428   8.151   1.170 -1.4781 -1.4073  1.3950
22924SOL     OW73618   9.104   3.923   2.436  0.2261 -0.0140 -0.5215
22924SOL    HW173619   9.122   3.912   2.343  1.0246 -2.8786 -0.1459
22924SOL    HW273620   9.169   3.866   2.479 -0.5917  0.6559  1.7312
22925SOL     OW73621   3.096   4.306   3.787 -0.4745  0.3717 -0.0287
22925SOL    HW173622   3.175   4.274   3.830 -0.3439  2.1132  1.1393
22925SOL    HW273623   3.126   4.381   3.735 -1.3188  0.9963  0.3624
22926SOL     OW73624   9.326   8.681   5.661  0.7952  0.2477 -0.0438
22926SOL    HW173625   9.259   8.624   5.624 -0.0277  0.9060  0.4100
22926SOL    HW273626   9.337   8.751   5.597  1.3164 -0.0394 -0.2807
22927SOL     OW73627   6.728   4.155   6.689  0.5541 -0.1074  0.2654
22927SOL    HW173628   6.804   4.214   6.689  2.1058 -1.9975  0.7856
22927SOL    HW273629   6.661   4.202   6.640  2.1720  1.4980 -0.5228
22928SOL     OW73630   5.498   3.384   7.412 -0.3983 -0.3792  0.7068
22928SOL    HW173631   5.451   3.413   7.490 -0.7986 -0.6612  0.5769
22928SOL    HW273632   5.501   3.288   7.421 -1.2897 -0.4995 -0.0826
22929SOL     OW73633   6.499   6.918   9.599 -0.1036 -0.0425  0.5428
22929SOL    HW173634   6.591   6.941   9.593 -0.1097  0.6450  2.5672
22929SOL    HW273635   6.492   6.836   9.550  1.8074 -0.7345  1.3621
22930SOL     OW73636   0.782   4.763   2.612 -0.0332  0.2982  0.0151
22930SOL    HW173637   0.868   4.724   2.628 -0.3329  0.0924  1.2014
22930SOL    HW273638   0.785   4.848   2.656  0.0452  0.9169 -1.1574
22931SOL     OW73639   9.287   0.010   1.101 -0.2098  0.1216 -0.5574
22931SOL    HW173640   9.233   0.084   1.129  0.5715  0.9745 -1.2455
22931SOL    HW273641   9.377   0.035   1.126  0.0276 -0.7317 -0.5300
22932SOL     OW73642   1.007   7.388   0.179 -0.4246  0.2226  0.3967
22932SOL    HW173643   1.076   7.400   0.114  1.1906 -2.7263  1.3416
22932SOL    HW273644   0.949   7.323   0.141  0.2152 -1.0996  1.5674
22933SOL     OW73645   0.348   3.066   7.572 -0.8105 -0.0782 -0.4480
22933SOL    HW173646   0.364   2.991   7.514 -0.2588  1.5795 -2.5935
22933SOL    HW273647   0.434   3.107   7.581 -1.3570  1.1287 -0.5839
22934SOL     OW73648   7.570   8.347   4.141  0.0232  0.3081 -0.2346
22934SOL    HW173649   7.552   8.408   4.070 -1.2506  1.7308  1.2178
22934SOL    HW273650   7.492   8.292   4.146  0.1516  0.1428 -0.0308
22935SOL     OW73651   2.822   1.664   2.263  0.1936  0.0899 -0.0698
22935SOL    HW173652   2.785   1.737   2.311  1.8806  0.8002  0.2372
22935SOL    HW273653   2.798   1.680   2.171 -1.3946 -0.2475  0.2561
22936SOL     OW73654   1.220   6.975   3.674  0.8025 -0.2028  0.3154
22936SOL    HW173655   1.169   7.023   3.739  1.5044  0.7570  0.1708
22936SOL    HW273656   1.273   6.915   3.726  1.6368  0.8229  0.6738
22937SOL     OW73657   8.529   4.074   4.947  0.3276  0.0622  0.5014
22937SOL    HW173658   8.573   3.990   4.939  1.3144  0.5286  0.9061
22937SOL    HW273659   8.592   4.137   4.913 -0.3696  0.6539  0.2740
22938SOL     OW73660   0.707   8.809   4.599  0.0368  0.4101 -0.1793
22938SOL    HW173661   0.614   8.799   4.579 -0.6938  2.0480  1.9225
22938SOL    HW273662   0.726   8.740   4.662  0.4197 -0.2723 -1.0256
22939SOL     OW73663   4.447   1.731   8.680  0.3458 -0.0304 -0.0467
22939SOL    HW173664   4.510   1.688   8.738  0.4560 -0.4748 -0.4816
22939SOL    HW273665   4.501   1.780   8.619  0.2236  0.6002  0.3452
22940SOL     OW73666   7.142   1.933   2.434  0.6346  0.0009  0.6244
22940SOL    HW173667   7.159   1.978   2.518 -0.1269  1.6961 -0.0754
22940SOL    HW273668   7.048   1.915   2.436  0.3160  1.3681 -0.4316
22941SOL     OW73669   0.479   2.842   0.224  0.0006  0.0025  0.1710
22941SOL    HW173670   0.442   2.928   0.203 -1.4954 -0.4115  1.0114
22941SOL    HW273671   0.505   2.848   0.316  0.9207 -0.1135 -0.0695
22942SOL     OW73672   6.380   5.408   4.846  0.0156  0.3128 -0.0417
22942SOL    HW173673   6.419   5.495   4.846  0.7929 -0.0220 -0.0369
22942SOL    HW273674   6.412   5.367   4.765 -1.0817  0.3436 -0.5028
22943SOL     OW73675   2.074   6.770   2.190 -0.5419  0.5145  0.2199
22943SOL    HW173676   1.985   6.743   2.168  0.1342 -1.2184 -0.5083
22943SOL    HW273677   2.077   6.863   2.165 -2.1672  0.6601  0.4289
22944SOL     OW73678   0.172   4.792   3.338  0.5234 -0.2691 -0.1409
22944SOL    HW173679   0.201   4.711   3.381 -0.0406 -0.2126  0.3763
22944SOL    HW273680   0.082   4.773   3.311  0.9731 -0.4126 -1.6247
22945SOL     OW73681   2.947   5.692   3.907  0.1755  0.2890 -0.5380
22945SOL    HW173682   3.025   5.638   3.914  0.6352  0.9070 -0.8248
22945SOL    HW273683   2.909   5.669   3.822  0.8354  1.0164 -1.0426
22946SOL     OW73684   8.792   3.634   3.600 -0.3920 -0.3028  0.1206
22946SOL    HW173685   8.836   3.625   3.515  0.4929  2.0190  0.2370
22946SOL    HW273686   8.752   3.721   3.596  1.1086  0.5970  2.6582
22947SOL     OW73687   0.061   6.563   1.606  0.1603 -0.5518 -0.4548
22947SOL    HW173688   0.000   6.553   1.679  1.3610  0.5567  0.7657
22947SOL    HW273689   0.047   6.486   1.551  0.5615 -2.4763  1.9822
22948SOL     OW73690   3.003   0.323   1.693  0.0816 -0.3242 -0.1505
22948SOL    HW173691   2.925   0.326   1.638 -0.7655  0.6527  1.0694
22948SOL    HW273692   3.070   0.281   1.637 -1.0996 -0.5543 -1.4404
22949SOL     OW73693   3.722   6.067   2.136  0.5143 -0.2810 -0.2699
22949SOL    HW173694   3.800   6.111   2.105  2.1904 -2.7599  0.1678
22949SOL    HW273695   3.653   6.092   2.074  1.9695  0.8082 -1.5010
22950SOL     OW73696   3.003   2.618   1.473 -0.3270  0.2409 -0.1701
22950SOL    HW173697   3.070   2.636   1.538 -0.1960  0.1876 -0.2899
22950SOL    HW273698   3.002   2.523   1.464 -1.5821  0.1138  1.0568
22951SOL     OW73699   5.754   6.667   1.732  0.3845  0.0912  0.1696
22951SOL    HW173700   5.794   6.703   1.811 -2.2878  3.2501  0.2987
22951SOL    HW273701   5.680   6.615   1.764 -0.3669  0.9186 -0.1814
22952SOL     OW73702   6.508   3.640   2.594 -0.2550  0.1504 -0.4146
22952SOL    HW173703   6.593   3.672   2.625 -0.1596  0.6040 -1.1279
22952SOL    HW273704   6.517   3.545   2.593 -0.6817  0.0042  2.1454
22953SOL     OW73705   6.784   8.732   7.512 -0.7908  0.4155  0.1626
22953SOL    HW173706   6.868   8.745   7.555 -0.1152  0.6478 -1.1787
22953SOL    HW273707   6.745   8.657   7.557 -0.1534  0.6916  1.2062
22954SOL     OW73708   8.569   8.162   7.211  0.0309 -0.1964  0.2311
22954SOL    HW173709   8.477   8.135   7.217  0.2247 -0.6592  1.5991
22954SOL    HW273710   8.617   8.091   7.255  0.9585  0.4289  0.2466
22955SOL     OW73711   6.112   9.019   8.225 -0.6701  0.4790 -0.1455
22955SOL    HW173712   6.068   8.935   8.210  2.4539 -1.1055 -1.3265
22955SOL    HW273713   6.150   9.040   8.140  3.0085  0.3080  1.3098
22956SOL     OW73714   6.085   6.342   0.398 -0.2148  0.0578  0.0004
22956SOL    HW173715   6.076   6.354   0.303  0.3110 -1.1940 -0.2308
22956SOL    HW273716   6.178   6.322   0.411 -0.7419 -2.3844  0.4341
22957SOL     OW73717   5.408   4.225   6.923 -0.2410 -0.1708  0.3226
22957SOL    HW173718   5.328   4.254   6.968  0.3384  2.1618 -0.0342
22957SOL    HW273719   5.461   4.304   6.915  2.0879 -1.6149  0.4342
22958SOL     OW73720   5.218   1.222   6.193  0.3610  0.3934  0.8114
22958SOL    HW173721   5.142   1.280   6.191  0.8647  1.0431  0.0948
22958SOL    HW273722   5.228   1.192   6.103  1.0373  0.4277  0.8711
22959SOL     OW73723   8.710   2.032   8.793 -0.0089 -0.1578  0.3843
22959SOL    HW173724   8.754   2.109   8.757  0.9154 -1.5970 -1.8191
22959SOL    HW273725   8.617   2.054   8.790  0.0568  0.1189 -2.4115
22960SOL     OW73726   3.427   3.766   0.086  0.5253 -0.1586  0.0246
22960SOL    HW173727   3.485   3.819   0.141  1.0207 -1.0856  0.4152
22960SOL    HW273728   3.342   3.808   0.093  0.8812  0.5178  0.4164
22961SOL     OW73729   6.105   7.277   6.583  0.1251  0.5744  0.3388
22961SOL    HW173730   6.076   7.201   6.533 -2.2015  1.0051  0.9009
22961SOL    HW273731   6.113   7.347   6.518  1.6977  0.0127 -0.0907
22962SOL     OW73732   4.963   3.713   8.555  0.3712 -0.0774 -0.0973
22962SOL    HW173733   4.934   3.804   8.545  0.4130 -0.2730 -2.6697
22962SOL    HW273734   4.884   3.661   8.539  1.0000 -0.5008 -2.1839
22963SOL     OW73735   6.262   0.236   2.721 -0.1314  0.2927 -0.5950
22963SOL    HW173736   6.344   0.186   2.728 -0.2020  0.3051  0.5518
22963SOL    HW273737   6.231   0.219   2.632  1.7841  1.3223 -1.5355
22964SOL     OW73738   4.349   7.561   8.737 -0.2870 -0.0460 -0.1797
22964SOL    HW173739   4.439   7.578   8.765  0.5682 -1.8025 -1.6221
22964SOL    HW273740   4.300   7.545   8.818  1.0098 -0.3754  0.5602
22965SOL     OW73741   7.566   7.162   5.747  0.5470 -0.6311  0.9257
22965SOL    HW173742   7.480   7.178   5.708  1.5916  0.8599 -0.9580
22965SOL    HW273743   7.594   7.078   5.710  0.1112 -0.8753  1.1499
22966SOL     OW73744   5.861   1.342   7.411 -0.2712 -0.1462 -0.1093
22966SOL    HW173745   5.941   1.393   7.396 -0.2127 -0.4520 -0.9040
22966SOL    HW273746   5.891   1.252   7.419 -0.4307 -0.1336  0.7610
22967SOL     OW73747   5.938   9.030   5.984 -0.1151  0.1763 -0.2634
22967SOL    HW173748   5.917   8.945   5.945 -0.1422 -1.2675  2.6570
22967SOL    HW273749   5.881   9.036   6.060 -0.4177  3.0714 -0.6128
22968SOL     OW73750   7.497   0.858   1.739  0.0855 -0.8765 -0.3796
22968SOL    HW173751   7.463   0.811   1.663 -1.6304  2.2180 -1.6935
22968SOL    HW273752   7.575   0.903   1.706 -1.4856  1.6597 -0.8627
22969SOL     OW73753   6.027   3.468   3.276  0.1169  0.1382 -0.1771
22969SOL    HW173754   5.957   3.523   3.312 -1.2390  0.1173 -2.5496
22969SOL    HW273755   6.006   3.379   3.306 -0.4165  0.2544 -0.1961
22970SOL     OW73756   5.292   9.406   6.882 -0.5278 -0.4910  0.0279
22970SOL    HW173757   5.339   9.366   6.808  1.5177 -2.4998  2.2309
22970SOL    HW273758   5.330   9.493   6.890 -0.4760 -0.4011 -1.0133
22971SOL     OW73759   9.207   8.107   6.987  0.3076  0.2015 -0.2192
22971SOL    HW173760   9.248   8.179   7.036 -1.8003  0.8350  0.7560
22971SOL    HW273761   9.280   8.059   6.948  2.1689 -0.0660  3.1723
22972SOL     OW73762   9.074   6.340   9.505  0.4154 -0.0981 -0.1247
22972SOL    HW173763   9.015   6.414   9.489  0.5760  0.1238  0.2828
22972SOL    HW273764   9.056   6.315   9.596  0.9233 -0.0532 -0.0102
22973SOL     OW73765   4.744   4.136   0.348  0.2220  0.3336  0.1708
22973SOL    HW173766   4.774   4.212   0.298  2.2215 -0.9047 -0.6142
22973SOL    HW273767   4.809   4.068   0.330 -1.2655 -1.4440  1.1986
22974SOL     OW73768   6.500   2.134   7.047  0.0387  0.1130  0.3360
22974SOL    HW173769   6.523   2.049   7.084 -1.7184 -0.2927  0.5676
22974SOL    HW273770   6.525   2.126   6.954  0.0276 -0.6000  0.3850
22975SOL     OW73771   5.109   0.199   3.959  0.4679 -0.2173  0.2016
22975SOL    HW173772   5.105   0.277   4.015 -1.1487  0.1229 -0.3356
22975SOL    HW273773   5.019   0.167   3.957  0.5633 -0.4568 -1.8911
22976SOL     OW73774   1.082   4.629   0.713  0.0673  0.5000 -0.4168
22976SOL    HW173775   1.068   4.592   0.626 -0.6026 -0.3109  0.0261
22976SOL    HW273776   1.076   4.724   0.700 -0.7873  0.3580 -1.1293
22977SOL     OW73777   9.024   7.574   5.593 -0.9482 -0.1693 -0.2596
22977SOL    HW173778   9.072   7.630   5.654 -0.2116 -0.3269 -0.6796
22977SOL    HW273779   8.951   7.628   5.563 -0.5874  0.3543 -0.2088
22978SOL     OW73780   8.420   8.686   6.499 -0.2026  0.4022  0.1272
22978SOL    HW173781   8.338   8.679   6.548 -0.1585 -1.9576 -0.0080
22978SOL    HW273782   8.485   8.646   6.556  0.2239 -0.5537 -0.9746
22979SOL     OW73783   1.711   4.430   3.222  0.1538 -0.6802  0.3405
22979SOL    HW173784   1.800   4.462   3.238  0.4947 -1.3329 -0.1794
22979SOL    HW273785   1.720   4.334   3.225 -0.6972 -0.7514  1.1368
22980SOL     OW73786   2.083   2.025   8.773 -0.8955  0.4893 -0.3149
22980SOL    HW173787   2.116   2.104   8.731 -0.9008 -0.0893 -1.4451
22980SOL    HW273788   1.999   2.008   8.729 -1.1372  0.1365  0.2709
22981SOL     OW73789   3.591   1.614   4.570  0.3458  0.4421 -0.2681
22981SOL    HW173790   3.663   1.610   4.507 -0.0640 -1.2375 -0.6712
22981SOL    HW273791   3.554   1.702   4.559  0.5366  0.3267 -2.0969
22982SOL     OW73792   1.867   5.457   3.170 -0.0816 -0.0546  0.4610
22982SOL    HW173793   1.782   5.450   3.127  0.1095  0.0963  0.0607
22982SOL    HW273794   1.917   5.383   3.136 -0.4813 -0.9036  1.6704
22983SOL     OW73795   8.024   0.948   7.471  0.2601  0.2041  0.7013
22983SOL    HW173796   7.973   1.004   7.412 -1.4489 -0.7672  1.1755
22983SOL    HW273797   8.112   0.945   7.433 -0.4543  0.6568 -1.0555
22984SOL     OW73798   0.841   5.193   5.133 -0.2973 -0.3909  0.8399
22984SOL    HW173799   0.920   5.224   5.089 -0.3604 -0.8651  0.3793
22984SOL    HW273800   0.843   5.236   5.219  0.0592  0.1954  0.5459
22985SOL     OW73801   5.601   8.633   0.961 -0.3682  0.0460 -0.6641
22985SOL    HW173802   5.694   8.614   0.975 -0.6696 -0.7255  0.4549
22985SOL    HW273803   5.593   8.643   0.866  1.3277  2.8116 -0.6427
22986SOL     OW73804   6.021   9.701   7.641 -0.3260 -0.7226  0.0328
22986SOL    HW173805   6.115   9.718   7.640 -0.7354  2.1559 -2.2026
22986SOL    HW273806   5.984   9.775   7.687 -1.5938 -1.4395  0.2106
22987SOL     OW73807   4.044   2.152   2.821  0.1905  0.2687  0.6440
22987SOL    HW173808   4.040   2.122   2.912 -1.5904 -0.9825  0.2053
22987SOL    HW273809   4.034   2.072   2.769  4.5675  0.3969 -0.7984
22988SOL     OW73810   1.073   6.007   4.669 -0.5026 -0.6536  0.4759
22988SOL    HW173811   1.155   5.971   4.635  1.1685  2.5446  0.7712
22988SOL    HW273812   1.063   5.964   4.755  1.7091 -0.1043  1.0902
22989SOL     OW73813   2.886   2.154   0.544  0.6812  0.0256 -0.5780
22989SOL    HW173814   2.899   2.066   0.582  0.3510 -1.5167 -3.7248
22989SOL    HW273815   2.969   2.173   0.499  0.7276  1.3495  0.0191
22990SOL     OW73816   2.458   8.004   5.768 -0.1378 -0.4280 -0.2549
22990SOL    HW173817   2.382   7.969   5.815 -0.1689 -2.3662 -1.6317
22990SOL    HW273818   2.526   8.010   5.835 -1.3274  0.9574  0.9138
22991SOL     OW73819   9.498   4.478   2.841 -0.3694  0.3413  0.2186
22991SOL    HW173820   9.527   4.388   2.854  0.1966  0.4471 -0.2436
22991SOL    HW273821   9.405   4.477   2.863 -0.3238 -0.3155  0.3969
22992SOL     OW73822   5.234   9.667   6.284 -0.0682  0.5618 -0.0673
22992SOL    HW173823   5.198   9.749   6.319 -0.4886  0.3401  0.0204
22992SOL    HW273824   5.237   9.608   6.359  0.6384  0.6249 -0.0346
22993SOL     OW73825   7.262   8.138   4.594  0.2191  0.1557 -0.1010
22993SOL    HW173826   7.180   8.109   4.636 -1.0301  2.7821 -0.4936
22993SOL    HW273827   7.246   8.125   4.500  0.2955  0.5587 -0.1690
22994SOL     OW73828   0.387   5.389   5.018 -0.2778  0.4684  0.7529
22994SOL    HW173829   0.353   5.439   4.944 -1.0118  0.4298  1.0543
22994SOL    HW273830   0.436   5.452   5.070  0.6528  0.3946 -0.0080
22995SOL     OW73831   1.777   3.663   6.999  0.3272  0.1319 -0.1435
22995SOL    HW173832   1.818   3.615   7.071  2.0558  0.0747 -1.1060
22995SOL    HW273833   1.810   3.752   7.008 -1.7210  0.8601  0.7796
22996SOL     OW73834   6.465   8.897   9.058 -0.1221  0.1848  0.2472
22996SOL    HW173835   6.526   8.830   9.028 -0.7046 -1.0213  1.6416
22996SOL    HW273836   6.383   8.876   9.014  0.1497  1.1434 -0.7659
22997SOL     OW73837   5.213   1.971   7.938 -0.1419  0.0081 -0.2477
22997SOL    HW173838   5.159   1.951   7.862 -2.5786 -0.3520  1.4615
22997SOL    HW273839   5.197   1.898   7.999  1.4396  0.4590  0.7695
22998SOL     OW73840   5.822   3.803   7.427 -0.3277 -1.0189  0.0470
22998SOL    HW173841   5.825   3.898   7.433 -0.4106 -0.9739 -0.5593
22998SOL    HW273842   5.745   3.778   7.478 -1.8363 -0.5406 -1.8400
22999SOL     OW73843   8.767   9.597   4.920  0.7799  0.7820  0.2509
22999SOL    HW173844   8.768   9.692   4.928 -0.0188  0.6858  2.0438
22999SOL    HW273845   8.693   9.570   4.975 -0.2643 -0.7573 -1.7793
23000SOL     OW73846   7.182   2.713   2.140 -0.4044  0.0893 -0.0774
23000SOL    HW173847   7.230   2.644   2.186  0.0621 -0.6258 -1.5439
23000SOL    HW273848   7.226   2.794   2.164 -0.8941 -0.1174  1.6037
23001SOL     OW73849   7.199   1.777   8.184 -0.4084  0.4509  0.1456
23001SOL    HW173850   7.265   1.717   8.217  0.5198  0.7965 -1.0336
23001SOL    HW273851   7.216   1.859   8.231 -1.0348  0.1061  1.0088
23002SOL     OW73852   4.339   6.507   9.393 -0.0618  0.2257  0.0020
23002SOL    HW173853   4.278   6.495   9.465  1.0927 -0.9618  0.8497
23002SOL    HW273854   4.345   6.420   9.353  1.0756  0.3051 -0.0319
23003SOL     OW73855   3.794   7.134   4.559 -0.4893 -0.0601 -0.0125
23003SOL    HW173856   3.756   7.158   4.644 -0.0173  0.3177  0.0927
23003SOL    HW273857   3.774   7.041   4.549 -0.7471 -0.0497  0.4075
23004SOL     OW73858   5.771   1.402   7.115  0.4379  0.6593  0.0460
23004SOL    HW173859   5.818   1.437   7.191  0.8978  1.2235 -0.4876
23004SOL    HW273860   5.796   1.309   7.113 -1.1503  0.1331  1.7318
23005SOL     OW73861   1.115   6.178   0.335  0.0518 -0.3132  0.1038
23005SOL    HW173862   1.131   6.267   0.307 -1.3540  0.0207  0.2884
23005SOL    HW273863   1.201   6.145   0.362  0.5076  1.1501  0.5237
23006SOL     OW73864   6.739   1.703   3.377  0.4277  0.3380  0.0556
23006SOL    HW173865   6.692   1.689   3.459  1.4057 -0.5244  0.4965
23006SOL    HW273866   6.729   1.796   3.359 -0.0188  0.4896  1.0174
23007SOL     OW73867   8.780   6.193   3.709  0.7573 -0.3887 -1.0296
23007SOL    HW173868   8.778   6.104   3.672 -0.5846 -0.8206  0.0029
23007SOL    HW273869   8.691   6.226   3.696  0.5092 -0.2120  0.9344
23008SOL     OW73870   2.848   6.960   5.128 -0.2115  0.2049 -0.2472
23008SOL    HW173871   2.801   6.878   5.146 -0.4900 -0.0875 -2.1030
23008SOL    HW273872   2.825   7.017   5.202 -0.8880 -1.0096  0.5286
23009SOL     OW73873   8.863   1.117   7.966 -0.1929 -0.0483 -0.3149
23009SOL    HW173874   8.869   1.038   8.020  1.2341 -0.7251 -1.4037
23009SOL    HW273875   8.913   1.183   8.014 -0.9903  0.0794  0.3653
23010SOL     OW73876   2.078   7.242   0.464  0.7493  0.2752  0.1268
23010SOL    HW173877   2.029   7.160   0.473  0.2325  0.4574 -0.9740
23010SOL    HW273878   2.011   7.309   0.452  1.1558  0.9154  1.2310
23011SOL     OW73879   2.400   0.891   9.541 -0.1264  0.0873  0.6358
23011SOL    HW173880   2.416   0.808   9.496 -0.6618  0.5575 -0.4537
23011SOL    HW273881   2.371   0.865   9.628  0.3488 -0.8592  0.5275
23012SOL     OW73882   2.893   2.541   2.362  0.3524  0.5181 -0.8312
23012SOL    HW173883   2.910   2.597   2.286 -2.0690  0.2358 -1.6526
23012SOL    HW273884   2.862   2.459   2.324 -2.7537  0.9948  0.4031
23013SOL     OW73885   8.509   5.514   1.659  0.6199 -0.2736 -1.0332
23013SOL    HW173886   8.557   5.481   1.736  2.3009  0.5566 -1.6710
23013SOL    HW273887   8.419   5.487   1.674  0.9207 -0.2573  1.1738
23014SOL     OW73888   0.385   7.210   3.179  0.0977  0.0362 -0.4579
23014SOL    HW173889   0.355   7.252   3.260  2.7029 -0.8138  1.0525
23014SOL    HW273890   0.325   7.137   3.167  0.6709 -0.8884  1.7703
23015SOL     OW73891   5.286   3.970   0.278 -0.0730 -0.0799  0.1871
23015SOL    HW173892   5.358   4.015   0.235  0.5394  1.9489  3.0463
23015SOL    HW273893   5.300   3.877   0.258  1.1624  0.5655 -2.2901
23016SOL     OW73894   7.443   3.901   7.497 -0.6123 -0.3473 -0.6483
23016SOL    HW173895   7.511   3.968   7.511 -0.2978 -0.3286 -2.1024
23016SOL    HW273896   7.367   3.934   7.545  0.7587 -1.0321  2.1993
23017SOL     OW73897   7.413   8.657   8.712 -1.0136 -0.1165 -0.2645
23017SOL    HW173898   7.491   8.699   8.747 -0.3627 -1.0703 -0.5188
23017SOL    HW273899   7.389   8.708   8.635 -0.5218  0.0651 -0.2944
23018SOL     OW73900   2.234   8.675   1.144  0.3087  0.3103  0.0881
23018SOL    HW173901   2.182   8.688   1.065 -0.7472 -4.3427 -0.2531
23018SOL    HW273902   2.322   8.657   1.111  0.0120 -0.9597 -0.0865
23019SOL     OW73903   9.140   5.868   3.250 -0.1297  0.0178  0.1907
23019SOL    HW173904   9.077   5.937   3.231 -0.7962 -0.0031  2.1137
23019SOL    HW273905   9.126   5.802   3.182 -1.4157  0.5145 -0.0464
23020SOL     OW73906   7.459   7.226   6.067 -0.1258  0.1156  0.1935
23020SOL    HW173907   7.437   7.313   6.098 -2.4335 -1.1661  2.5689
23020SOL    HW273908   7.402   7.212   5.992 -1.0639  0.0446  0.9027
23021SOL     OW73909   3.749   6.222   7.999 -0.5195 -0.1383 -0.9282
23021SOL    HW173910   3.724   6.244   8.089 -2.9168 -0.8898 -1.3371
23021SOL    HW273911   3.818   6.284   7.977  1.2613 -0.9196  1.9359
23022SOL     OW73912   6.327   7.860   2.103 -0.1026  0.1546 -0.1175
23022SOL    HW173913   6.336   7.816   2.187 -0.6716  1.1173  0.4557
23022SOL    HW273914   6.393   7.928   2.104  0.7428 -0.6132 -0.9876
23023SOL     OW73915   2.271   7.923   5.947 -0.3319 -0.4112  0.0975
23023SOL    HW173916   2.206   7.968   5.893  0.0117  1.2264  0.9764
23023SOL    HW273917   2.235   7.835   5.960 -2.1737  0.3266  0.2510
23024SOL     OW73918   7.713   3.029   3.139 -0.7701 -0.1528  0.4295
23024SOL    HW173919   7.744   2.939   3.130 -0.3298 -0.2061  2.0881
23024SOL    HW273920   7.643   3.024   3.203 -0.0949  0.7895  1.2722
23025SOL     OW73921   4.794   7.059   2.522 -0.5399 -0.4496 -0.1508
23025SOL    HW173922   4.777   7.112   2.601  0.8942 -1.8775  1.1988
23025SOL    HW273923   4.849   7.116   2.467  1.3089 -0.5748  1.4468
23026SOL     OW73924   7.706   0.252   1.182  0.6889  0.3923  0.1573
23026SOL    HW173925   7.637   0.259   1.248  0.0506  2.5721 -0.6282
23026SOL    HW273926   7.753   0.335   1.187  0.2757  0.8809 -2.4159
23027SOL     OW73927   3.069   9.512   4.346  0.6388  0.4076 -0.2173
23027SOL    HW173928   3.072   9.557   4.262 -0.5807 -0.6096 -0.8380
23027SOL    HW273929   2.976   9.495   4.361  0.7376  1.3830  1.8058
23028SOL     OW73930   4.517   6.372   4.284  0.3887 -0.1920 -0.0528
23028SOL    HW173931   4.522   6.279   4.309 -0.6476 -0.2355  0.0140
23028SOL    HW273932   4.565   6.376   4.201 -0.9846 -1.1380 -0.9423
23029SOL     OW73933   2.424   8.964   6.909 -0.2053 -0.5933 -0.3730
23029SOL    HW173934   2.496   8.904   6.890  0.1421 -0.0908 -0.6668
23029SOL    HW273935   2.449   9.005   6.992  0.5257  0.5744 -1.1415
23030SOL     OW73936   8.298   7.932   5.353  0.0728  0.2692  0.1221
23030SOL    HW173937   8.251   7.927   5.436  0.0459  0.4250  0.1176
23030SOL    HW273938   8.233   7.907   5.288 -0.6001  2.3627 -0.0870
23031SOL     OW73939   6.830   3.612   6.582 -0.0973 -0.1792 -0.3325
23031SOL    HW173940   6.855   3.704   6.579 -1.8581  0.3455 -0.0119
23031SOL    HW273941   6.858   3.576   6.498  1.4402  0.3837 -0.1035
23032SOL     OW73942   5.544   3.792   9.159 -0.4643 -0.0818 -0.1738
23032SOL    HW173943   5.502   3.878   9.163  1.9074  1.1404 -0.0122
23032SOL    HW273944   5.512   3.754   9.076 -1.0944  1.1990 -0.5417
23033SOL     OW73945   4.678   8.199   3.100 -0.3819  0.5343  0.6767
23033SOL    HW173946   4.745   8.136   3.125 -0.4590  0.8382  1.6726
23033SOL    HW273947   4.606   8.184   3.162 -1.6773 -0.4713 -0.9642
23034SOL     OW73948   5.194   1.996   4.436 -0.0325  0.3381 -0.2754
23034SOL    HW173949   5.214   1.995   4.342  2.9855  2.0640  0.2343
23034SOL    HW273950   5.271   1.957   4.477  1.2049  4.3036  1.6986
23035SOL     OW73951   0.947   4.634   4.900 -0.1348 -0.0999 -0.0359
23035SOL    HW173952   0.898   4.566   4.946  1.6183 -2.5214 -1.4884
23035SOL    HW273953   0.896   4.653   4.821 -1.1668  1.1429  0.8950
23036SOL     OW73954   4.602   5.359   8.278 -0.3879 -0.3545  0.5959
23036SOL    HW173955   4.582   5.283   8.223 -0.6263  0.0416  0.1233
23036SOL    HW273956   4.664   5.411   8.226 -1.3679  0.5230  0.2602
23037SOL     OW73957   3.777   9.662   0.211 -0.0237  0.4347  0.0583
23037SOL    HW173958   3.719   9.642   0.285  0.1475 -0.9934 -0.1732
23037SOL    HW273959   3.721   9.706   0.148 -0.8509 -0.8146 -0.1073
23038SOL     OW73960   1.843   7.266   3.598 -0.7058 -0.1103 -0.9416
23038SOL    HW173961   1.910   7.202   3.621  1.2348  2.2241  0.4086
23038SOL    HW273962   1.783   7.219   3.539  1.1342 -2.7956 -0.8294
23039SOL     OW73963   0.533   6.522   7.216 -0.6804  0.1079 -0.0462
23039SOL    HW173964   0.456   6.578   7.224  0.2651  1.4693 -0.2638
23039SOL    HW273965   0.543   6.506   7.122 -0.9092 -0.3984  0.0093
23040SOL     OW73966   0.471   7.118   6.495  0.0062  0.2534  0.0660
23040SOL    HW173967   0.543   7.105   6.557  0.1489 -0.1740 -0.1842
23040SOL    HW273968   0.505   7.085   6.412 -0.6338 -0.3642  0.0397
23041SOL     OW73969   9.238   7.198   7.082  0.8421 -0.2058  0.2425
23041SOL    HW173970   9.154   7.234   7.110  1.1679  1.1746 -0.4320
23041SOL    HW273971   9.263   7.137   7.152 -0.9673 -1.0801  0.1725
23042SOL     OW73972   7.466   1.686   1.385 -0.2239  0.3102 -0.1724
23042SOL    HW173973   7.375   1.655   1.387 -0.8320  1.9418  2.2749
23042SOL    HW273974   7.467   1.753   1.317 -0.5966 -0.3575 -0.8492
23043SOL     OW73975   8.605   6.037   8.856 -0.4978 -0.5722  0.2448
23043SOL    HW173976   8.514   6.008   8.850 -0.7247  0.4551 -2.2662
23043SOL    HW273977   8.640   6.027   8.768  1.2548  0.8617  0.7187
23044SOL     OW73978   2.620   2.599   6.891 -0.5981  0.2674  0.1593
23044SOL    HW173979   2.687   2.666   6.905 -0.2812 -0.3854  2.0849
23044SOL    HW273980   2.670   2.518   6.881 -1.0470  0.0244 -0.1253
23045SOL     OW73981   8.766   1.849   4.296 -0.4168 -1.0508  0.7864
23045SOL    HW173982   8.773   1.928   4.351 -0.5976 -0.1026 -0.5043
23045SOL    HW273983   8.751   1.778   4.358 -1.9836  0.1624  1.8817
23046SOL     OW73984   6.706   7.064   0.088  0.3736 -0.0294  0.0576
23046SOL    HW173985   6.706   7.031  -0.001 -0.5531 -1.1747  0.4632
23046SOL    HW273986   6.799   7.073   0.110  0.6228  1.0736 -1.2715
23047SOL     OW73987   5.272   6.759   7.976 -0.8445 -0.9697  0.0392
23047SOL    HW173988   5.185   6.790   8.001 -0.7808 -0.3885 -0.4415
23047SOL    HW273989   5.312   6.729   8.058 -1.3518 -0.8786  0.3187
23048SOL     OW73990   2.578   5.109   8.378  0.5419 -0.1447  0.1523
23048SOL    HW173991   2.660   5.059   8.375  0.2158 -0.6417 -0.8282
23048SOL    HW273992   2.517   5.059   8.325 -0.6043 -0.1135  1.3941
23049SOL     OW73993   5.915   0.234   3.491 -0.0786  0.8877  0.0431
23049SOL    HW173994   5.888   0.241   3.399  1.3745  0.2816 -0.4477
23049SOL    HW273995   5.856   0.167   3.528  0.7158 -0.4472 -1.0226
23050SOL     OW73996   2.851   3.767   9.604  0.0828 -0.4152 -0.2157
23050SOL    HW173997   2.763   3.803   9.598  0.4654  1.6799  3.6285
23050SOL    HW273998   2.837   3.673   9.617 -1.4628 -0.3590 -1.1766
23051SOL     OW73999   8.131   0.394   3.199 -0.8674  0.7749 -0.5912
23051SOL    HW174000   8.169   0.369   3.115 -0.5460  0.2806 -0.3008
23051SOL    HW274001   8.132   0.490   3.197  0.2106  0.7826 -0.6844
23052SOL     OW74002   5.779   5.625   7.735 -0.4929 -0.2180 -0.0001
23052SOL    HW174003   5.791   5.533   7.713  0.6032  0.3100 -1.8372
23052SOL    HW274004   5.753   5.666   7.652  1.5596  1.5382  0.1533
23053SOL     OW74005   3.566   5.529   3.313 -0.0264  0.4770 -0.2284
23053SOL    HW174006   3.614   5.585   3.374  0.3555 -0.5627  0.4464
23053SOL    HW274007   3.562   5.580   3.232  2.5723  0.4491 -0.4575
23054SOL     OW74008   1.735   8.051   9.575  0.3025  0.2869  0.0811
23054SOL    HW174009   1.687   8.127   9.607  1.2492  1.4138 -1.0658
23054SOL    HW274010   1.791   8.086   9.505  1.4644 -1.2913  0.1694
23055SOL     OW74011   5.792   6.382   4.172  0.0501  0.0024 -0.8733
23055SOL    HW174012   5.717   6.346   4.219  0.2744  0.1410 -0.4037
23055SOL    HW274013   5.777   6.477   4.170 -0.9562 -0.1455 -2.8298
23056SOL     OW74014   8.942   9.528   9.255  0.1053  0.0421 -0.4816
23056SOL    HW174015   9.032   9.515   9.284 -0.2160  0.7161  0.9061
23056SOL    HW274016   8.924   9.454   9.196  1.9995  0.6470 -1.9212
23057SOL     OW74017   8.503   5.981   7.707  0.3464  0.6166 -0.4549
23057SOL    HW174018   8.469   5.908   7.655 -1.5650  1.0738  0.0881
23057SOL    HW274019   8.544   5.938   7.783  0.7473  0.0700 -0.9611
23058SOL     OW74020   8.290   4.472   0.705 -0.3684 -0.1107  0.2711
23058SOL    HW174021   8.283   4.567   0.694 -0.7652 -0.2325 -0.5406
23058SOL    HW274022   8.222   4.451   0.768  0.1726  0.2272  0.9918
23059SOL     OW74023   1.296   4.060   0.877 -0.5033  0.0923  0.1792
23059SOL    HW174024   1.247   4.100   0.804  0.2932  0.7375 -0.0122
23059SOL    HW274025   1.266   3.969   0.878 -1.0435  0.2480 -0.5078
23060SOL     OW74026   1.831   7.665   8.315  0.5591  0.2902 -0.0297
23060SOL    HW174027   1.839   7.692   8.224  0.8043  0.3574  0.0091
23060SOL    HW274028   1.742   7.690   8.341 -0.7468 -2.6697 -1.1855
23061SOL     OW74029   8.165   3.804   2.625  0.1720  0.3515 -0.5947
23061SOL    HW174030   8.130   3.810   2.536 -0.4802 -0.1792 -0.3858
23061SOL    HW274031   8.193   3.713   2.633 -0.2400  0.2632 -0.0967
23062SOL     OW74032   1.351   9.490   1.999 -0.4902 -0.6059 -0.1340
23062SOL    HW174033   1.388   9.466   1.914  0.3967 -1.4863  0.4749
23062SOL    HW274034   1.427   9.496   2.057 -1.0978 -0.1771  0.6332
23063SOL     OW74035   0.985   0.461   2.394 -0.0928 -0.5974 -0.1738
23063SOL    HW174036   1.024   0.539   2.355 -2.5827  1.4726  1.1305
23063SOL    HW274037   1.050   0.431   2.458  2.1291 -1.4248 -2.6649
23064SOL     OW74038   3.790   5.501   2.422  0.4264 -0.2808  0.9835
23064SOL    HW174039   3.735   5.425   2.403 -0.8156  0.9934 -0.8451
23064SOL    HW274040   3.859   5.497   2.356  0.8053 -0.2233  1.3722
23065SOL     OW74041   6.949   2.381   7.118  0.2339  0.2318 -0.1549
23065SOL    HW174042   6.931   2.359   7.027 -0.1522  0.3069 -0.0977
23065SOL    HW274043   7.011   2.454   7.114 -0.7763  1.1026 -0.3761
23066SOL     OW74044   5.387   8.515   9.042 -0.2754 -0.0234 -0.3907
23066SOL    HW174045   5.412   8.601   9.076 -2.5810  0.3373  0.5598
23066SOL    HW274046   5.294   8.524   9.020 -0.5311 -2.2336 -0.4181
23067SOL     OW74047   0.783   1.369   4.936 -0.2240 -0.2122  0.4476
23067SOL    HW174048   0.789   1.279   4.903 -1.2110  0.0190 -0.4143
23067SOL    HW274049   0.704   1.404   4.895 -0.1483  0.8792  1.2042
23068SOL     OW74050   6.089   3.288   5.930 -0.5021  0.4518 -0.2452
23068SOL    HW174051   6.047   3.355   5.876  0.4031  1.5633  0.3953
23068SOL    HW274052   6.062   3.309   6.020  1.8574  1.5833  0.2668
23069SOL     OW74053   6.928   7.764   2.683 -0.4241  0.6998 -0.0909
23069SOL    HW174054   7.020   7.761   2.659 -0.2606 -0.4265  0.5946
23069SOL    HW274055   6.891   7.684   2.647 -0.9940  0.8458  0.1592
23070SOL     OW74056   7.063   2.998   2.382 -0.0561 -0.2959 -0.1693
23070SOL    HW174057   6.981   2.981   2.429  0.2904 -0.9914  0.2101
23070SOL    HW274058   7.130   2.957   2.437  0.5627  0.3968 -0.4015
23071SOL     OW74059   0.179   3.958   7.401  0.4366 -0.5365  0.1818
23071SOL    HW174060   0.141   3.901   7.468  0.8519 -0.9562  0.0643
23071SOL    HW274061   0.264   3.984   7.437 -0.5564  1.6518  1.1407
23072SOL     OW74062   7.780   0.743   8.260  0.4212  0.0129  0.3909
23072SOL    HW174063   7.767   0.830   8.223 -1.9982 -0.8281 -1.0304
23072SOL    HW274064   7.816   0.691   8.188 -1.3637 -0.8945  0.0827
23073SOL     OW74065   0.881   2.039   3.149  0.9851  0.5969  0.2555
23073SOL    HW174066   0.895   2.117   3.202  0.7883 -0.5428  2.0661
23073SOL    HW274067   0.955   1.982   3.170  0.1985 -0.4263  0.3241
23074SOL     OW74068   3.715   4.038   7.698  0.1743 -0.0134 -0.2653
23074SOL    HW174069   3.630   4.003   7.671 -0.3935  0.2560  1.0956
23074SOL    HW274070   3.706   4.133   7.690  0.5176 -0.0014 -0.5623
23075SOL     OW74071   7.760   5.627   3.257 -0.0633 -0.5029  0.2735
23075SOL    HW174072   7.843   5.627   3.305 -0.0974 -1.3903  0.3396
23075SOL    HW274073   7.785   5.636   3.165  0.0391  0.4201  0.3792
23076SOL     OW74074   0.815   2.353   2.223  0.2590 -0.0518 -0.0483
23076SOL    HW174075   0.855   2.439   2.217  0.7712 -0.1412  1.6143
23076SOL    HW274076   0.774   2.351   2.309 -1.9077 -0.5935 -1.0130
23077SOL     OW74077   4.424   1.670   2.924  1.0454 -0.4322 -0.0760
23077SOL    HW174078   4.480   1.592   2.926  1.1117 -0.3960 -0.3538
23077SOL    HW274079   4.380   1.671   3.009  0.3509 -1.2766 -0.4071
23078SOL     OW74080   9.314   8.829   0.845 -0.0761 -0.5502  0.3335
23078SOL    HW174081   9.341   8.803   0.757 -2.0654  0.3769 -0.6280
23078SOL    HW274082   9.286   8.920   0.835  0.4341 -0.1650  2.1316
23079SOL     OW74083   6.091   8.987   3.254  0.5144  0.1781  0.1619
23079SOL    HW174084   6.186   8.993   3.242  0.7725 -2.6975  0.1308
23079SOL    HW274085   6.078   8.907   3.306 -1.8409  1.1722  1.2701
23080SOL     OW74086   7.294   3.154   8.461 -0.0444  0.0607  0.8195
23080SOL    HW174087   7.247   3.148   8.378 -1.0104 -0.6002  1.3837
23080SOL    HW274088   7.386   3.143   8.438 -0.2196  0.6644 -0.2426
23081SOL     OW74089   1.140   2.441   0.810  0.0636  0.0205 -0.1203
23081SOL    HW174090   1.122   2.398   0.726 -1.1746  0.3473 -0.0507
23081SOL    HW274091   1.073   2.509   0.816  0.9740  0.8720  0.5286
23082SOL     OW74092   2.313   0.385   7.045 -0.2245  0.1437 -0.3069
23082SOL    HW174093   2.238   0.387   6.985 -0.3210  2.4709 -0.1747
23082SOL    HW274094   2.293   0.312   7.105 -2.0037  0.2130 -0.7612
23083SOL     OW74095   1.741   4.451   3.647 -0.2267 -0.2340 -0.7836
23083SOL    HW174096   1.787   4.479   3.726  1.5299  1.8866 -2.4223
23083SOL    HW274097   1.762   4.358   3.638  0.3314 -0.2787  0.7095
23084SOL     OW74098   2.438   3.113   6.683 -0.4636  0.1498 -0.0445
23084SOL    HW174099   2.470   3.028   6.653  0.2428  0.7456 -1.0595
23084SOL    HW274100   2.360   3.093   6.735 -0.1268 -1.1287  0.0060
23085SOL     OW74101   9.468   6.701   9.091  0.0037 -0.2764  0.1092
23085SOL    HW174102   9.531   6.733   9.027 -1.1750  0.6771 -0.6141
23085SOL    HW274103   9.468   6.606   9.081  2.1038 -0.4075  0.9001
23086SOL     OW74104   0.448   3.066   6.067  0.6447 -0.4758 -0.1494
23086SOL    HW174105   0.419   3.134   6.127  2.0114  1.3566 -1.4367
23086SOL    HW274106   0.444   2.985   6.119 -0.5854  0.6209  1.5871
23087SOL     OW74107   3.459   9.411   8.335  0.1740  0.0973 -0.1289
23087SOL    HW174108   3.419   9.494   8.310 -1.0444 -0.0223  1.2859
23087SOL    HW274109   3.415   9.346   8.282  1.8578  0.4041 -2.0072
23088SOL     OW74110   7.144   7.625   2.095 -0.2487  0.2223  0.2602
23088SOL    HW174111   7.202   7.647   2.022 -0.5332 -0.2329 -0.1079
23088SOL    HW274112   7.061   7.601   2.054 -0.3401 -0.2774  0.7167
23089SOL     OW74113   0.021   9.585   6.042 -0.5682 -0.6425  0.3974
23089SOL    HW174114   0.064   9.594   5.956 -0.9297  0.0427  0.2874
23089SOL    HW274115   0.094   9.574   6.103 -0.1871  0.8869  0.2586
23090SOL     OW74116   1.066   3.007   4.436 -0.2935  0.0048 -0.1256
23090SOL    HW174117   1.124   2.975   4.367  1.4731 -0.0623  1.3015
23090SOL    HW274118   0.990   3.042   4.390 -0.1741 -1.9767 -1.9698
23091SOL     OW74119   7.173   7.756   4.825  0.0856 -0.2534 -0.6009
23091SOL    HW174120   7.143   7.840   4.791  0.0551 -0.2240 -0.5006
23091SOL    HW274121   7.111   7.692   4.788 -1.5513  0.0468  1.4821
23092SOL     OW74122   0.641   9.249   1.519 -0.2302 -0.3481 -0.1090
23092SOL    HW174123   0.596   9.175   1.480  0.7757  0.0718 -2.1890
23092SOL    HW274124   0.573   9.296   1.567 -1.0161 -2.1906  0.6728
23093SOL     OW74125   5.277   8.865   0.754  0.0976  0.5252  0.1445
23093SOL    HW174126   5.220   8.939   0.775  0.5706  0.3873  2.1147
23093SOL    HW274127   5.365   8.898   0.774  0.4124 -0.2245 -0.0051
23094SOL     OW74128   1.225   9.443   6.781 -0.2049  0.2316 -0.1767
23094SOL    HW174129   1.145   9.449   6.729  1.0240 -0.8114 -2.3409
23094SOL    HW274130   1.260   9.532   6.780 -0.4036  0.3123 -0.8655
23095SOL     OW74131   3.044   4.717   6.264  0.2012 -0.1390 -0.6242
23095SOL    HW174132   2.952   4.729   6.285  0.5290  1.3447  0.1107
23095SOL    HW274133   3.091   4.746   6.343  1.3125  0.1370 -1.3508
23096SOL     OW74134   9.398   5.375   8.520  0.0975 -0.3464  0.4390
23096SOL    HW174135   9.392   5.291   8.475  1.0850  0.2532 -0.8596
23096SOL    HW274136   9.368   5.356   8.609 -0.9772 -1.7642 -0.1805
23097SOL     OW74137   1.676   3.788   8.086 -0.3540  0.0047 -0.0535
23097SOL    HW174138   1.764   3.750   8.081  0.3060  1.3329  0.9176
23097SOL    HW274139   1.623   3.719   8.127  0.5246 -0.3363  0.5400
23098SOL     OW74140   3.710   9.503   8.346 -0.3170 -0.2414  0.3304
23098SOL    HW174141   3.614   9.504   8.349 -0.2799  0.6937  2.1344
23098SOL    HW274142   3.731   9.420   8.302 -1.9452  0.4033 -1.8817
23099SOL     OW74143   3.320   1.681   0.221  0.0063 -0.4187 -0.2532
23099SOL    HW174144   3.246   1.739   0.208 -1.1531 -2.1666 -1.9283
23099SOL    HW274145   3.347   1.698   0.312 -1.5371  1.2392 -0.0337
23100SOL     OW74146   7.793   4.111   9.490  0.4051 -0.5485 -0.0429
23100SOL    HW174147   7.844   4.192   9.493  0.8942 -0.8739  1.2650
23100SOL    HW274148   7.818   4.070   9.408  1.5632 -0.2464  0.1390
23101SOL     OW74149   9.434   3.467   3.393  0.2376  0.0520 -0.3117
23101SOL    HW174150   9.450   3.374   3.377  0.2203 -0.0355  0.1576
23101SOL    HW274151   9.345   3.470   3.429 -0.2263  0.3785 -1.4511
23102SOL     OW74152   6.215   6.106   3.038  0.2625  0.2427 -0.5624
23102SOL    HW174153   6.250   6.017   3.028  0.3253  0.3559 -1.4891
23102SOL    HW274154   6.130   6.102   2.994 -0.3778  0.2791  0.6347
23103SOL     OW74155   8.145   0.035   3.973  0.0866 -0.4276  0.9507
23103SOL    HW174156   8.210  -0.018   3.928 -0.5745  0.4634 -1.1895
23103SOL    HW274157   8.134   0.112   3.917 -0.2595  1.1421  3.0502
23104SOL     OW74158   6.341   2.670   6.734  0.1561  0.1479  0.1496
23104SOL    HW174159   6.339   2.577   6.715  1.3819  0.1315 -0.0106
23104SOL    HW274160   6.271   2.708   6.681  1.7306 -0.2588 -2.3530
23105SOL     OW74161   7.783   7.809   6.617  0.8622  0.3507  0.4039
23105SOL    HW174162   7.757   7.745   6.551 -2.3637  0.7664  1.0982
23105SOL    HW274163   7.855   7.766   6.665  0.2403 -1.8501 -0.5088
23106SOL     OW74164   1.023   8.039   9.687 -0.6007  0.4772  0.2969
23106SOL    HW174165   1.096   7.979   9.672 -1.9580 -0.6643 -2.4300
23106SOL    HW274166   1.018   8.091   9.607 -2.5362  0.7563  0.5561
23107SOL     OW74167   8.877   1.482   2.422 -0.3319 -0.4707  0.0690
23107SOL    HW174168   8.856   1.568   2.386 -0.9704 -1.3264 -1.6969
23107SOL    HW274169   8.973   1.477   2.417 -0.4106 -0.7678 -2.1319
23108SOL     OW74170   2.550   5.746   3.793 -0.0622  0.0288 -0.2451
23108SOL    HW174171   2.475   5.782   3.745 -1.6441  0.3231  2.2209
23108SOL    HW274172   2.601   5.823   3.819 -1.0879  0.2163  1.3569
23109SOL     OW74173   9.141   3.737   7.331 -0.2293 -0.5641 -0.1831
23109SOL    HW174174   9.079   3.753   7.402  0.2583 -0.5895  0.2611
23109SOL    HW274175   9.145   3.642   7.323 -1.9677 -0.5557 -1.7801
23110SOL     OW74176   9.538   3.735   8.282 -0.4591 -0.4403  0.3898
23110SOL    HW174177   9.467   3.780   8.236  0.2189 -0.1520 -0.3934
23110SOL    HW274178   9.593   3.806   8.316 -0.4076 -0.6660  0.7827
23111SOL     OW74179   5.074   1.163   8.362  0.0217  0.3790  0.4087
23111SOL    HW174180   5.048   1.072   8.347  2.0211 -0.1971  0.1289
23111SOL    HW274181   5.133   1.183   8.290 -0.4656  1.9604  0.4150
23112SOL     OW74182   8.827   3.049   9.196 -0.2793  0.2841  0.4605
23112SOL    HW174183   8.899   2.991   9.223 -1.2561 -0.2532  2.0195
23112SOL    HW274184   8.830   3.121   9.260 -1.3263  0.0805  0.7446
23113SOL     OW74185   8.470   0.109   3.019  0.2798 -0.1786 -0.5720
23113SOL    HW174186   8.500   0.194   3.053 -0.0058 -0.7918  1.3410
23113SOL    HW274187   8.550   0.060   3.000  0.5107 -0.5055  1.0930
23114SOL     OW74188   3.443   8.354   2.813 -0.0770 -0.1962 -0.3954
23114SOL    HW174189   3.462   8.363   2.906 -0.7865 -1.1497 -0.1505
23114SOL    HW274190   3.527   8.331   2.774  1.3138  4.3165 -0.7083
23115SOL     OW74191   0.553   0.140   9.284  0.6584  0.0582  0.5562
23115SOL    HW174192   0.494   0.119   9.356  0.2140  0.1481  0.2241
23115SOL    HW274193   0.523   0.085   9.211 -0.0740  1.2896 -0.1105
23116SOL     OW74194   8.172   2.644   0.987  0.1388 -0.3197  0.2475
23116SOL    HW174195   8.104   2.630   1.052 -1.0574  0.8101 -0.6947
23116SOL    HW274196   8.198   2.556   0.960 -1.5123 -0.7845  0.0858
23117SOL     OW74197   3.894   2.251   5.008  0.5555  0.8912  0.2332
23117SOL    HW174198   3.899   2.220   5.099 -2.6989  1.5335  0.7345
23117SOL    HW274199   3.854   2.178   4.960  1.9190  0.6953 -0.6732
23118SOL     OW74200   7.645   7.017   9.246 -0.5908 -0.1214  0.5476
23118SOL    HW174201   7.699   7.087   9.282 -0.3360 -0.5455  1.0210
23118SOL    HW274202   7.555   7.048   9.258 -0.4825  0.1129  0.7854
23119SOL     OW74203   2.807   3.881   8.430 -0.0614  0.0813 -0.4511
23119SOL    HW174204   2.887   3.828   8.432 -0.2858 -0.2449 -0.1529
23119SOL    HW274205   2.777   3.875   8.339  0.8653  1.1310 -0.8511
23120SOL     OW74206   6.552   3.713   3.789  0.0505  0.0648 -0.1138
23120SOL    HW174207   6.506   3.662   3.722 -0.4469  0.3521  0.0008
23120SOL    HW274208   6.567   3.799   3.749 -0.1915  0.2169  0.1187
23121SOL     OW74209   9.131   9.168   2.975  0.0376  0.1145  0.0400
23121SOL    HW174210   9.194   9.108   2.935 -0.2003  0.5511 -1.0220
23121SOL    HW274211   9.162   9.255   2.950 -0.0129  0.4137  0.9875
23122SOL     OW74212   2.927   7.388   5.927 -0.4855  0.5423 -0.2944
23122SOL    HW174213   2.964   7.396   6.015 -0.1976  2.5230 -0.5481
23122SOL    HW274214   2.861   7.319   5.935 -2.0067  2.1431  2.0539
23123SOL     OW74215   6.845   9.645   5.309  0.3916  0.1416 -0.3638
23123SOL    HW174216   6.757   9.667   5.340  0.5049 -0.8461  0.7183
23123SOL    HW274217   6.853   9.692   5.226 -0.7931  1.0222 -0.0162
23124SOL     OW74218   1.795   5.217   7.018 -0.3050  0.2965  0.0608
23124SOL    HW174219   1.883   5.231   6.984 -0.7108  1.3207 -0.6567
23124SOL    HW274220   1.767   5.134   6.979 -0.0437  0.4958 -0.5627
23125SOL     OW74221   6.995   0.355   8.385 -0.0536 -0.1410 -0.1194
23125SOL    HW174222   7.064   0.392   8.440  0.3496 -0.5877 -0.3194
23125SOL    HW274223   7.004   0.401   8.302  1.4661 -1.7348 -0.9032
23126SOL     OW74224   3.593   4.845   1.450  0.3236 -1.0566 -0.5059
23126SOL    HW174225   3.623   4.758   1.479  0.3126 -0.8947 -0.0005
23126SOL    HW274226   3.673   4.890   1.424  0.3754 -1.0688 -0.3678
23127SOL     OW74227   4.231   3.638   6.656 -0.0589 -0.1650 -0.2177
23127SOL    HW174228   4.243   3.681   6.572  1.7914 -1.7722 -0.8582
23127SOL    HW274229   4.166   3.570   6.639  0.6440 -0.7848 -0.5136
23128SOL     OW74230   7.710   4.385   0.914 -0.1121  0.1347 -0.4980
23128SOL    HW174231   7.762   4.324   0.967  0.0098  0.0278 -0.7437
23128SOL    HW274232   7.755   4.469   0.921 -1.2664  0.6674  1.3586
23129SOL     OW74233   1.128   0.297   8.097  0.8177  0.1270  0.0972
23129SOL    HW174234   1.100   0.328   8.183 -0.7624 -2.9900  0.8157
23129SOL    HW274235   1.127   0.202   8.103 -0.2965 -0.2709 -3.6771
23130SOL     OW74236   1.839   4.416   2.792 -0.4194  0.2669  0.6673
23130SOL    HW174237   1.869   4.414   2.883 -0.8068  0.7607  0.8073
23130SOL    HW274238   1.819   4.507   2.775  0.2164  0.2742 -0.1116
23131SOL     OW74239   7.943   1.098   2.701  0.4873 -0.1710 -0.0029
23131SOL    HW174240   7.856   1.135   2.716  0.0879 -1.3017  0.6446
23131SOL    HW274241   8.003   1.159   2.744  0.3610  2.1891 -2.8991
23132SOL     OW74242   0.813   6.988   9.292  0.4855  0.9862  0.9937
23132SOL    HW174243   0.754   7.038   9.235  0.8461  0.7218  0.3728
23132SOL    HW274244   0.756   6.934   9.345  0.1623  0.7817  0.4433
23133SOL     OW74245   1.192   5.950   8.420  0.1969 -0.4528 -0.1469
23133SOL    HW174246   1.191   5.881   8.354 -1.0298  0.2494 -0.9026
23133SOL    HW274247   1.261   5.923   8.481  0.4426 -1.8113 -0.9644
23134SOL     OW74248   4.734   4.662   4.438 -0.5942  0.5080  0.0726
23134SOL    HW174249   4.647   4.682   4.405  0.4354  0.7449 -2.8351
23134SOL    HW274250   4.751   4.730   4.504 -1.5159  2.2800 -1.4118
23135SOL     OW74251   5.849   7.663   8.889 -0.1296 -0.4069 -0.2272
23135SOL    HW174252   5.883   7.599   8.827 -1.3688 -0.3245 -1.0246
23135SOL    HW274253   5.775   7.620   8.931 -1.3011  0.6405 -1.1392
23136SOL     OW74254   3.592   4.619   3.843 -0.6877 -0.0902 -0.2233
23136SOL    HW174255   3.528   4.668   3.792  0.7099  1.1109 -0.9037
23136SOL    HW274256   3.609   4.673   3.920  0.6562  0.4188 -0.8400
23137SOL     OW74257   0.409   4.665   8.111 -0.3671  0.3080  0.0804
23137SOL    HW174258   0.448   4.715   8.039 -0.1184  1.1752  0.8040
23137SOL    HW274259   0.346   4.725   8.151 -0.1913 -0.0229  0.8646
23138SOL     OW74260   7.527   0.546   3.819  0.4738 -0.5903 -0.3170
23138SOL    HW174261   7.484   0.631   3.813  0.4766 -0.5543  0.1963
23138SOL    HW274262   7.480   0.499   3.887  0.2465 -1.1379 -0.8397
23139SOL     OW74263   8.737   2.419   4.001 -0.4381  0.2897 -0.2486
23139SOL    HW174264   8.776   2.417   3.913 -0.3988  0.1968 -0.2284
23139SOL    HW274265   8.735   2.328   4.029  1.2575  0.4766  0.6066
23140SOL     OW74266   8.223   7.458   9.209  1.3040 -0.2171  0.0683
23140SOL    HW174267   8.162   7.526   9.182  0.6269 -0.1067  1.7525
23140SOL    HW274268   8.301   7.473   9.155  0.4379  0.6288 -0.9959
23141SOL     OW74269   4.529   3.721   2.178 -0.1980  0.5568  0.7054
23141SOL    HW174270   4.475   3.642   2.177 -2.3071  1.8847 -1.4767
23141SOL    HW274271   4.590   3.707   2.250 -2.3382 -1.7976  2.2518
23142SOL     OW74272   6.893   3.515   2.410 -1.1034  0.2291  0.2513
23142SOL    HW174273   6.897   3.543   2.501 -5.3990 -0.0932  0.7389
23142SOL    HW274274   6.875   3.421   2.414 -2.0402  0.3316 -0.8286
23143SOL     OW74275   1.132   6.119   1.988  0.3646 -0.1547  0.0283
23143SOL    HW174276   1.051   6.169   1.996 -0.4058 -1.5033  1.3210
23143SOL    HW274277   1.198   6.183   1.960 -0.8894  1.2109  0.0747
23144SOL     OW74278   2.594   6.657   6.306 -0.2177 -0.0140 -0.0056
23144SOL    HW174279   2.581   6.720   6.236  0.1781  0.1959  0.1040
23144SOL    HW274280   2.686   6.667   6.330  0.6607 -2.5657 -1.8792
23145SOL     OW74281   0.046   6.364   2.375  0.0495  0.0574  0.2122
23145SOL    HW174282   0.067   6.274   2.348 -1.2391 -0.0339 -0.6323
23145SOL    HW274283   0.130   6.406   2.389  0.7304 -0.7771 -1.1663
23146SOL     OW74284   7.214   9.290   4.677 -0.4123 -0.1309 -0.1218
23146SOL    HW174285   7.225   9.265   4.769  0.0115  0.3335 -0.0450
23146SOL    HW274286   7.177   9.378   4.680  0.1637  0.1267 -0.3937
23147SOL     OW74287   7.736   2.472   0.813 -0.1090  0.1612 -0.2059
23147SOL    HW174288   7.771   2.561   0.821  1.3921 -0.3179 -0.9822
23147SOL    HW274289   7.800   2.427   0.758 -0.6687 -1.4945  0.4485
23148SOL     OW74290   4.864   9.237   5.299 -0.6006 -0.0227 -0.1566
23148SOL    HW174291   4.842   9.259   5.390  1.5551 -1.2095  0.7461
23148SOL    HW274292   4.782   9.209   5.260 -1.2518 -1.5148  2.0768
23149SOL     OW74293   9.303   4.690   8.042 -0.3476 -0.7866  0.1365
23149SOL    HW174294   9.274   4.779   8.062 -1.7336 -0.7588 -1.7081
23149SOL    HW274295   9.230   4.634   8.071 -0.1684 -1.1776 -0.1606
23150SOL     OW74296   7.755   2.365   5.679  0.0774 -0.1563  0.3208
23150SOL    HW174297   7.809   2.410   5.614 -1.9122  2.9606  0.6184
23150SOL    HW274298   7.708   2.298   5.628  2.9756 -2.0004 -0.1732
23151SOL     OW74299   3.969   8.831   1.061 -0.4021 -0.2564  0.1037
23151SOL    HW174300   4.046   8.827   1.003  0.9195  0.5922  1.7122
23151SOL    HW274301   3.922   8.909   1.032 -0.5641 -0.6672 -0.7668
23152SOL     OW74302   3.739   4.285   9.059 -0.2940 -0.1207 -0.1584
23152SOL    HW174303   3.697   4.250   8.980  0.8618 -0.9728 -0.4157
23152SOL    HW274304   3.714   4.223   9.128 -2.6427  1.4682  0.5691
23153SOL     OW74305   3.629   1.771   1.433  0.1468  0.0788 -0.8671
23153SOL    HW174306   3.683   1.698   1.404  0.2003 -0.7461  1.0983
23153SOL    HW274307   3.550   1.730   1.468  0.2498  0.9249  0.4389
23154SOL     OW74308   7.324   9.644   7.677  0.0997 -0.2970 -0.2013
23154SOL    HW174309   7.407   9.643   7.725  2.0228 -1.6122 -3.2868
23154SOL    HW274310   7.294   9.553   7.680 -1.5545  0.2306  1.2192
23155SOL     OW74311   3.954   3.757   3.813  0.2932  0.1596 -0.0531
23155SOL    HW174312   3.931   3.850   3.809 -1.0707 -0.2065 -2.0546
23155SOL    HW274313   4.047   3.755   3.788  0.3968  1.0105  0.2452
23156SOL     OW74314   5.039   1.532   4.120  0.4532  0.3713 -0.3331
23156SOL    HW174315   4.978   1.552   4.191  1.3445  1.1025  0.2622
23156SOL    HW274316   4.984   1.523   4.042 -0.4363  0.6252  0.2496
23157SOL     OW74317   5.211   8.856   8.564 -0.1343 -0.5501 -0.3898
23157SOL    HW174318   5.187   8.825   8.477  1.0094  2.7426 -2.0382
23157SOL    HW274319   5.236   8.776   8.612 -2.5294 -2.6722 -2.4083
23158SOL     OW74320   9.208   9.281   5.176 -0.5097 -0.8927  0.2100
23158SOL    HW174321   9.219   9.274   5.271  0.8551  0.3885  0.1769
23158SOL    HW274322   9.283   9.234   5.140 -0.3085 -0.2382 -0.2188
23159SOL     OW74323   6.285   2.378   0.828  0.2156  0.4614  0.3369
23159SOL    HW174324   6.250   2.460   0.864  0.9868  1.9091 -1.9981
23159SOL    HW274325   6.270   2.385   0.734 -2.2553 -3.3937  0.2485
23160SOL     OW74326   6.593   6.572   0.916  0.0558  0.2353 -0.1877
23160SOL    HW174327   6.580   6.664   0.939  0.5052  0.4552 -0.7996
23160SOL    HW274328   6.538   6.524   0.979 -0.6206  0.9407 -0.2213
23161SOL     OW74329   0.614   5.763   0.531 -0.5872  0.5095 -0.3279
23161SOL    HW174330   0.678   5.716   0.584  0.0834  0.2477 -1.3361
23161SOL    HW274331   0.665   5.801   0.460 -1.7263 -0.9419 -2.0049
23162SOL     OW74332   1.065   2.677   0.517 -0.7268 -0.7598 -0.1409
23162SOL    HW174333   0.987   2.680   0.572 -0.8204  0.6562 -0.3019
23162SOL    HW274334   1.071   2.765   0.479 -0.0611 -1.3788 -1.5518
23163SOL     OW74335   7.214   8.916   0.019 -0.7160  0.3207  0.1285
23163SOL    HW174336   7.260   8.832   0.016 -0.8623  0.2587 -1.4642
23163SOL    HW274337   7.130   8.895   0.060 -1.2305 -0.6143 -1.2951
23164SOL     OW74338   6.710   7.761   0.509  0.3575 -0.2022  0.0671
23164SOL    HW174339   6.706   7.710   0.590  0.4884 -0.2202  0.0611
23164SOL    HW274340   6.638   7.825   0.517  0.2568 -0.3217  0.1177
23165SOL     OW74341   3.831   5.203   1.066  0.1463  0.0573 -0.1222
23165SOL    HW174342   3.881   5.193   1.148  1.7933 -1.0279 -1.1836
23165SOL    HW274343   3.898   5.203   0.998 -1.2640 -0.1075 -1.5557
23166SOL     OW74344   7.114   3.631   5.851 -0.2175 -0.2171  0.2523
23166SOL    HW174345   7.122   3.535   5.846 -1.0265 -0.3436  1.1538
23166SOL    HW274346   7.037   3.651   5.799  1.2328  0.2212 -1.8929
23167SOL     OW74347   9.753   2.549   1.950  0.4182  0.2765 -0.2376
23167SOL    HW174348   9.696   2.473   1.950 -0.8914  1.2187  0.1035
23167SOL    HW274349   9.694   2.624   1.941  1.5376  1.3283  0.6728
23168SOL     OW74350   0.993   6.693   2.750  0.0687  0.2519 -0.8069
23168SOL    HW174351   1.058   6.628   2.777  0.1889  0.0418 -1.5985
23168SOL    HW274352   1.011   6.769   2.806 -0.3817 -0.5419  0.4595
23169SOL     OW74353   1.722   7.187   3.344  0.4821  0.1075  0.6059
23169SOL    HW174354   1.653   7.123   3.327  0.5274  0.0450  0.6532
23169SOL    HW274355   1.678   7.272   3.338  0.6865  0.1371 -0.7470
23170SOL     OW74356   9.533   0.301   3.445 -0.9048  0.4084  0.1307
23170SOL    HW174357   9.627   0.316   3.449 -0.7414 -0.6447  0.5597
23170SOL    HW274358   9.508   0.277   3.534 -2.0661  3.1711  0.6641
23171SOL     OW74359   9.350   2.773   0.530  0.8261  0.8204  0.5479
23171SOL    HW174360   9.445   2.777   0.543  1.2154 -1.3519 -1.1614
23171SOL    HW274361   9.318   2.722   0.605  1.4340 -0.9851 -0.3748
23172SOL     OW74362   2.199   3.053   3.095  0.4363  0.2325 -0.3283
23172SOL    HW174363   2.139   3.055   3.169  1.3871 -1.5816  0.5543
23172SOL    HW274364   2.200   3.143   3.062 -0.3903  0.9694  1.5432
23173SOL     OW74365   1.923   9.507   7.549  0.2019  0.4533  0.5014
23173SOL    HW174366   1.863   9.507   7.624  1.0783 -1.0817  1.2529
23173SOL    HW274367   1.972   9.425   7.558  1.4194  0.9930 -0.8947
23174SOL     OW74368   6.767   5.506   9.707 -0.4118 -0.1209  0.2370
23174SOL    HW174369   6.831   5.435   9.712  0.1860  0.3241 -0.7879
23174SOL    HW274370   6.757   5.537   9.797  1.4948  0.3775  0.3040
23175SOL     OW74371   3.315   0.460   9.193 -0.2528  0.1798 -0.2057
23175SOL    HW174372   3.354   0.469   9.280  1.0203  0.3384 -0.7690
23175SOL    HW274373   3.276   0.546   9.176 -0.7099  0.0771  0.2963
23176SOL     OW74374   3.829   7.980   4.472  0.0464  0.4128  0.0140
23176SOL    HW174375   3.842   8.049   4.538  1.9557 -1.0798  1.2882
23176SOL    HW274376   3.822   7.899   4.522  4.0425 -1.1623 -1.5124
23177SOL     OW74377   5.441   1.780   6.767 -0.5642  0.1205 -0.4732
23177SOL    HW174378   5.504   1.728   6.816  0.3894  0.9715 -0.7471
23177SOL    HW274379   5.423   1.729   6.689  0.4635  0.2380 -0.8051
23178SOL     OW74380   7.536   0.497   2.561  0.2769  0.2570  0.5719
23178SOL    HW174381   7.597   0.500   2.488  2.4793  0.7005  2.3434
23178SOL    HW274382   7.507   0.588   2.572  0.5467  0.3255  0.7245
23179SOL     OW74383   3.952   9.231   3.591 -0.1869 -0.4597 -0.4018
23179SOL    HW174384   4.023   9.192   3.539 -0.3230 -1.7867  0.3693
23179SOL    HW274385   3.872   9.194   3.554 -0.4862  0.8132 -1.0822
23180SOL     OW74386   7.647   4.636   7.898  0.0570  0.2176  0.0363
23180SOL    HW174387   7.563   4.590   7.893  0.7298 -1.2361  1.3434
23180SOL    HW274388   7.630   4.709   7.959 -0.0669 -0.5825  0.9896
23181SOL     OW74389   2.177   7.416   2.300 -0.7561 -0.2280 -0.2131
23181SOL    HW174390   2.200   7.343   2.358 -4.1606 -0.8616  0.4982
23181SOL    HW274391   2.127   7.476   2.354 -1.4102  0.6899 -1.7585
23182SOL     OW74392   8.109   2.105   5.577  0.2705 -0.7132  0.1933
23182SOL    HW174393   8.177   2.038   5.572  2.1368  1.1451 -0.8547
23182SOL    HW274394   8.130   2.154   5.656  1.3091  0.9689 -1.0681
23183SOL     OW74395   9.578   1.976   1.808  0.2449 -0.1208  0.1638
23183SOL    HW174396   9.563   2.040   1.878 -0.4277  1.1015 -1.0233
23183SOL    HW274397   9.491   1.963   1.769  0.2868 -2.1745  0.6823
23184SOL     OW74398   7.042   3.233   9.219  0.1509  0.7441  0.2841
23184SOL    HW174399   7.011   3.163   9.162 -0.2265  0.3881  0.9183
23184SOL    HW274400   7.133   3.247   9.192  0.7163 -1.0171  1.1183
23185SOL     OW74401   0.272   9.313   4.801 -0.3200 -0.1830 -0.4819
23185SOL    HW174402   0.304   9.348   4.718 -0.9992 -1.6450 -1.4040
23185SOL    HW274403   0.324   9.234   4.815 -1.9860 -1.4065 -0.9096
23186SOL     OW74404   0.364   1.989   9.220 -0.4276 -0.3502 -0.0877
23186SOL    HW174405   0.282   2.023   9.257 -0.6418 -0.9723  0.0210
23186SOL    HW274406   0.345   1.897   9.201 -0.1610 -0.1773 -1.2830
23187SOL     OW74407   3.895   6.906   5.244 -0.3792 -0.0975  0.1225
23187SOL    HW174408   3.960   6.876   5.181 -0.2239 -2.6498  1.3512
23187SOL    HW274409   3.860   6.987   5.207  0.6021 -0.7998 -2.5529
23188SOL     OW74410   7.377   5.134   4.989  0.2074 -0.2827 -0.1291
23188SOL    HW174411   7.347   5.225   4.984 -0.0828 -0.4011 -0.6111
23188SOL    HW274412   7.443   5.134   5.059  1.4572  0.6579 -1.2411
23189SOL     OW74413   2.341   0.119   0.063  0.0403 -0.0982  0.5357
23189SOL    HW174414   2.365   0.198   0.112  2.4469 -0.6676  0.4231
23189SOL    HW274415   2.297   0.152  -0.016  1.9571  1.2811 -0.0459
23190SOL     OW74416   5.460   6.747   5.514 -0.3625  0.6661  0.2734
23190SOL    HW174417   5.366   6.763   5.525 -0.1682  1.9598  0.1704
23190SOL    HW274418   5.486   6.804   5.442  0.4450  0.0444  0.0602
23191SOL     OW74419   7.881   3.696   0.198 -0.3821 -0.3627 -0.2747
23191SOL    HW174420   7.935   3.696   0.277 -0.2332 -0.1051 -0.3730
23191SOL    HW274421   7.861   3.604   0.182 -0.4896 -0.4060  0.1136
23192SOL     OW74422   1.838   1.742   8.177  0.4029  0.4325  0.2296
23192SOL    HW174423   1.826   1.687   8.254  0.3339  0.6200  0.3527
23192SOL    HW274424   1.796   1.693   8.106  0.6201  0.1776  0.2734
23193SOL     OW74425   1.256   3.813   8.608  0.4316 -0.3720 -0.3670
23193SOL    HW174426   1.216   3.742   8.559  2.0567 -0.1682 -2.0862
23193SOL    HW274427   1.330   3.841   8.554  1.3360  0.9529  1.4611
23194SOL     OW74428   4.663   7.651   2.222  0.1677 -0.3512  0.1335
23194SOL    HW174429   4.712   7.722   2.263 -0.6431 -0.0991  0.6833
23194SOL    HW274430   4.574   7.661   2.255 -0.3853 -0.4975 -1.2357
23195SOL     OW74431   9.298   3.704   2.848  0.2226  0.0759 -0.1688
23195SOL    HW174432   9.233   3.644   2.885  0.7554  0.3657  1.3077
23195SOL    HW274433   9.382   3.668   2.874  0.5762  0.9599 -0.0536
23196SOL     OW74434   2.818   1.706   4.927  0.3163  0.5759 -0.4486
23196SOL    HW174435   2.818   1.771   4.857 -0.1442  0.6735 -0.3641
23196SOL    HW274436   2.890   1.647   4.905  0.8008  1.1690 -0.4657
23197SOL     OW74437   5.255   8.693   4.440 -0.6679 -0.3044 -0.2239
23197SOL    HW174438   5.251   8.598   4.426 -0.4344 -0.1779 -1.2021
23197SOL    HW274439   5.206   8.730   4.367  0.4820  0.3898 -0.6651
23198SOL     OW74440   9.235   0.606   1.235  0.1617 -0.0435  0.0144
23198SOL    HW174441   9.308   0.584   1.177  1.0179  1.4446  0.4869
23198SOL    HW274442   9.161   0.620   1.175  0.5112 -0.5302 -0.5443
23199SOL     OW74443   4.349   5.780   3.561  0.3049 -0.1938 -0.1726
23199SOL    HW174444   4.392   5.791   3.645  1.3254 -0.4282 -0.6538
23199SOL    HW274445   4.378   5.694   3.530 -1.9155 -1.1875  0.2921
23200SOL     OW74446   7.161   5.040   5.166  0.0011 -0.0904  0.1214
23200SOL    HW174447   7.211   5.051   5.086  1.1639 -0.3526  0.7885
23200SOL    HW274448   7.145   4.945   5.172 -0.7775  0.0097 -0.1903
23201SOL     OW74449   3.305   6.604   1.554  0.5623  0.0461  0.5838
23201SOL    HW174450   3.385   6.552   1.555  1.0800  0.7750 -0.7651
23201SOL    HW274451   3.328   6.683   1.506 -1.2742 -0.2604 -0.9274
23202SOL     OW74452   5.190   1.577   6.043  0.2393 -0.0194 -0.6523
23202SOL    HW174453   5.169   1.663   6.007  1.5134 -0.5470 -2.8671
23202SOL    HW274454   5.118   1.521   6.015  0.0001  0.0920 -0.2509
23203SOL     OW74455   6.977   6.795   8.532  0.1397 -0.3074 -0.8875
23203SOL    HW174456   7.017   6.779   8.447 -0.5686  1.9487 -1.7371
23203SOL    HW274457   7.050   6.819   8.589  0.3967  0.4008 -1.4957
23204SOL     OW74458   3.851   9.508   1.979  0.3901 -0.0150 -0.8965
23204SOL    HW174459   3.849   9.513   2.075  0.8035 -0.3802 -0.8647
23204SOL    HW274460   3.863   9.415   1.960 -3.7173 -0.6150 -1.4056
23205SOL     OW74461   9.527   8.318   3.917  0.1884 -0.2014 -0.7525
23205SOL    HW174462   9.529   8.376   3.841 -1.0483 -0.7185 -1.2127
23205SOL    HW274463   9.589   8.248   3.894  0.1930 -0.0983 -1.0650
23206SOL     OW74464   3.425   2.307   9.094  0.8212 -0.1276 -0.3364
23206SOL    HW174465   3.489   2.289   9.026  1.3854  0.8675 -0.0919
23206SOL    HW274466   3.475   2.307   9.175  0.4266  0.1794 -0.0905
23207SOL     OW74467   2.410   1.280   6.016 -0.9258 -0.6244 -0.4835
23207SOL    HW174468   2.349   1.267   6.088 -2.6245 -1.2226 -1.9579
23207SOL    HW274469   2.399   1.203   5.960  3.3139 -2.2696  0.5773
23208SOL     OW74470   1.730   2.691   4.207 -0.3040 -0.2684  0.0778
23208SOL    HW174471   1.647   2.647   4.191 -0.4956  0.3297 -0.6247
23208SOL    HW274472   1.791   2.651   4.145  0.2663 -1.5497  1.3894
23209SOL     OW74473   4.042   6.090   2.343 -0.4659 -0.6858 -0.4994
23209SOL    HW174474   4.130   6.112   2.313  0.1978 -1.4775  0.7581
23209SOL    HW274475   3.986   6.154   2.301  1.0271  1.5277  0.6988
23210SOL     OW74476   9.430   3.392   6.511 -0.4746 -0.3223 -0.0294
23210SOL    HW174477   9.515   3.382   6.468 -0.3691 -0.2327  0.1611
23210SOL    HW274478   9.406   3.303   6.537  0.5939 -0.0850  1.9137
23211SOL     OW74479   7.749   1.955   6.829  0.1668 -0.2288  0.2839
23211SOL    HW174480   7.756   1.952   6.734 -1.6985  1.4377  0.0492
23211SOL    HW274481   7.840   1.950   6.859  0.8350 -0.1834 -1.5879
23212SOL     OW74482   8.947   2.701   2.665 -0.1715  0.3417 -0.1465
23212SOL    HW174483   9.019   2.676   2.723 -1.1090 -1.7834  0.1985
23212SOL    HW274484   8.969   2.661   2.581 -0.9671 -0.3912 -0.0149
23213SOL     OW74485   0.328   1.828   6.382  0.0734  0.0932  0.1763
23213SOL    HW174486   0.400   1.769   6.406 -0.4952 -1.0244 -0.7613
23213SOL    HW274487   0.263   1.816   6.452  0.8934  1.3358  1.1890
23214SOL     OW74488   5.354   2.757   8.957 -0.0321 -0.3357  0.0453
23214SOL    HW174489   5.407   2.757   8.877  0.7655  1.6377  0.5276
23214SOL    HW274490   5.369   2.671   8.995  2.2497 -0.1164 -0.2331
23215SOL     OW74491   3.551   4.049   6.765  0.2696 -0.6126  0.1243
23215SOL    HW174492   3.509   4.135   6.759  0.7228 -0.3139  1.0032
23215SOL    HW274493   3.644   4.069   6.774  0.2794 -1.1438  1.3865
23216SOL     OW74494   5.689   3.531   0.442 -0.3468 -0.6467 -0.4170
23216SOL    HW174495   5.728   3.616   0.463  2.3231 -1.6114 -0.9709
23216SOL    HW274496   5.638   3.508   0.520 -1.0230  1.3803 -0.2160
23217SOL     OW74497   8.524   3.764   3.077  0.3625 -0.5773 -0.1820
23217SOL    HW174498   8.525   3.857   3.052 -0.4478 -0.7122 -0.7602
23217SOL    HW274499   8.499   3.718   2.996 -0.2534 -1.2091  0.3517
23218SOL     OW74500   1.584   6.410   5.729 -0.6630  0.2747  0.0294
23218SOL    HW174501   1.596   6.416   5.824  0.4369  0.2983 -0.0976
23218SOL    HW274502   1.643   6.340   5.702  0.1726  1.2740 -0.8164
23219SOL     OW74503   7.899   4.377   8.216 -0.1176 -0.2197  0.0191
23219SOL    HW174504   7.818   4.342   8.179 -0.2931  1.7724 -1.7150
23219SOL    HW274505   7.870   4.438   8.285 -0.0916  0.1275 -0.2720
23220SOL     OW74506   7.545   6.051   8.012 -0.6146  0.1543 -0.0356
23220SOL    HW174507   7.533   6.131   7.961 -0.4653  2.2263  2.9174
23220SOL    HW274508   7.638   6.031   8.004 -0.1775  1.6388  0.9341
23221SOL     OW74509   1.380   9.449   8.133  0.7443 -0.0213 -0.2616
23221SOL    HW174510   1.436   9.501   8.076  0.8651 -2.4044 -2.4792
23221SOL    HW274511   1.434   9.430   8.210  1.6368  0.7792 -0.6685
23222SOL     OW74512   3.456   4.049   7.614 -0.3970 -1.0440 -0.7260
23222SOL    HW174513   3.387   3.984   7.599 -2.1254  0.7180 -0.8700
23222SOL    HW274514   3.465   4.094   7.530 -0.6064  0.1367 -0.1335
23223SOL     OW74515   3.027   6.322   6.154 -0.3191 -0.3082  0.4001
23223SOL    HW174516   3.078   6.301   6.075  0.0813  0.2476  0.5012
23223SOL    HW274517   3.072   6.276   6.225  0.3201  0.5437  0.5593
23224SOL     OW74518   2.678   0.934   3.595  0.2686 -0.0937 -0.5543
23224SOL    HW174519   2.759   0.898   3.558 -0.7360 -1.0721 -1.8876
23224SOL    HW274520   2.680   1.026   3.572  0.8460 -0.1800 -0.8685
23225SOL     OW74521   5.003   6.499   9.409 -0.8564 -0.6018  0.2636
23225SOL    HW174522   5.037   6.588   9.408 -0.6034 -0.6776 -1.6950
23225SOL    HW274523   4.912   6.508   9.439 -0.8682  0.3261 -0.0337
23226SOL     OW74524   8.302   1.371   5.930  0.3808  0.5922  0.2746
23226SOL    HW174525   8.386   1.363   5.884 -0.3539  1.3037 -1.2972
23226SOL    HW274526   8.261   1.285   5.921  1.2278  0.0139  1.7004
23227SOL     OW74527   3.642   5.351   2.930 -0.2757 -0.2280  0.2211
23227SOL    HW174528   3.708   5.347   2.860 -0.5141 -0.6493  0.0195
23227SOL    HW274529   3.560   5.325   2.888 -0.4759 -0.2036  0.5910
23228SOL     OW74530   3.396   1.841   6.942  0.7061 -0.3102 -0.5592
23228SOL    HW174531   3.368   1.750   6.951 -0.3098 -0.0296 -0.7559
23228SOL    HW274532   3.434   1.846   6.854  1.5348 -0.7306 -0.2340
23229SOL     OW74533   9.227   2.568   7.493  0.3966  0.4763 -0.2023
23229SOL    HW174534   9.293   2.530   7.551 -1.0182 -0.5755  0.7876
23229SOL    HW274535   9.256   2.544   7.405  0.5231 -1.3441  0.2990
23230SOL     OW74536   1.648   3.287   9.738  0.1333 -0.1852 -0.6172
23230SOL    HW174537   1.573   3.316   9.686 -0.0795 -3.1100 -2.1538
23230SOL    HW274538   1.633   3.193   9.752  2.9478 -0.6457 -0.0171
23231SOL     OW74539   0.622   7.480   1.199 -0.2713 -0.0601  0.2499
23231SOL    HW174540   0.581   7.394   1.207 -0.9402  0.2735  0.4989
23231SOL    HW274541   0.568   7.537   1.255 -0.0466  0.5907 -0.1906
23232SOL     OW74542   6.335   4.420   2.189 -0.1332  0.1186  0.2418
23232SOL    HW174543   6.280   4.387   2.118 -0.1512 -0.1013  0.3554
23232SOL    HW274544   6.331   4.515   2.181 -0.6052  0.1044  0.3092
23233SOL     OW74545   6.831   8.301   3.871 -0.9745  0.2403 -0.2285
23233SOL    HW174546   6.791   8.255   3.797 -0.9524  1.0361 -0.7357
23233SOL    HW274547   6.771   8.373   3.890 -1.3810 -0.3820  1.0255
23234SOL     OW74548   0.216   6.784   2.522 -0.2213  0.1774  0.4096
23234SOL    HW174549   0.166   6.849   2.474 -0.3590 -0.5620 -0.4772
23234SOL    HW274550   0.224   6.820   2.610 -0.4221  1.3096 -0.0256
23235SOL     OW74551   7.628   4.571   9.725 -0.3666 -0.1565  0.1482
23235SOL    HW174552   7.604   4.555   9.816  1.4205  0.2587  0.7316
23235SOL    HW274553   7.612   4.665   9.712 -2.6064 -0.5668 -0.6623
23236SOL     OW74554   9.236   4.440   3.291 -0.1944  0.1301  0.3135
23236SOL    HW174555   9.152   4.403   3.264  0.6156 -1.2019 -0.5353
23236SOL    HW274556   9.254   4.398   3.375  1.3580 -2.6735 -1.2610
23237SOL     OW74557   6.567   5.043   0.006 -0.5225 -0.3151 -0.1598
23237SOL    HW174558   6.647   5.018   0.053 -0.3185 -0.3919 -0.5409
23237SOL    HW274559   6.569   5.138   0.004 -0.6628 -0.3019  0.2044
23238SOL     OW74560   4.490   5.497   6.469 -0.6051  0.2200 -0.3520
23238SOL    HW174561   4.475   5.498   6.564  1.0050  2.2330 -0.0539
23238SOL    HW274562   4.432   5.428   6.437 -1.7156 -0.0527  1.9963
23239SOL     OW74563   4.888   8.104   0.209 -0.2618  0.4902  0.0425
23239SOL    HW174564   4.935   8.053   0.143 -0.3968  0.0631  0.2703
23239SOL    HW274565   4.944   8.099   0.287 -0.3560  0.5510  0.1144
23240SOL     OW74566   1.306   4.744   0.518 -1.1520 -0.1286  0.2216
23240SOL    HW174567   1.319   4.789   0.435 -0.1187 -1.9836 -0.7014
23240SOL    HW274568   1.231   4.686   0.503 -1.6544  0.3187  0.9551
23241SOL     OW74569   6.153   2.950   9.297  0.2324  0.2135  0.2639
23241SOL    HW174570   6.111   2.984   9.375  0.2381 -1.1009  0.8654
23241SOL    HW274571   6.167   2.857   9.315  1.4190  0.1498 -0.7749
23242SOL     OW74572   7.718   5.665   8.282 -0.0804  0.4954  0.5370
23242SOL    HW174573   7.638   5.696   8.239  0.1239 -0.5256 -0.6359
23242SOL    HW274574   7.789   5.700   8.228  0.1614 -1.7317 -0.7296
23243SOL     OW74575   8.529   4.794   1.830  0.4234 -0.3559  0.1706
23243SOL    HW174576   8.438   4.812   1.804  0.7377 -0.3531 -0.9777
23243SOL    HW274577   8.527   4.704   1.862  0.0141 -0.3475  0.1810
23244SOL     OW74578   8.763   0.468   4.935 -0.0498  0.3128  0.3656
23244SOL    HW174579   8.852   0.475   4.969  0.1140  1.1068 -0.1916
23244SOL    HW274580   8.723   0.552   4.958 -0.2476  0.4629 -0.5226
23245SOL     OW74581   5.077   4.405   3.269  0.6212  0.2029  0.5220
23245SOL    HW174582   5.153   4.364   3.228 -1.7181 -1.7359 -2.2830
23245SOL    HW274583   5.049   4.343   3.335  0.1487 -0.2145 -0.0628
23246SOL     OW74584   0.731   7.209   4.146  0.0823  0.4406 -0.2788
23246SOL    HW174585   0.821   7.242   4.144 -1.0869  3.9676 -1.7174
23246SOL    HW274586   0.697   7.238   4.230 -0.5002  1.6600 -0.9129
23247SOL     OW74587   0.692   0.409   7.107  0.0031  0.3787 -0.0933
23247SOL    HW174588   0.602   0.435   7.083  0.2941  0.2813 -1.3962
23247SOL    HW274589   0.748   0.462   7.050  0.7755  0.3950  0.6699
23248SOL     OW74590   2.731   7.998   7.334  0.1202  0.2792  0.1674
23248SOL    HW174591   2.662   7.972   7.273  1.2910  0.7958 -1.4418
23248SOL    HW274592   2.779   7.917   7.351 -0.5260  0.0281  0.8601
23249SOL     OW74593   2.640   6.242   8.155  0.3157 -0.2025  0.7390
23249SOL    HW174594   2.596   6.325   8.175  0.4791  0.4537 -1.3151
23249SOL    HW274595   2.711   6.267   8.096 -0.4855 -1.9347 -1.0771
23250SOL     OW74596   2.717   6.586   3.841 -0.0986 -0.8678 -0.3941
23250SOL    HW174597   2.751   6.659   3.789 -0.8397 -1.3455 -1.5833
23250SOL    HW274598   2.623   6.586   3.825 -0.0919 -2.1911 -0.5696
23251SOL     OW74599   1.716   6.765   3.057 -0.4244 -0.4532 -0.2034
23251SOL    HW174600   1.777   6.829   3.094  0.6230 -0.4923 -1.7747
23251SOL    HW274601   1.755   6.740   2.974 -1.2837 -2.4587 -0.0604
23252SOL     OW74602   0.491   5.869   3.540  0.2039 -0.0728  1.0948
23252SOL    HW174603   0.459   5.949   3.581 -0.2688 -0.2535  1.0825
23252SOL    HW274604   0.416   5.810   3.540  0.4139 -0.3465  0.6661
23253SOL     OW74605   2.358   7.461   3.847  0.1503  0.1751 -0.5220
23253SOL    HW174606   2.393   7.372   3.848  0.6938  0.3852  0.0963
23253SOL    HW274607   2.263   7.450   3.852  0.2546 -0.3552  0.4003
23254SOL     OW74608   7.777   8.086   3.057 -0.5020  0.0564 -0.7639
23254SOL    HW174609   7.845   8.076   2.990  1.1470 -0.2282  0.8757
23254SOL    HW274610   7.734   8.001   3.060  2.1534 -1.3545  1.2958
23255SOL     OW74611   5.221   8.462   3.970  0.0681  0.3238 -0.5933
23255SOL    HW174612   5.188   8.512   4.045  0.8543 -0.3476  0.2427
23255SOL    HW274613   5.184   8.375   3.982  1.6354 -0.3022  0.0838
23256SOL     OW74614   1.052   8.346   5.675 -0.5636 -0.2974  0.4754
23256SOL    HW174615   1.135   8.304   5.653  0.6694  0.5343  3.2205
23256SOL    HW274616   1.000   8.277   5.715 -0.6723 -0.4760  0.0366
23257SOL     OW74617   9.085   4.103   1.670  0.3428 -0.0432  0.1665
23257SOL    HW174618   9.135   4.138   1.745 -0.3563 -0.3858  0.8080
23257SOL    HW274619   9.140   4.122   1.594  1.9568 -1.3216  0.9475
23258SOL     OW74620   2.166   5.589   2.914 -0.1285  0.0028 -0.1134
23258SOL    HW174621   2.232   5.656   2.898 -0.4563  0.2981 -0.2634
23258SOL    HW274622   2.179   5.526   2.843 -0.0860  0.1216 -0.2125
23259SOL     OW74623   8.116   5.884   2.013  0.3213  0.2758  0.6302
23259SOL    HW174624   8.173   5.844   1.947  0.8924  0.9310  0.7109
23259SOL    HW274625   8.027   5.865   1.983  0.4980  2.4611 -1.5794
23260SOL     OW74626   7.264   3.878   3.039 -0.4097 -0.2572  0.3295
23260SOL    HW174627   7.303   3.964   3.056 -0.7437 -0.4346  2.1463
23260SOL    HW274628   7.337   3.825   3.007 -0.5245  1.0857 -2.4800
23261SOL     OW74629   1.495   2.156   3.212 -0.1883  0.3598  0.2399
23261SOL    HW174630   1.402   2.137   3.197  0.0154 -0.6017  0.1069
23261SOL    HW274631   1.505   2.249   3.193 -1.1036  0.4449  0.1568
23262SOL     OW74632   5.507   1.733   8.046  0.6278  0.0286 -0.5460
23262SOL    HW174633   5.531   1.694   8.130  1.9162 -0.2882 -1.0341
23262SOL    HW274634   5.440   1.798   8.067 -2.4909 -3.1129  0.2103
23263SOL     OW74635   1.212   4.472   5.173 -0.2819  0.0013 -0.2370
23263SOL    HW174636   1.179   4.521   5.098 -0.8340  0.2436  0.1590
23263SOL    HW274637   1.141   4.474   5.237 -0.7539 -2.2101 -0.6022
23264SOL     OW74638   6.893   6.834   1.007 -0.1000 -0.5594  0.2600
23264SOL    HW174639   6.798   6.834   1.017 -0.1653  1.5635 -0.0285
23264SOL    HW274640   6.920   6.747   1.036 -2.1575 -1.3401 -0.0222
23265SOL     OW74641   2.330   8.472   2.563  0.1373  0.6091  0.6393
23265SOL    HW174642   2.333   8.525   2.642  0.7431  0.4772  0.7073
23265SOL    HW274643   2.284   8.392   2.589  0.8045  0.3383  0.9953
23266SOL     OW74644   1.141   6.988   8.294  0.3219 -0.0302  0.1456
23266SOL    HW174645   1.195   7.061   8.324  0.7552  0.4012 -1.5954
23266SOL    HW274646   1.053   7.025   8.287  0.5219  0.3281 -0.6335
23267SOL     OW74647   8.036   0.041   7.396 -0.0561 -0.1916 -0.2351
23267SOL    HW174648   8.106  -0.000   7.346  0.4560  0.4332 -0.0383
23267SOL    HW274649   8.080   0.098   7.458 -0.6743 -1.2216  1.1987
23268SOL     OW74650   3.581   8.613   9.301 -0.5248 -0.5164  0.3403
23268SOL    HW174651   3.542   8.679   9.243 -1.4214 -1.1220  0.2361
23268SOL    HW274652   3.566   8.648   9.389 -0.4341 -0.2854  0.2656
23269SOL     OW74653   6.268   3.966   8.571 -0.2141  0.3505  0.6889
23269SOL    HW174654   6.264   3.925   8.484 -1.6893 -0.2481  1.0102
23269SOL    HW274655   6.280   3.893   8.632 -2.3991  0.3583  1.2251
23270SOL     OW74656   1.269   5.620   1.718 -0.9555  0.1204  0.5053
23270SOL    HW174657   1.245   5.578   1.801 -2.8048  1.3962  0.6653
23270SOL    HW274658   1.192   5.608   1.663 -0.0929  0.1096 -0.7197
23271SOL     OW74659   0.683   8.967   4.891  0.0946 -0.0871  0.0995
23271SOL    HW174660   0.650   8.932   4.808 -2.7004  0.1972  0.9970
23271SOL    HW274661   0.754   9.026   4.865 -1.4022  0.8238 -2.1969
23272SOL     OW74662   4.376   2.006   7.933 -0.6423  0.4954 -0.2699
23272SOL    HW174663   4.449   2.051   7.975 -0.0518 -0.1009 -0.6394
23272SOL    HW274664   4.353   2.062   7.859 -0.2221  0.4278 -0.4525
23273SOL     OW74665   5.373   4.151   4.562 -0.1755  0.3445 -0.0797
23273SOL    HW174666   5.445   4.131   4.621 -1.3634  0.8240  1.6240
23273SOL    HW274667   5.295   4.125   4.611 -1.1752 -0.3046 -1.9210
23274SOL     OW74668   6.802   8.055   6.020  0.2635 -0.3066  0.0816
23274SOL    HW174669   6.813   7.965   6.048 -1.4447 -0.6382 -0.2168
23274SOL    HW274670   6.717   8.081   6.055  0.6456  1.1296  0.0064
23275SOL     OW74671   8.754   8.421   6.104 -0.5090 -0.2985  0.5053
23275SOL    HW174672   8.709   8.398   6.185 -0.9832 -2.5682 -0.3311
23275SOL    HW274673   8.754   8.517   6.103 -0.8492 -0.2091  2.9572
23276SOL     OW74674   7.506   2.395   4.315 -0.2416  1.1391  0.4000
23276SOL    HW174675   7.554   2.442   4.247 -0.8509  0.3935 -0.5754
23276SOL    HW274676   7.414   2.417   4.299 -0.5195 -0.1277  0.0856
23277SOL     OW74677   3.866   4.366   3.049  0.0255  1.2755  0.5842
23277SOL    HW174678   3.843   4.423   3.122 -1.6439  1.7487 -0.2364
23277SOL    HW274679   3.848   4.277   3.080  3.0593  1.0454  2.0208
23278SOL     OW74680   2.550   7.069   1.210 -0.2530 -0.6015  0.1778
23278SOL    HW174681   2.561   7.161   1.234  1.8223 -0.6132 -0.5982
23278SOL    HW274682   2.566   7.020   1.291  0.1602 -0.3514  0.2446
23279SOL     OW74683   7.473   6.347   4.773  0.0757 -0.4544 -0.5487
23279SOL    HW174684   7.518   6.265   4.794 -0.4946 -0.8771 -0.9624
23279SOL    HW274685   7.528   6.414   4.813  1.1768 -0.9364 -1.1878
23280SOL     OW74686   5.514   2.657   4.741  0.2137  0.4467  0.3899
23280SOL    HW174687   5.454   2.728   4.721  0.2945 -0.0938 -2.0968
23280SOL    HW274688   5.583   2.665   4.675  1.4159 -0.5978  1.4752
23281SOL     OW74689   2.550   7.555   0.644 -0.6141 -0.1247  0.2493
23281SOL    HW174690   2.538   7.461   0.660 -0.6840 -0.0595  0.6037
23281SOL    HW274691   2.499   7.597   0.714  2.0303  0.1616  2.1634
23282SOL     OW74692   2.213   9.650   5.657 -0.1207 -0.4789  0.2998
23282SOL    HW174693   2.257   9.655   5.573 -1.7767 -3.4170 -0.8640
23282SOL    HW274694   2.122   9.671   5.638 -0.5936 -1.5612  1.2378
23283SOL     OW74695   1.690   4.612   1.489  0.1607  0.0633  0.0559
23283SOL    HW174696   1.647   4.597   1.573 -0.8214  0.5762 -0.3370
23283SOL    HW274697   1.666   4.702   1.465  0.1736 -0.1716 -0.8990
23284SOL     OW74698   9.338   8.562   5.299 -0.6403 -0.6985 -0.4303
23284SOL    HW174699   9.265   8.501   5.295 -1.6023  0.4758 -1.2802
23284SOL    HW274700   9.404   8.523   5.241 -1.2704 -0.9062 -1.0264
23285SOL     OW74701   4.108   0.581   5.977 -0.3044 -0.5303  0.5146
23285SOL    HW174702   4.121   0.648   6.044 -1.3058  0.7184 -0.4884
23285SOL    HW274703   4.034   0.613   5.925 -0.0729 -1.8592 -0.6870
23286SOL     OW74704   6.215   6.344   6.903  0.2716  0.1735  0.4996
23286SOL    HW174705   6.168   6.409   6.851 -0.7449 -1.0718 -0.1955
23286SOL    HW274706   6.259   6.288   6.839  1.7929  0.6168  1.1062
23287SOL     OW74707   2.101   8.014   0.171  0.1041  0.1077 -0.0927
23287SOL    HW174708   2.059   8.100   0.164 -0.2436 -0.1056 -0.7510
23287SOL    HW274709   2.065   7.964   0.098  0.6829 -0.4391 -0.0130
23288SOL     OW74710   6.329   5.423   5.903  0.0017 -0.3957 -0.2151
23288SOL    HW174711   6.260   5.407   5.839 -1.3425 -0.3872  1.1866
23288SOL    HW274712   6.332   5.344   5.957  1.4415 -0.5983 -0.5492
23289SOL     OW74713   4.254   4.701   2.067 -0.0542  0.2874 -0.1803
23289SOL    HW174714   4.329   4.761   2.075  0.8918 -0.7136 -1.2013
23289SOL    HW274715   4.190   4.736   2.129  0.5953  2.1450 -0.4652
23290SOL     OW74716   3.802   3.604   2.955  0.2308  0.3777 -0.3428
23290SOL    HW174717   3.765   3.520   2.982 -0.7263  1.0375  0.4911
23290SOL    HW274718   3.761   3.668   3.014 -0.9449  1.7426 -2.4983
23291SOL     OW74719   5.117   1.097   3.319 -0.0828  0.3876  0.0366
23291SOL    HW174720   5.040   1.102   3.262  0.9953 -0.7396 -1.5796
23291SOL    HW274721   5.166   1.177   3.301 -0.8372  1.1155  1.0806
23292SOL     OW74722   2.882   8.309   9.034  0.5400  0.1601 -0.1246
23292SOL    HW174723   2.955   8.358   9.074  0.7661  1.1051 -1.5881
23292SOL    HW274724   2.805   8.364   9.050  0.4286 -0.0496  0.0532
23293SOL     OW74725   5.103   4.853   4.557  0.3590 -0.2970  0.2113
23293SOL    HW174726   5.174   4.802   4.519 -0.3925 -1.1873 -0.0204
23293SOL    HW274727   5.143   4.897   4.632  1.2852 -0.3477 -0.2451
23294SOL     OW74728   6.678   9.390   7.638  0.5493 -0.3671  0.1326
23294SOL    HW174729   6.663   9.454   7.707  0.5388 -0.9308  0.6603
23294SOL    HW274730   6.607   9.327   7.647  1.3236 -1.2136  0.5210
23295SOL     OW74731   5.623   1.695   3.259  0.5585 -0.5474 -0.2689
23295SOL    HW174732   5.653   1.659   3.342 -2.3249  0.6559  1.4457
23295SOL    HW274733   5.626   1.790   3.272 -0.1577 -0.3429 -1.4335
23296SOL     OW74734   3.881   1.752   3.559  0.2501  0.0418  0.3423
23296SOL    HW174735   3.887   1.695   3.482  1.0709  0.9544 -0.2840
23296SOL    HW274736   3.940   1.712   3.623  0.1186 -0.3138  0.2476
23297SOL     OW74737   1.441   5.689   8.153  0.5595 -0.3590  0.2112
23297SOL    HW174738   1.462   5.746   8.080 -0.3822 -0.9636 -0.5507
23297SOL    HW274739   1.434   5.602   8.114  0.8644 -0.8219  1.1591
23298SOL     OW74740   6.205   5.259   7.354  0.0387  0.0915  0.2688
23298SOL    HW174741   6.224   5.195   7.285 -0.0941 -1.2721  1.4535
23298SOL    HW274742   6.209   5.343   7.310  0.2397 -0.7230 -1.3480
23299SOL     OW74743   7.590   9.239   7.993 -0.2551 -0.1088 -0.0124
23299SOL    HW174744   7.563   9.275   7.909 -1.4642 -0.9458 -0.0106
23299SOL    HW274745   7.544   9.291   8.058  1.0524  0.8504  0.1782
23300SOL     OW74746   4.000   0.022   9.579 -0.2073  0.3697 -0.4140
23300SOL    HW174747   4.004  -0.033   9.657 -1.7395  0.8431  0.0390
23300SOL    HW274748   4.009   0.111   9.612  0.9212  0.4948 -0.9988
23301SOL     OW74749   5.201   2.578   8.581 -0.4448  0.0669  0.1665
23301SOL    HW174750   5.199   2.667   8.545  0.1541  0.2869  0.6607
23301SOL    HW274751   5.222   2.591   8.674 -0.6906 -0.5723  0.3139
23302SOL     OW74752   8.875   8.239   4.167  0.3942 -0.3893 -0.2218
23302SOL    HW174753   8.824   8.160   4.151 -0.6412 -0.0129  1.0216
23302SOL    HW274754   8.853   8.264   4.257  0.0773  1.7415 -0.8303
23303SOL     OW74755   6.010   4.621   9.731 -0.2734  1.2302 -0.2127
23303SOL    HW174756   6.060   4.594   9.808  1.1353  0.8755 -1.2111
23303SOL    HW274757   6.050   4.704   9.705  0.2949  0.6077 -1.4205
23304SOL     OW74758   8.859   0.454   3.914  0.3189 -0.0250 -0.0198
23304SOL    HW174759   8.859   0.549   3.902  0.4109 -0.0284 -0.0428
23304SOL    HW274760   8.808   0.421   3.840  0.4060 -0.0045 -0.0877
23305SOL     OW74761   5.499   2.770   3.937 -0.0480 -0.0795  0.1624
23305SOL    HW174762   5.532   2.789   4.025  0.1439  0.4403 -0.0150
23305SOL    HW274763   5.437   2.841   3.920 -2.6840 -1.9868  1.1976
23306SOL     OW74764   7.925   0.677   6.403 -0.2396  0.8110  0.6015
23306SOL    HW174765   7.962   0.754   6.361  1.6191 -0.3430  0.0293
23306SOL    HW274766   7.864   0.641   6.339 -1.4745  2.0008  1.0490
23307SOL     OW74767   3.975   3.250   8.043 -0.1631  0.3204 -0.0830
23307SOL    HW174768   3.961   3.195   8.120 -1.8656 -0.2536 -0.7526
23307SOL    HW274769   4.000   3.335   8.078  3.6765 -1.0663  0.9760
23308SOL     OW74770   5.967   4.075   9.560  0.5233  0.1001 -0.4470
23308SOL    HW174771   5.991   4.090   9.469 -1.1099  0.8075 -0.8006
23308SOL    HW274772   6.037   4.116   9.611  0.4106  1.5496 -1.4105
23309SOL     OW74773   3.155   5.520   0.902 -0.1045  0.5528  0.0168
23309SOL    HW174774   3.172   5.523   0.808 -3.4983 -0.0481 -0.7644
23309SOL    HW274775   3.094   5.592   0.918 -0.0702  0.2661  1.6180
23310SOL     OW74776   5.540   5.998   3.292  0.4706  0.5625  0.0766
23310SOL    HW174777   5.517   6.086   3.321  0.5186  1.9182 -3.5509
23310SOL    HW274778   5.463   5.967   3.245  0.4408 -1.4339  1.3257
23311SOL     OW74779   6.512   5.923   1.861  0.0421 -0.3541 -0.0528
23311SOL    HW174780   6.459   5.969   1.926 -0.4111 -1.1359  0.1466
23311SOL    HW274781   6.559   5.857   1.912 -1.5706 -2.0822 -0.7287
23312SOL     OW74782   6.051   8.625   5.254  1.1699 -0.4155  0.1230
23312SOL    HW174783   6.068   8.577   5.172  2.0936 -0.9401  0.6018
23312SOL    HW274784   5.985   8.690   5.230  1.1808 -0.7760 -0.9664
23313SOL     OW74785   4.736   2.874   2.168  0.6795 -0.3048  0.6356
23313SOL    HW174786   4.788   2.907   2.241  1.2264  4.3789 -1.5340
23313SOL    HW274787   4.800   2.845   2.103  0.3035 -1.1293  0.6144
23314SOL     OW74788   4.739   1.074   8.496 -0.4819 -0.6474 -0.3339
23314SOL    HW174789   4.775   1.013   8.432  0.3514 -0.5004 -0.0101
23314SOL    HW274790   4.774   1.045   8.580  1.0999  1.1089 -0.3323
23315SOL     OW74791   2.141   3.808   2.784  0.4064 -0.7209 -0.1886
23315SOL    HW174792   2.217   3.848   2.743 -0.3630  0.1982 -0.7433
23315SOL    HW274793   2.066   3.844   2.737 -0.4219 -0.9402  0.9158
23316SOL     OW74794   7.136   0.414   7.192 -0.4526 -1.2218 -0.5957
23316SOL    HW174795   7.069   0.452   7.135  0.0011 -0.8196 -0.8728
23316SOL    HW274796   7.196   0.369   7.132 -0.9944 -2.4043 -0.2675
23317SOL     OW74797   8.778   1.275   1.280  0.0958 -0.5899 -0.2936
23317SOL    HW174798   8.842   1.346   1.269  0.4137 -0.6555  0.9938
23317SOL    HW274799   8.813   1.202   1.229  0.1501 -0.0708 -1.0163
23318SOL     OW74800   5.212   7.315   8.058 -0.3081 -0.0663 -0.4358
23318SOL    HW174801   5.263   7.236   8.039  1.2906  0.7936  0.1151
23318SOL    HW274802   5.211   7.363   7.976 -0.3115 -0.1288 -0.4721
23319SOL     OW74803   5.163   1.774   4.201 -0.2673  0.1012 -0.2774
23319SOL    HW174804   5.132   1.685   4.182  0.5021  0.0455 -1.3860
23319SOL    HW274805   5.176   1.814   4.115  1.2634  0.6189  0.1638
23320SOL     OW74806   0.961   5.507   4.580  0.4422 -0.8187  0.4858
23320SOL    HW174807   0.893   5.560   4.621  1.0913 -0.4382  1.1035
23320SOL    HW274808   1.020   5.571   4.540 -0.1023 -1.1768 -0.9709
23321SOL     OW74809   1.995   0.908   0.395 -0.2673 -0.2824  0.2985
23321SOL    HW174810   1.962   0.998   0.402 -0.7635 -0.1289 -2.6429
23321SOL    HW274811   1.916   0.854   0.387  0.0662 -0.7306 -0.0397
23322SOL     OW74812   1.684   1.964   2.215 -0.8246 -0.2559  0.0794
23322SOL    HW174813   1.639   1.881   2.231 -2.8057  0.8519  0.5987
23322SOL    HW274814   1.625   2.030   2.252 -1.5239  1.7970 -4.1551
23323SOL     OW74815   6.618   0.584   4.598  0.3900 -1.0614 -0.3990
23323SOL    HW174816   6.584   0.501   4.633 -0.1758 -1.3628 -1.6132
23323SOL    HW274817   6.683   0.558   4.533  0.9196 -0.5183 -0.1019
23324SOL     OW74818   1.567   5.649   7.228  0.2078  0.0532 -0.9346
23324SOL    HW174819   1.644   5.593   7.237  0.5387  0.3072 -2.0657
23324SOL    HW274820   1.601   5.730   7.189 -0.3338  0.8866  0.2399
23325SOL     OW74821   0.708   1.801   9.113 -0.4753  0.5392 -0.1764
23325SOL    HW174822   0.627   1.775   9.071 -0.5573 -0.1330  0.3860
23325SOL    HW274823   0.773   1.740   9.080 -0.3188  0.6883 -0.1488
23326SOL     OW74824   4.271   9.673   7.402 -0.0590  0.4466  0.0473
23326SOL    HW174825   4.288   9.579   7.416 -0.5243  0.1761 -1.0738
23326SOL    HW274826   4.349   9.704   7.356  0.0768  0.5987  0.3835
23327SOL     OW74827   9.447   9.580   1.295  0.3932 -0.2195 -0.3679
23327SOL    HW174828   9.451   9.545   1.206  2.1239  1.1123 -0.8650
23327SOL    HW274829   9.538   9.585   1.323  0.3219  3.8285 -0.3575
23328SOL     OW74830   1.849   1.808   3.057  0.0139  0.0010 -0.2515
23328SOL    HW174831   1.855   1.861   3.136  0.2166  1.6507 -1.3132
23328SOL    HW274832   1.765   1.832   3.018 -0.5467 -1.5313 -0.0798
23329SOL     OW74833   3.485   5.957   8.351 -0.6851  0.3171  0.6154
23329SOL    HW174834   3.577   5.981   8.344 -0.8349  0.9097  0.6477
23329SOL    HW274835   3.475   5.880   8.295 -0.7817  1.9352 -1.7181
23330SOL     OW74836   7.193   1.979   3.891 -0.4713 -0.1036  0.2498
23330SOL    HW174837   7.112   1.927   3.893 -0.3152 -0.3505  1.4878
23330SOL    HW274838   7.175   2.051   3.951  0.6021 -0.7899  1.4504
23331SOL     OW74839   5.607   6.072   0.430  0.1730 -0.4361  0.1687
23331SOL    HW174840   5.530   6.075   0.488  0.6201  0.1797  0.7436
23331SOL    HW274841   5.571   6.091   0.343 -0.3138  0.0033  0.4519
23332SOL     OW74842   7.108   3.760   8.747  0.0119 -0.1838  0.2480
23332SOL    HW174843   7.090   3.771   8.840 -2.6655 -0.3502 -0.1693
23332SOL    HW274844   7.108   3.849   8.712  1.7527 -0.0632  0.4732
23333SOL     OW74845   9.454   7.039   8.369 -0.4500  0.3433  0.0329
23333SOL    HW174846   9.469   7.063   8.461 -0.9561 -0.5206  0.3474
23333SOL    HW274847   9.541   7.018   8.336 -0.1063  1.7314 -0.0114
23334SOL     OW74848   1.308   3.902   6.669 -0.2928  1.1484 -0.7612
23334SOL    HW174849   1.248   3.844   6.621 -0.8982  1.1336 -0.0087
23334SOL    HW274850   1.281   3.893   6.761 -1.9566  4.3446 -0.7937
23335SOL     OW74851   3.954   9.500   6.943 -0.0984  0.0534  0.1858
23335SOL    HW174852   3.922   9.417   6.908  0.4146  0.0121 -0.1951
23335SOL    HW274853   3.965   9.557   6.866  0.2221  0.2417  0.3663
23336SOL     OW74854   5.662   5.560   3.133 -0.1623  0.7659  0.2353
23336SOL    HW174855   5.659   5.642   3.182 -1.1297  1.1890 -0.4923
23336SOL    HW274856   5.755   5.536   3.132  1.1903  4.6419 -4.0032
23337SOL     OW74857   5.777   1.886   6.073 -0.5434 -0.4071  0.1543
23337SOL    HW174858   5.743   1.819   6.132 -0.8895 -0.4112 -0.0518
23337SOL    HW274859   5.846   1.841   6.023 -2.0985 -1.1780 -1.3844
23338SOL     OW74860   4.635   1.917   5.630  0.2059  0.5270 -0.6560
23338SOL    HW174861   4.728   1.940   5.628  0.1417  0.8954  0.1636
23338SOL    HW274862   4.592   1.989   5.584  0.4403 -0.3469 -2.3157
23339SOL     OW74863   0.811   9.744   7.368 -0.3758 -0.2791 -0.4169
23339SOL    HW174864   0.807   9.793   7.451  1.9350 -0.7565  0.0441
23339SOL    HW274865   0.818   9.812   7.301  2.2824  0.1262  0.1798
23340SOL     OW74866   6.603   0.699   3.094  1.1177  0.2839 -0.1687
23340SOL    HW174867   6.677   0.638   3.089  1.1509  0.1240  1.5403
23340SOL    HW274868   6.577   0.697   3.186 -2.2879 -1.1520 -0.9847
23341SOL     OW74869   9.030   0.606   6.889 -0.4999 -0.2060 -0.3059
23341SOL    HW174870   9.008   0.635   6.800 -0.1455 -0.1442 -0.3766
23341SOL    HW274871   9.096   0.669   6.919  0.3388 -0.9661 -0.4951
23342SOL     OW74872   2.474   2.762   8.393 -0.3596  0.6227 -1.0263
23342SOL    HW174873   2.521   2.833   8.436 -1.6560  0.1680  1.2579
23342SOL    HW274874   2.509   2.683   8.434 -2.2757  0.2224 -0.0717
23343SOL     OW74875   4.088   6.825   7.254  0.3918  0.7812  0.4557
23343SOL    HW174876   4.153   6.873   7.306  1.3354  0.2856 -0.2397
23343SOL    HW274877   4.138   6.788   7.181 -0.6504  0.2581 -0.0135
23344SOL     OW74878   3.488   5.552   8.631 -0.0554  0.2379  0.0031
23344SOL    HW174879   3.530   5.625   8.585 -2.1779  1.7729  0.3758
23344SOL    HW274880   3.478   5.582   8.721 -1.2222 -0.3738  0.1004
23345SOL     OW74881   1.626   5.014   7.602  0.9037  0.5454  0.0478
23345SOL    HW174882   1.596   4.932   7.563 -0.9457  0.7828  0.8305
23345SOL    HW274883   1.708   5.034   7.558  1.6524 -1.9644  0.1716
23346SOL     OW74884   4.284   2.142   7.306 -0.0943 -0.1595  0.0190
23346SOL    HW174885   4.206   2.120   7.358 -0.3668 -0.5187 -0.5387
23346SOL    HW274886   4.249   2.166   7.220  0.4844 -1.4760 -0.6098
23347SOL     OW74887   6.220   0.986   3.542  0.1772 -0.5423  0.2115
23347SOL    HW174888   6.136   0.946   3.522  0.5166 -2.4491  2.1584
23347SOL    HW274889   6.282   0.912   3.543  2.3410  0.9896 -2.9544
23348SOL     OW74890   1.588   2.072   7.812 -1.2975  0.2806  0.4632
23348SOL    HW174891   1.557   2.151   7.856 -2.3838  0.8410 -1.2088
23348SOL    HW274892   1.666   2.100   7.764 -1.1189  0.0953  0.6433
23349SOL     OW74893   8.706   0.887   0.445  0.6476 -0.3827 -0.5021
23349SOL    HW174894   8.738   0.879   0.534  0.5454 -0.6326 -0.4865
23349SOL    HW274895   8.785   0.886   0.390  0.7425  0.3302 -0.3787
23350SOL     OW74896   7.414   8.385   3.235 -0.0760  0.1158  0.6843
23350SOL    HW174897   7.325   8.394   3.269 -0.5307  0.5959 -0.5927
23350SOL    HW274898   7.417   8.298   3.196 -0.0275  0.1417  0.6291
23351SOL     OW74899   8.503   5.005   2.217  0.6727 -0.4241  0.5500
23351SOL    HW174900   8.572   4.959   2.265 -1.1725 -0.7151  3.1356
23351SOL    HW274901   8.493   5.088   2.265 -0.9444 -0.5262  0.4205
23352SOL     OW74902   6.024   2.641   3.225 -0.5694 -0.1993  0.0967
23352SOL    HW174903   6.090   2.709   3.231 -1.4380  0.5922  0.9689
23352SOL    HW274904   6.074   2.559   3.224  0.3981  0.2452  3.0980
23353SOL     OW74905   1.451   8.009   9.189  0.2220  0.2158 -0.0625
23353SOL    HW174906   1.409   8.084   9.232  0.5728 -1.5932  3.8456
23353SOL    HW274907   1.381   7.970   9.136 -1.1952  0.9599  1.1656
23354SOL     OW74908   7.301   0.479   8.794  0.0733  0.2885  0.3086
23354SOL    HW174909   7.265   0.473   8.883 -1.8096  0.5182 -0.4053
23354SOL    HW274910   7.259   0.556   8.756 -2.3152 -2.0004 -2.1093
23355SOL     OW74911   6.552   7.010   4.212  0.1229 -0.5735  0.0378
23355SOL    HW174912   6.469   7.056   4.200 -0.1209 -0.9642  0.2007
23355SOL    HW274913   6.564   7.007   4.307  0.1130 -0.8819  0.0311
23356SOL     OW74914   1.691   9.732   7.743 -0.4782  0.7019 -0.0658
23356SOL    HW174915   1.668   9.653   7.695 -0.3815  1.9912 -2.3692
23356SOL    HW274916   1.784   9.744   7.728 -0.2476  0.6512  1.2407
23357SOL     OW74917   5.670   8.550   3.067  0.2732  0.7741  0.1783
23357SOL    HW174918   5.588   8.570   3.022  0.9758  0.4286 -1.3222
23357SOL    HW274919   5.725   8.627   3.053  1.1828 -0.0885 -1.2807
23358SOL     OW74920   7.448   3.500   7.494  0.0842 -0.2455  0.0830
23358SOL    HW174921   7.367   3.546   7.515  0.3255  0.7214 -1.0141
23358SOL    HW274922   7.517   3.563   7.512  0.5634 -0.8421  0.3829
23359SOL     OW74923   3.770   8.423   1.668 -0.3623  0.2362 -0.3086
23359SOL    HW174924   3.843   8.389   1.719 -1.4195  0.3510  1.3726
23359SOL    HW274925   3.708   8.350   1.664 -1.6943  1.1775  1.4448
23360SOL     OW74926   0.853   6.293   4.544  0.0716  0.0023 -0.0077
23360SOL    HW174927   0.882   6.212   4.586 -1.7773 -1.5053 -1.4468
23360SOL    HW274928   0.761   6.301   4.567 -0.3242  0.4993 -1.6135
23361SOL     OW74929   5.574   6.316   2.808  0.4652 -0.3786 -0.0916
23361SOL    HW174930   5.519   6.238   2.810  2.8328 -2.1594  1.3114
23361SOL    HW274931   5.602   6.324   2.717 -0.7442 -0.4138 -0.4808
23362SOL     OW74932   1.368   3.406   1.408  0.4355  0.3817  0.7356
23362SOL    HW174933   1.362   3.416   1.313 -0.5449 -0.5335  0.6856
23362SOL    HW274934   1.462   3.401   1.426  0.6078 -0.3450 -0.2988
23363SOL     OW74935   4.424   2.461   9.372  0.4156 -0.2736  0.0255
23363SOL    HW174936   4.420   2.366   9.373  2.4531 -0.4259 -0.9356
23363SOL    HW274937   4.362   2.489   9.440 -1.6578 -2.1714 -0.9735
23364SOL     OW74938   8.297   0.864   1.721 -0.0551  0.0188  0.8059
23364SOL    HW174939   8.310   0.838   1.812  1.0504 -3.2676 -0.1441
23364SOL    HW274940   8.385   0.884   1.689  0.0501 -1.9387 -0.2815
23365SOL     OW74941   5.061   1.053   2.532 -0.0557 -0.1533  0.4795
23365SOL    HW174942   5.095   1.016   2.451 -1.1369 -0.8356  0.3116
23365SOL    HW274943   5.018   1.135   2.505  0.6479  0.2443  0.5555
23366SOL     OW74944   9.043   4.682   8.234  0.3057  0.0986  0.9094
23366SOL    HW174945   9.042   4.639   8.320  0.7088 -1.1806  0.2935
23366SOL    HW274946   9.028   4.611   8.172  0.5084  0.9407 -0.1192
23367SOL     OW74947   4.989   0.268   7.907 -0.4355  0.2899 -0.2205
23367SOL    HW174948   4.948   0.334   7.851  1.4528 -0.1830 -2.3065
23367SOL    HW274949   4.921   0.202   7.921 -1.0684  0.5959 -1.7042
23368SOL     OW74950   8.932   6.280   8.162 -0.2733  0.2864  0.6973
23368SOL    HW174951   8.875   6.232   8.102 -0.2037 -0.6990  1.4032
23368SOL    HW274952   8.874   6.340   8.208 -0.6988 -0.5322  1.2308
23369SOL     OW74953   2.308   7.100   3.242  0.2681  0.0515 -0.0826
23369SOL    HW174954   2.221   7.102   3.283  0.1212 -0.0115 -0.3919
23369SOL    HW274955   2.311   7.016   3.196  0.4814  0.0675 -0.0974
23370SOL     OW74956   0.531   4.354   0.045  0.8208  0.5476 -0.1524
23370SOL    HW174957   0.504   4.263   0.030  3.4655 -0.0494 -2.1238
23370SOL    HW274958   0.476   4.405  -0.015 -0.4101  0.2373  0.6807
23371SOL     OW74959   2.570   4.397   3.505 -0.1520 -0.2801 -0.5164
23371SOL    HW174960   2.520   4.321   3.534 -2.2623  0.3063 -2.3715
23371SOL    HW274961   2.628   4.363   3.436  0.0135 -0.4454 -0.3004
23372SOL     OW74962   1.015   0.102   3.603 -0.0333  0.5326  0.1966
23372SOL    HW174963   1.027   0.009   3.582  1.3671  0.6818  0.2204
23372SOL    HW274964   1.011   0.145   3.518  1.4431  0.6671  0.1709
23373SOL     OW74965   5.620   2.410   5.651  0.5773 -0.7953 -0.1951
23373SOL    HW174966   5.573   2.327   5.657 -2.4156  0.7864  0.1792
23373SOL    HW274967   5.601   2.454   5.734  0.5416  0.9833 -1.1029
23374SOL     OW74968   2.271   9.690   9.577  0.0195  0.4164  0.0273
23374SOL    HW174969   2.320   9.733   9.507 -0.8702  1.5247  0.0506
23374SOL    HW274970   2.187   9.735   9.578 -1.2551 -1.8315 -0.3968
23375SOL     OW74971   4.874   9.461   4.885  0.4305  0.6513  0.0134
23375SOL    HW174972   4.848   9.455   4.793  0.1736 -0.6217  0.1461
23375SOL    HW274973   4.792   9.460   4.934  0.5210 -3.6317  0.4488
23376SOL     OW74974   9.067   7.335   6.312 -0.1928 -0.3962 -0.1370
23376SOL    HW174975   9.027   7.280   6.380  0.6254 -0.7736  0.0490
23376SOL    HW274976   9.110   7.406   6.361 -1.0848  0.3203 -0.3652
23377SOL     OW74977   4.678   3.285   8.693 -0.3197 -0.1393  0.1480
23377SOL    HW174978   4.623   3.357   8.662  0.4329  0.7328  0.7841
23377SOL    HW274979   4.767   3.321   8.692 -0.1410 -0.3890  2.3037
23378SOL     OW74980   8.644   4.541   9.692 -0.0072 -0.1267 -0.0818
23378SOL    HW174981   8.623   4.495   9.611  1.1726 -2.4717  0.8573
23378SOL    HW274982   8.564   4.537   9.744  0.1253 -1.3018  0.0468
23379SOL     OW74983   3.330   8.763   5.083  0.3263 -0.0154 -0.4612
23379SOL    HW174984   3.350   8.754   4.990 -1.1672 -0.9337 -0.7133
23379SOL    HW274985   3.290   8.850   5.090  3.0361  1.3208 -0.1451
23380SOL     OW74986   8.352   4.827   4.415  0.0363  0.2110 -0.1202
23380SOL    HW174987   8.267   4.870   4.427  0.0334  0.0983  0.2822
23380SOL    HW274988   8.330   4.735   4.401  0.1371  0.0261  0.9104
23381SOL     OW74989   1.504   3.050   8.245  0.0651 -0.5365 -0.4800
23381SOL    HW174990   1.457   3.113   8.299  0.1341 -2.4137  1.9498
23381SOL    HW274991   1.500   3.086   8.157 -2.7883  1.1535  0.2229
23382SOL     OW74992   4.378   2.270   4.798  0.1514  0.1634 -0.0808
23382SOL    HW174993   4.334   2.270   4.883  0.5933 -2.0797  0.1983
23382SOL    HW274994   4.438   2.196   4.801  0.8353  0.5654 -2.0364
23383SOL     OW74995   3.928   5.055   8.429  0.0341 -0.3462 -0.0783
23383SOL    HW174996   3.865   5.126   8.440 -1.6492 -1.4602 -1.8198
23383SOL    HW274997   4.008   5.098   8.399 -0.9941  0.8421 -1.2460
23384SOL     OW74998   8.146   9.324   7.616 -1.0612  0.1862 -0.3981
23384SOL    HW174999   8.062   9.309   7.659 -0.9421  1.3344  0.3143
23384SOL    HW275000   8.140   9.414   7.583 -0.8138 -0.3783 -2.0577
23385SOL     OW75001   9.229   1.558   0.324  0.3036  0.2575  0.4434
23385SOL    HW175002   9.261   1.507   0.250 -1.4866  1.1988 -1.0987
23385SOL    HW275003   9.156   1.507   0.360  0.3410  0.3961  0.7225
23386SOL     OW75004   6.990   1.490   5.834  0.7777  0.4314 -0.2380
23386SOL    HW175005   6.944   1.517   5.914 -0.3045  1.3571 -1.1245
23386SOL    HW275006   6.977   1.395   5.830 -2.8821  0.8045 -1.4059
23387SOL     OW75007   8.044   3.687   1.744  0.1165 -0.0406 -0.3333
23387SOL    HW175008   8.120   3.645   1.783  1.1159  1.4383 -0.6100
23387SOL    HW275009   8.022   3.758   1.804  0.6831  1.2591 -1.6126
23388SOL     OW75010   8.010   9.530   3.229  0.0926 -0.5437 -0.3562
23388SOL    HW175011   8.016   9.625   3.242 -0.5563 -0.4536 -0.6717
23388SOL    HW275012   7.973   9.520   3.141  1.7173 -1.1083 -1.0135
23389SOL     OW75013   2.980   2.213   5.821  0.1348  0.6630  0.0423
23389SOL    HW175014   2.900   2.263   5.807 -0.3743  0.5337  2.0748
23389SOL    HW275015   2.992   2.162   5.741 -2.1831  0.2297 -0.0961
23390SOL     OW75016   8.584   1.538   7.504  0.2417 -0.7400  0.0450
23390SOL    HW175017   8.649   1.606   7.523 -1.4738  0.4223  2.1979
23390SOL    HW275018   8.577   1.538   7.408  1.2675  1.1764 -0.0883
23391SOL     OW75019   3.802   1.620   1.310  0.3316  0.0882 -0.7089
23391SOL    HW175020   3.876   1.681   1.313 -0.0588  0.5812 -0.9146
23391SOL    HW275021   3.766   1.629   1.221 -0.8274  0.8958 -0.1829
23392SOL     OW75022   3.685   4.429   0.323 -0.4847 -0.4832 -0.6707
23392SOL    HW175023   3.609   4.385   0.361 -0.0832 -2.0034 -1.5319
23392SOL    HW275024   3.649   4.478   0.249 -0.9353  0.6368  0.2752
23393SOL     OW75025   7.041   0.466   0.701 -0.5677 -0.1651 -0.1222
23393SOL    HW175026   6.947   0.470   0.683 -0.6670  0.2629  0.4717
23393SOL    HW275027   7.071   0.386   0.658 -0.9826  0.3084 -1.3308
23394SOL     OW75028   5.674   0.107   1.294  0.4211 -0.4609 -0.8683
23394SOL    HW175029   5.760   0.138   1.322  0.5581 -0.7452 -0.9648
23394SOL    HW275030   5.636   0.066   1.372  0.6627 -0.9526 -1.0029
23395SOL     OW75031   1.245   0.576   9.179 -0.6127  0.1235  0.1898
23395SOL    HW175032   1.286   0.553   9.262  0.5367  1.9515  0.1974
23395SOL    HW275033   1.226   0.670   9.187 -3.2694 -0.2911 -0.5071
23396SOL     OW75034   6.828   3.313   8.460  0.1455  1.0680 -0.1076
23396SOL    HW175035   6.826   3.382   8.527  0.0074  0.8077  0.1630
23396SOL    HW275036   6.879   3.351   8.388 -2.3203  2.5515 -1.1960
23397SOL     OW75037   4.356   0.163   4.233  0.0501 -0.1688  0.2327
23397SOL    HW175038   4.344   0.254   4.207 -1.8928 -0.1101  1.1726
23397SOL    HW275039   4.412   0.126   4.165  0.1573  1.4967 -0.6342
23398SOL     OW75040   7.564   8.657   5.325  0.1575 -0.4482  0.5196
23398SOL    HW175041   7.591   8.570   5.297  1.2116 -0.5847  1.8676
23398SOL    HW275042   7.631   8.715   5.289 -1.7982  0.2034 -2.4622
23399SOL     OW75043   4.719   3.797   7.523  0.0479  0.7281  0.0591
23399SOL    HW175044   4.651   3.764   7.465  0.1178  0.1451  0.3032
23399SOL    HW275045   4.801   3.771   7.482  0.2010  2.5889 -0.9422
23400SOL     OW75046   7.864   7.900   2.559 -0.1476  0.2165 -0.5782
23400SOL    HW175047   7.866   7.938   2.647 -0.8062  1.3989 -1.0511
23400SOL    HW275048   7.824   7.814   2.570 -0.4485  0.4582  0.2374
23401SOL     OW75049   5.505   2.031   7.951  0.1617  0.1770 -0.0813
23401SOL    HW175050   5.419   2.031   7.910  1.6251 -1.1371 -3.5852
23401SOL    HW275051   5.509   2.112   8.001 -3.0852  0.2054  0.3129
23402SOL     OW75052   1.881   3.543   6.462  0.5347  0.3981  0.3292
23402SOL    HW175053   1.933   3.621   6.442 -1.7441  2.0529  0.4989
23402SOL    HW275054   1.945   3.479   6.494  2.6441  1.7446 -0.9642
23403SOL     OW75055   2.404   8.640   3.177 -0.6945  0.0997 -0.2330
23403SOL    HW175056   2.345   8.714   3.164 -1.3653 -0.5035 -0.6896
23403SOL    HW275057   2.452   8.633   3.095  0.3087  0.8273  0.2730
23404SOL     OW75058   3.135   3.530   0.533 -0.7382 -0.3967 -0.5618
23404SOL    HW175059   3.189   3.469   0.481  1.6185  1.3021 -0.2552
23404SOL    HW275060   3.049   3.525   0.492 -0.0924 -2.3891 -1.8454
23405SOL     OW75061   7.362   2.438   1.837 -0.3469 -0.3865  0.1154
23405SOL    HW175062   7.452   2.408   1.848 -0.6737 -0.9955  1.2617
23405SOL    HW275063   7.313   2.395   1.907 -1.4648  0.2334 -0.2520
23406SOL     OW75064   9.310   5.905   0.333 -0.4488 -0.3919 -0.1963
23406SOL    HW175065   9.308   5.810   0.329  1.9684 -0.4482 -2.0321
23406SOL    HW275066   9.340   5.924   0.422 -1.2860 -1.2981  0.3003
23407SOL     OW75067   8.893   7.213   9.600 -0.3085 -0.0792  0.0692
23407SOL    HW175068   8.973   7.192   9.648 -0.2299  2.5050  1.2168
23407SOL    HW275069   8.836   7.137   9.613  1.4433 -1.4251  0.2840
23408SOL     OW75070   7.470   2.673   8.806 -0.3693  0.4909  0.5387
23408SOL    HW175071   7.420   2.604   8.762  0.1082  0.5502 -0.1020
23408SOL    HW275072   7.561   2.645   8.800  0.0605  2.0661 -1.4356
23409SOL     OW75073   8.111   6.282   7.090  0.4228 -0.1725 -0.2445
23409SOL    HW175074   8.188   6.229   7.069  1.5148  0.2088  2.4403
23409SOL    HW275075   8.037   6.225   7.071  1.4721 -1.6857  0.0557
23410SOL     OW75076   4.545   5.971   2.112  0.4019 -0.2360  0.2612
23410SOL    HW175077   4.457   5.959   2.147  0.1101 -2.2707 -0.9869
23410SOL    HW275078   4.531   5.990   2.019  1.2617  0.2049  0.2117
23411SOL     OW75079   0.140   8.624   5.643  0.0030 -0.2548  0.1818
23411SOL    HW175080   0.067   8.590   5.693  0.0321 -2.4144 -1.1198
23411SOL    HW275081   0.117   8.715   5.625 -2.5691 -0.9645 -0.4960
23412SOL     OW75082   1.129   8.673   3.768 -0.0419 -0.4874 -0.1843
23412SOL    HW175083   1.105   8.592   3.813 -1.2910 -1.3409 -2.2374
23412SOL    HW275084   1.192   8.646   3.702  1.0827  0.5951  0.3981
23413SOL     OW75085   7.935   1.298   8.776  0.3992  0.2723  0.0546
23413SOL    HW175086   7.988   1.240   8.721 -0.3697 -1.1539  0.7649
23413SOL    HW275087   7.965   1.282   8.865 -1.4488 -0.9049  0.5326
23414SOL     OW75088   0.564   9.224   9.656  0.0277  0.3669 -0.2606
23414SOL    HW175089   0.620   9.198   9.729  0.4154  0.7845 -0.4051
23414SOL    HW275090   0.609   9.299   9.616  0.2456 -0.3510 -1.4179
23415SOL     OW75091   1.407   6.377   8.224 -0.3410  0.2393 -0.1146
23415SOL    HW175092   1.478   6.431   8.260 -0.9044  1.1793 -0.3952
23415SOL    HW275093   1.350   6.439   8.179 -0.7039 -0.6634 -0.9410
23416SOL     OW75094   7.073   7.964   3.226 -0.3272 -0.1713 -0.0323
23416SOL    HW175095   7.142   8.022   3.258 -0.6987  0.2171  0.0668
23416SOL    HW275096   7.034   7.927   3.305 -1.6037  1.2020  0.0288
23417SOL     OW75097   7.985   7.179   6.464 -0.2715  0.3599 -0.2721
23417SOL    HW175098   7.987   7.130   6.382 -1.4036  0.9931 -0.7024
23417SOL    HW275099   8.078   7.194   6.485  0.1513 -2.4717  0.2476
23418SOL     OW75100   2.642   7.237   2.494 -0.3174  0.4476  0.3119
23418SOL    HW175101   2.657   7.324   2.531  3.4282 -0.1020  0.4427
23418SOL    HW275102   2.643   7.251   2.400  2.8348  0.3799  0.2318
23419SOL     OW75103   8.196   6.429   8.024 -0.2463  0.4180  0.6611
23419SOL    HW175104   8.150   6.458   7.945 -0.9062 -1.2976  0.3663
23419SOL    HW275105   8.142   6.460   8.096  0.1535  1.6609  0.4545
23420SOL     OW75106   1.406   5.347   3.355 -0.0115 -0.8005  0.3714
23420SOL    HW175107   1.331   5.406   3.348  1.4994  1.1284 -4.6656
23420SOL    HW275108   1.392   5.283   3.285  2.7769 -0.5670 -0.5053
23421SOL     OW75109   8.865   2.610   4.329  0.1291  0.3499 -0.7320
23421SOL    HW175110   8.860   2.556   4.407 -2.5727  0.8181 -0.4858
23421SOL    HW275111   8.936   2.672   4.348  0.2804 -0.2558  0.8685
23422SOL     OW75112   5.535   1.894   3.551 -0.3207 -0.1198  0.2551
23422SOL    HW175113   5.498   1.982   3.561  1.1832  0.5155  0.5439
23422SOL    HW275114   5.459   1.836   3.543 -1.3405  1.1733  0.3032
23423SOL     OW75115   6.250   0.987   2.121  0.0078  0.3525 -0.0378
23423SOL    HW175116   6.310   0.961   2.051 -0.0280  2.0856 -0.7625
23423SOL    HW275117   6.209   0.906   2.149  0.5116 -0.4740 -1.5820
23424SOL     OW75118   9.293   2.608   6.578  0.5426 -0.1262 -0.1688
23424SOL    HW175119   9.222   2.546   6.561  0.0110  0.3822  0.1531
23424SOL    HW275120   9.249   2.687   6.607  1.3240 -0.4616  2.1363
23425SOL     OW75121   1.979   3.257   5.540  0.0972 -0.5830  0.3407
23425SOL    HW175122   1.890   3.223   5.540 -0.6078  1.0916  1.0568
23425SOL    HW275123   1.988   3.303   5.457  0.0538 -0.2269  0.5280
23426SOL     OW75124   0.271   5.489   2.782 -0.5648 -0.6678  0.2595
23426SOL    HW175125   0.323   5.431   2.726 -1.6880 -1.3039 -0.1498
23426SOL    HW275126   0.254   5.438   2.861  0.1306 -0.1459  0.7650
23427SOL     OW75127   5.342   6.961   6.729 -0.3984  0.5837  0.6529
23427SOL    HW175128   5.252   6.941   6.703 -0.0350 -1.2866  0.7191
23427SOL    HW275129   5.393   6.947   6.650  0.3539 -2.5084  1.5858
23428SOL     OW75130   6.464   8.086   9.369 -0.0894  0.2631 -0.5112
23428SOL    HW175131   6.532   8.031   9.409 -1.1813  0.9505  2.5897
23428SOL    HW275132   6.382   8.042   9.392 -0.9956  3.0190  2.0414
23429SOL     OW75133   3.079   6.440   6.560 -0.3574  0.0537  0.6848
23429SOL    HW175134   3.144   6.504   6.588 -1.0843  0.6344  1.1067
23429SOL    HW275135   3.124   6.384   6.497 -0.0727  1.8442 -0.7767
23430SOL     OW75136   1.056   0.216   1.504  0.3635  0.0844  0.0147
23430SOL    HW175137   1.070   0.204   1.410  2.0421 -0.3588  0.2878
23430SOL    HW275138   1.067   0.310   1.519  2.9811 -0.1419  0.1182
23431SOL     OW75139   6.001   7.291   8.566  0.2257 -0.1743  0.2522
23431SOL    HW175140   5.966   7.343   8.639  0.9278  0.3462  0.2274
23431SOL    HW275141   5.936   7.221   8.553 -1.3719  1.3928 -0.5410
23432SOL     OW75142   3.666   8.704   6.128 -0.3570 -0.6192 -0.3697
23432SOL    HW175143   3.739   8.643   6.130  0.5855  0.3308 -2.4338
23432SOL    HW275144   3.659   8.737   6.217  1.6203 -0.8883 -0.0681
23433SOL     OW75145   2.059   9.423   0.629 -0.2689  0.1324 -0.3049
23433SOL    HW175146   2.071   9.332   0.656  1.3437  0.3895 -0.0210
23433SOL    HW275147   1.971   9.426   0.591 -1.4514 -0.9054  2.1623
23434SOL     OW75148   7.339   5.932   4.296  0.1910 -0.4740 -0.0897
23434SOL    HW175149   7.427   5.926   4.258 -0.2768 -0.7082 -1.1934
23434SOL    HW275150   7.352   5.923   4.390  1.5766  1.7397 -0.0156
23435SOL     OW75151   1.622   8.892   3.930  0.3775 -0.8953 -0.2133
23435SOL    HW175152   1.689   8.826   3.948  0.8683 -0.3945 -0.1742
23435SOL    HW275153   1.628   8.953   4.004  0.6477 -0.2362 -0.7751
23436SOL     OW75154   1.247   1.999   1.901  0.1251  0.3009  0.7132
23436SOL    HW175155   1.192   2.011   1.978  0.1021 -1.2326  0.9662
23436SOL    HW275156   1.186   1.979   1.830  0.2833 -0.6568  0.8324
23437SOL     OW75157   8.050   5.284   1.325  0.3393 -0.0515  0.1510
23437SOL    HW175158   8.142   5.262   1.310  0.7258  1.6143 -0.1645
23437SOL    HW275159   8.009   5.201   1.350  1.8846 -0.8593  0.1374
23438SOL     OW75160   8.358   4.503   4.711 -0.0124 -0.1955  0.1647
23438SOL    HW175161   8.395   4.420   4.680  0.7313  0.3072 -0.3450
23438SOL    HW275162   8.416   4.570   4.675  1.1893  0.4421  2.9903
23439SOL     OW75163   7.811   3.192   2.636  0.2193 -0.4666  0.0821
23439SOL    HW175164   7.751   3.266   2.634  3.0260  1.9962 -0.4390
23439SOL    HW275165   7.818   3.168   2.728 -0.8943 -0.2603  0.2315
23440SOL     OW75166   7.863   5.446   8.366  0.0942  0.3153  0.1065
23440SOL    HW175167   7.928   5.476   8.429  0.1983  0.5429 -0.1078
23440SOL    HW275168   7.820   5.526   8.337  0.2562  0.2420 -0.3384
23441SOL     OW75169   4.311   6.302   6.353  0.0627 -0.1100  0.2610
23441SOL    HW175170   4.289   6.364   6.283 -0.9434  0.4921  1.0838
23441SOL    HW275171   4.358   6.232   6.309 -0.0328  0.5463 -0.9262
23442SOL     OW75172   3.673   9.145   5.879 -0.1959  0.1550 -0.5360
23442SOL    HW175173   3.585   9.175   5.902  0.0349  0.2547  0.2219
23442SOL    HW275174   3.661   9.054   5.852 -0.8217  0.7126 -2.3400
23443SOL     OW75175   8.367   5.923   6.780 -0.3549  0.1811  0.9255
23443SOL    HW175176   8.415   5.918   6.697 -1.0579 -3.3930  0.6017
23443SOL    HW275177   8.431   5.894   6.845 -0.2414  1.5984  1.4751
23444SOL     OW75178   2.052   7.105   3.676  0.3210 -0.6307  0.1089
23444SOL    HW175179   2.135   7.153   3.670 -0.6667  1.1661  0.1856
23444SOL    HW275180   2.027   7.113   3.768  0.1125 -1.2683  0.1091
23445SOL     OW75181   8.573   2.936   0.034 -0.2018 -0.0306 -0.1145
23445SOL    HW175182   8.621   2.889  -0.034 -0.2669 -0.2560 -0.0074
23445SOL    HW275183   8.536   3.012  -0.010  0.6409  0.4037 -0.1035
23446SOL     OW75184   2.856   4.683   9.169  0.7245 -0.2771 -0.9835
23446SOL    HW175185   2.885   4.608   9.221  0.1584 -0.9218 -1.5801
23446SOL    HW275186   2.937   4.730   9.148  1.2333 -1.4051 -1.6512
23447SOL     OW75187   6.685   7.194   2.634  0.6093 -0.3710 -0.1202
23447SOL    HW175188   6.699   7.122   2.694  0.4459 -1.3810 -1.2598
23447SOL    HW275189   6.744   7.263   2.665  0.6424 -0.9286  1.0774
23448SOL     OW75190   9.741   9.718   2.916 -0.4702  1.0660  0.4007
23448SOL    HW175191   9.659   9.750   2.879 -0.3390  0.7586 -0.1680
23448SOL    HW275192   9.809   9.760   2.863 -0.2983 -0.3171 -0.5332
23449SOL     OW75193   7.813   5.085   7.832 -0.0507 -0.2339 -0.3940
23449SOL    HW175194   7.889   5.036   7.863 -0.8821 -0.6736  1.0835
23449SOL    HW275195   7.849   5.152   7.774  1.3401 -1.0891 -0.5703
23450SOL     OW75196   5.325   3.751   8.986 -0.2624  0.2058  0.0617
23450SOL    HW175197   5.230   3.735   8.986 -0.8734  3.1300 -1.4503
23450SOL    HW275198   5.354   3.719   8.901 -0.5341  2.0402 -0.7712
23451SOL     OW75199   9.686   0.021   3.506  0.0643  0.0453 -0.3094
23451SOL    HW175200   9.646   0.078   3.441  0.3287 -0.0439 -0.5525
23451SOL    HW275201   9.630  -0.056   3.508 -1.4153  1.1038  1.4215
23452SOL     OW75202   0.279   5.644   4.893 -1.1902 -0.6025  0.0026
23452SOL    HW175203   0.221   5.596   4.833  1.2535 -0.8941 -2.2851
23452SOL    HW275204   0.332   5.699   4.836  1.5184 -1.1258  1.8642
23453SOL     OW75205   4.731   2.037   2.785  0.5151  0.3509 -0.2717
23453SOL    HW175206   4.713   2.110   2.845  2.6022 -0.7234  1.7917
23453SOL    HW275207   4.791   2.074   2.720 -0.1315  0.9986 -0.5113
23454SOL     OW75208   2.820   6.011   6.484 -0.6653  0.0374  0.0522
23454SOL    HW175209   2.816   5.937   6.424  0.9491 -1.2882  1.4635
23454SOL    HW275210   2.745   6.000   6.541 -1.8083  0.9116 -1.2099
23455SOL     OW75211   4.017   0.217   4.804  0.0148 -0.4527  0.8284
23455SOL    HW175212   4.003   0.137   4.754  0.2988  0.2328 -0.3849
23455SOL    HW275213   3.935   0.230   4.852  0.5296 -2.3247  2.3600
23456SOL     OW75214   4.826   6.377   6.818  0.6037 -0.0381  0.2856
23456SOL    HW175215   4.798   6.374   6.726 -0.7820 -0.1286  0.7018
23456SOL    HW275216   4.805   6.291   6.853 -0.1745  0.4561  1.0565
23457SOL     OW75217   4.997   7.180   5.811 -0.5078 -0.4494 -0.0203
23457SOL    HW175218   4.904   7.178   5.835 -0.0528 -1.3198  1.8248
23457SOL    HW275219   5.018   7.089   5.791 -0.5501  0.0525 -2.7720
23458SOL     OW75220   9.373   5.636   3.239 -0.2238  0.6762  0.3137
23458SOL    HW175221   9.429   5.654   3.164 -0.9900  2.5709  0.1448
23458SOL    HW275222   9.306   5.575   3.206  1.1660 -0.9198  0.3009
23459SOL     OW75223   3.202   4.078   4.263 -0.1578  0.1799  0.4237
23459SOL    HW175224   3.271   4.120   4.212  0.4861  2.1452  2.7531
23459SOL    HW275225   3.203   3.986   4.233  0.6900  1.0021 -2.4112
23460SOL     OW75226   3.407   6.078   4.957 -0.1181 -0.1960 -0.0395
23460SOL    HW175227   3.496   6.113   4.953 -0.1438 -0.0377  0.5333
23460SOL    HW275228   3.351   6.153   4.935 -0.0704 -0.6692 -1.9202
23461SOL     OW75229   9.248   2.426   6.804 -0.0381 -0.1618  0.0982
23461SOL    HW175230   9.235   2.520   6.788 -1.3609 -0.5186 -1.1254
23461SOL    HW275231   9.269   2.420   6.897  0.0304  1.3527  0.1987
23462SOL     OW75232   1.048   1.788   3.188  0.1952  0.2554 -0.6419
23462SOL    HW175233   0.972   1.781   3.247 -0.1582  0.2040 -1.0989
23462SOL    HW275234   1.123   1.762   3.242 -0.1739 -0.1547 -0.3171
23463SOL     OW75235   1.456   6.474   7.886  0.0904  0.3006  0.3070
23463SOL    HW175236   1.381   6.457   7.829  0.6548  0.2972 -0.4508
23463SOL    HW275237   1.477   6.388   7.924  0.7995 -0.0804 -0.8648
23464SOL     OW75238   5.174   5.769   6.223 -0.2997 -0.3170  0.0854
23464SOL    HW175239   5.257   5.812   6.243  0.2798 -2.0356  1.7223
23464SOL    HW275240   5.199   5.698   6.162 -0.5840 -0.6959  0.4055
23465SOL     OW75241   7.104   4.542   5.505  0.8545 -0.0627  0.3427
23465SOL    HW175242   7.174   4.532   5.441  0.0321 -0.2188 -0.5506
23465SOL    HW275243   7.087   4.453   5.536  2.4014  0.1809  2.0829
23466SOL     OW75244   5.473   8.203   4.871 -0.2021  0.0022 -0.2043
23466SOL    HW175245   5.460   8.295   4.849  1.8718  0.2759 -0.4471
23466SOL    HW275246   5.434   8.155   4.797 -2.3175  0.5891  0.4508
23467SOL     OW75247   6.111   3.374   2.833  0.7546 -0.1486  0.3243
23467SOL    HW175248   6.139   3.286   2.855 -1.0453 -0.5504  1.1721
23467SOL    HW275249   6.080   3.368   2.743 -1.5129 -0.9953  1.0908
23468SOL     OW75250   3.239   4.858   2.276  0.1405 -0.2122  0.1831
23468SOL    HW175251   3.202   4.825   2.194  1.0166  0.4386 -0.4958
23468SOL    HW275252   3.247   4.952   2.263  2.5415 -0.3598  0.0251
23469SOL     OW75253   7.838   4.430   7.828  0.7053 -0.1967 -0.3331
23469SOL    HW175254   7.770   4.495   7.845  0.3651 -0.8821  1.0495
23469SOL    HW275255   7.902   4.445   7.898  1.1729 -0.6267 -0.6673
23470SOL     OW75256   5.672   9.594   7.248  0.0158 -0.0156  0.5472
23470SOL    HW175257   5.602   9.628   7.303 -0.5188 -0.5260  0.1842
23470SOL    HW275258   5.753   9.622   7.292 -0.3711 -1.2722  2.1836
23471SOL     OW75259   1.539   0.886   6.428 -0.0566 -0.5538 -0.3029
23471SOL    HW175260   1.560   0.952   6.495 -0.1018 -0.2973 -0.5400
23471SOL    HW275261   1.561   0.802   6.470  2.7603 -0.2616 -0.9712
23472SOL     OW75262   1.333   1.861   3.028  0.1917 -0.5057 -0.0834
23472SOL    HW175263   1.278   1.884   3.102  1.0314 -2.4897  1.2424
23472SOL    HW275264   1.310   1.925   2.960  0.7908  2.6268  2.4444
23473SOL     OW75265   5.526   7.336   6.193 -0.0921  0.3681 -0.0796
23473SOL    HW175266   5.460   7.361   6.258  1.6627  2.2968  1.0631
23473SOL    HW275267   5.524   7.407   6.128  1.1166  0.6601  0.1908
23474SOL     OW75268   1.694   4.650   4.886 -0.7170  0.1529  0.3380
23474SOL    HW175269   1.635   4.587   4.845  2.0397 -1.4165 -1.6310
23474SOL    HW275270   1.692   4.727   4.829 -1.3399  0.3675  0.6492
23475SOL     OW75271   8.515   4.271   3.509 -0.7493 -0.1686 -0.0453
23475SOL    HW175272   8.446   4.336   3.521 -0.0902  0.4666  0.3647
23475SOL    HW275273   8.523   4.229   3.595 -1.1499 -0.7738 -0.3000
23476SOL     OW75274   9.663   9.169   3.855 -0.0137  0.0712  0.8114
23476SOL    HW175275   9.660   9.258   3.891 -0.0603  0.2676  0.3237
23476SOL    HW275276   9.755   9.142   3.866 -0.0448  0.1027  1.1459
23477SOL     OW75277   8.467   0.676   7.539 -0.4859 -0.3084 -0.1441
23477SOL    HW175278   8.555   0.670   7.576  0.1622 -0.8786 -1.7013
23477SOL    HW275279   8.479   0.725   7.457 -2.1181  2.3353  1.0815
23478SOL     OW75280   1.698   0.530   5.952 -0.1233  0.2880  0.6291
23478SOL    HW175281   1.714   0.518   5.858 -1.1663  3.4485 -0.0451
23478SOL    HW275282   1.603   0.528   5.960 -0.0283 -0.6282  1.7966
23479SOL     OW75283   6.360   9.232   8.196  0.3384 -0.3360  0.5727
23479SOL    HW175284   6.273   9.204   8.225 -0.0890 -0.8699 -1.1123
23479SOL    HW275285   6.400   9.272   8.274 -1.3436 -0.2090  1.4095
23480SOL     OW75286   2.806   6.487   0.968 -0.3611 -0.1169 -0.1893
23480SOL    HW175287   2.860   6.554   0.925 -0.6553 -0.7131 -1.5480
23480SOL    HW275288   2.782   6.426   0.897 -2.3044 -0.2134  0.4862
23481SOL     OW75289   3.061   8.162   9.582  0.2063 -0.1082  0.1559
23481SOL    HW175290   3.151   8.160   9.614  0.2680  0.4094  0.0172
23481SOL    HW275291   3.066   8.202   9.496 -0.3691  1.7348  0.9164
23482SOL     OW75292   2.472   7.500   8.933  0.2551 -0.1793  0.0186
23482SOL    HW175293   2.565   7.499   8.910  0.3142 -2.4123  0.1248
23482SOL    HW275294   2.470   7.496   9.029  0.0048  1.6722  0.1307
23483SOL     OW75295   5.009   6.288   6.317 -0.2934  0.6349 -0.1450
23483SOL    HW175296   4.974   6.293   6.406  0.3350  0.0552  0.1360
23483SOL    HW275297   5.000   6.196   6.292 -1.9549  1.0653 -1.3050
23484SOL     OW75298   4.787   2.057   1.757 -0.0224  0.6679  0.5663
23484SOL    HW175299   4.877   2.061   1.787  0.2299  0.9760 -0.2120
23484SOL    HW275300   4.786   1.989   1.689 -0.2305  1.1129  0.1138
23485SOL     OW75301   4.449   6.349   5.736  0.0267  0.1320 -0.2726
23485SOL    HW175302   4.543   6.351   5.720  0.0833  0.7207  0.1168
23485SOL    HW275303   4.409   6.361   5.650  0.3133  1.1338 -0.2750
23486SOL     OW75304   2.255   3.590   7.271 -0.1651 -0.2756  0.3050
23486SOL    HW175305   2.252   3.502   7.310  1.6246 -0.6866 -0.4131
23486SOL    HW275306   2.283   3.647   7.343  0.9608 -0.6782  0.1955
23487SOL     OW75307   5.686   9.114   3.583  0.3886  0.5110 -0.7670
23487SOL    HW175308   5.685   9.126   3.678  0.2787 -1.8881 -0.4037
23487SOL    HW275309   5.630   9.184   3.549  1.2718  2.0617  0.8165
23488SOL     OW75310   2.985   1.885   3.022  0.0983 -0.1218 -0.0985
23488SOL    HW175311   3.024   1.967   3.052  0.2841 -0.9635  2.1728
23488SOL    HW275312   3.057   1.822   3.024 -0.4414 -0.7469 -0.0173
23489SOL     OW75313   0.047   5.940   6.005 -0.4109 -0.1181  0.1693
23489SOL    HW175314   0.029   5.856   6.048 -0.2712 -0.1994  0.0696
23489SOL    HW275315   0.142   5.941   5.994 -0.4836 -0.2888 -0.5205
23490SOL     OW75316   9.659   6.121   4.028  0.6131 -0.1180  0.4957
23490SOL    HW175317   9.712   6.199   4.016 -0.1171  0.1415 -1.2559
23490SOL    HW275318   9.680   6.065   3.953  0.7594 -1.4178  1.4551
23491SOL     OW75319   0.700   1.761   2.740 -0.6570  0.0581 -0.3293
23491SOL    HW175320   0.639   1.835   2.747  0.2574  0.8210 -0.2499
23491SOL    HW275321   0.771   1.794   2.685  0.2205 -0.4483  0.4745
23492SOL     OW75322   2.467   8.763   0.762 -0.1625 -0.0425 -0.3210
23492SOL    HW175323   2.511   8.679   0.750  0.2868  0.2554 -0.8135
23492SOL    HW275324   2.538   8.824   0.781 -0.3829  0.4107 -0.9282
23493SOL     OW75325   2.338   3.208   1.106  0.5376  0.6005  0.6532
23493SOL    HW175326   2.395   3.131   1.094  0.1685  0.7136 -2.5052
23493SOL    HW275327   2.249   3.173   1.097  0.3053  1.1903  0.6388
23494SOL     OW75328   1.482   8.008   8.200 -0.2024  0.2759 -0.1918
23494SOL    HW175329   1.559   8.039   8.152  0.3034 -0.2459  0.2731
23494SOL    HW275330   1.516   7.977   8.283 -0.7137 -1.3995 -0.5716
23495SOL     OW75331   7.180   7.192   1.399  0.1836  0.5009 -0.4720
23495SOL    HW175332   7.169   7.098   1.385 -2.4686  0.5317  0.8176
23495SOL    HW275333   7.095   7.230   1.376  0.3796  2.2349  1.3588
23496SOL     OW75334   6.270   7.444   7.738  0.2386 -0.7770 -0.3078
23496SOL    HW175335   6.212   7.469   7.666  0.1613 -1.0709 -0.3497
23496SOL    HW275336   6.334   7.385   7.698  0.3162 -0.7816 -0.1762
23497SOL     OW75337   7.565   9.102   6.823  0.1177 -0.0363  0.1586
23497SOL    HW175338   7.638   9.133   6.770  0.2406  0.9062  0.8475
23497SOL    HW275339   7.509   9.179   6.834 -1.2333 -0.8575 -0.7318
23498SOL     OW75340   3.926   9.090   8.739  0.1846 -0.1684  0.7153
23498SOL    HW175341   3.844   9.073   8.786  0.1984  1.2501  1.2974
23498SOL    HW275342   3.913   9.176   8.698  1.1967 -0.1541  0.3916
23499SOL     OW75343   1.703   2.427   9.058 -0.3876  0.1555  0.3192
23499SOL    HW175344   1.738   2.350   9.014  1.7825  0.4338  1.3860
23499SOL    HW275345   1.657   2.392   9.135  0.1224 -0.1213  0.5047
23500SOL     OW75346   3.921   7.468   7.312  0.2056 -0.1029 -0.9339
23500SOL    HW175347   3.893   7.450   7.222 -2.6790  2.0961 -0.6091
23500SOL    HW275348   3.979   7.544   7.304 -2.0265  1.6991 -0.8281
23501SOL     OW75349   2.181   1.104   9.354 -0.3089  0.0374  0.3734
23501SOL    HW175350   2.143   1.021   9.327  1.2130 -0.0549 -1.8002
23501SOL    HW275351   2.107   1.157   9.382 -1.6029 -1.2617 -0.4500
23502SOL     OW75352   9.496   2.447   1.959  0.2311  0.0731 -0.0366
23502SOL    HW175353   9.469   2.479   2.045 -1.8713 -1.1569 -0.1660
23502SOL    HW275354   9.450   2.503   1.896  1.0570  0.3995 -0.3705
23503SOL     OW75355   4.298   5.446   7.679  0.1483  0.1995 -0.4718
23503SOL    HW175356   4.273   5.411   7.765 -0.7018 -0.6757 -1.0635
23503SOL    HW275357   4.232   5.512   7.659 -1.1617 -1.3593 -1.5505
23504SOL     OW75358   2.957   1.712   8.409  0.3395 -0.1076  0.3768
23504SOL    HW175359   3.028   1.760   8.367 -0.0735  1.0639  0.9826
23504SOL    HW275360   2.944   1.756   8.493 -2.7896  1.4163 -0.7236
23505SOL     OW75361   8.362   2.581   0.672  0.4342  0.3936  0.0873
23505SOL    HW175362   8.331   2.512   0.731  1.6371 -0.2714 -0.0119
23505SOL    HW275363   8.434   2.623   0.720 -0.0630  1.3562  0.0032
23506SOL     OW75364   5.755   6.143   3.697  0.5511  0.0880 -0.1152
23506SOL    HW175365   5.834   6.161   3.646  0.6490  0.5077  0.1849
23506SOL    HW275366   5.708   6.078   3.645  0.7248  0.3992 -0.6729
23507SOL     OW75367   9.587   7.434   6.831 -0.5233 -0.4942 -0.2247
23507SOL    HW175368   9.507   7.438   6.884  0.0974 -0.7607  0.7412
23507SOL    HW275369   9.642   7.505   6.864 -0.4023 -0.2156 -0.9896
23508SOL     OW75370   7.551   5.000   2.865 -0.0250 -0.2824  0.5368
23508SOL    HW175371   7.488   4.946   2.819 -0.8195  0.3359  0.8820
23508SOL    HW275372   7.606   4.937   2.913 -0.5870 -0.8102  0.5027
23509SOL     OW75373   5.282   8.007   8.652 -0.3452 -0.3012 -0.0817
23509SOL    HW175374   5.329   7.924   8.657 -1.4206 -0.9157  0.2143
23509SOL    HW275375   5.190   7.982   8.652 -0.7001  0.9220  0.5839
23510SOL     OW75376   7.980   8.564   8.899  0.5724  0.1470 -0.1104
23510SOL    HW175377   7.907   8.564   8.960 -1.2764  3.0625 -2.0852
23510SOL    HW275378   7.986   8.473   8.869 -1.0479 -0.5074  1.3925
23511SOL     OW75379   6.180   4.331   8.066  0.0233  0.3311 -0.2475
23511SOL    HW175380   6.138   4.255   8.105 -3.7648  0.9016 -2.7053
23511SOL    HW275381   6.238   4.295   7.999 -1.2857 -0.4770 -0.9820
23512SOL     OW75382   8.093   8.551   0.800  0.0739  0.3489  0.2395
23512SOL    HW175383   8.102   8.643   0.775 -0.2575  0.3561  0.1513
23512SOL    HW275384   8.025   8.517   0.743 -0.3279  0.2371  0.7753
23513SOL     OW75385   9.300   4.239   0.574 -0.1207  0.2282  0.2739
23513SOL    HW175386   9.365   4.294   0.530 -1.1525 -0.2920 -2.0255
23513SOL    HW275387   9.349   4.197   0.645  1.1642  2.5179  0.8451
23514SOL     OW75388   0.857   3.514   3.658  0.1233 -0.2082 -0.3240
23514SOL    HW175389   0.872   3.609   3.658  0.5837 -0.2676 -1.2176
23514SOL    HW275390   0.898   3.483   3.739 -1.5787  0.5664  0.8848
23515SOL     OW75391   3.466   8.731   0.174 -0.5926 -0.2254  0.2753
23515SOL    HW175392   3.405   8.709   0.104 -0.1612  0.2297 -0.2527
23515SOL    HW275393   3.500   8.647   0.205 -2.2584 -0.5663  1.3001
23516SOL     OW75394   9.125   6.300   5.745  0.2628 -0.2300 -0.0598
23516SOL    HW175395   9.160   6.290   5.834  2.0354  0.9446 -0.5693
23516SOL    HW275396   9.082   6.216   5.727 -2.3609  0.3173  2.7708
23517SOL     OW75397   1.239   4.645   1.290 -0.2111 -0.5029  0.3117
23517SOL    HW175398   1.221   4.719   1.232  2.6541 -0.4052 -0.5661
23517SOL    HW275399   1.191   4.667   1.370 -0.2749  1.8148 -0.2694
23518SOL     OW75400   5.013   4.918   1.362 -0.3125  0.2070 -0.2883
23518SOL    HW175401   4.964   4.992   1.399 -1.2308  0.9733 -2.7750
23518SOL    HW275402   4.946   4.852   1.345  0.2294 -0.4875  0.2484
23519SOL     OW75403   6.941   3.137   2.919  0.2023  0.1731 -1.1857
23519SOL    HW175404   6.897   3.055   2.943  1.0174 -0.7913 -2.7850
23519SOL    HW275405   6.984   3.165   3.000 -0.6353 -0.6224 -0.4390
23520SOL     OW75406   8.996   9.130   7.397  0.0177 -0.7369 -0.1075
23520SOL    HW175407   8.968   9.162   7.311 -1.8748  0.9699  1.0549
23520SOL    HW275408   8.934   9.060   7.418 -1.0078  0.3885  0.7835
23521SOL     OW75409   5.677   8.248   1.642  0.2235  0.2313  0.3973
23521SOL    HW175410   5.646   8.160   1.664 -0.6828  0.4223 -0.0624
23521SOL    HW275411   5.632   8.306   1.704 -0.6858  0.5533 -0.5391
23522SOL     OW75412   4.091   2.021   8.177 -0.0991  0.0161 -0.2436
23522SOL    HW175413   4.146   1.950   8.144 -0.2736 -0.1649 -0.1491
23522SOL    HW275414   4.106   2.022   8.272  1.6536  1.5938 -0.4867
23523SOL     OW75415   2.900   9.049   8.678  0.7124 -0.1082 -0.1669
23523SOL    HW175416   2.837   9.121   8.685  1.4034  0.5798 -0.8481
23523SOL    HW275417   2.919   9.025   8.769  0.1335  0.2542  0.0609
23524SOL     OW75418   0.106   3.067   3.996  0.3820 -0.0637 -0.2352
23524SOL    HW175419   0.034   3.033   4.048  0.2199  1.5047  0.6323
23524SOL    HW275420   0.175   3.002   4.004  1.0186  0.8357  3.4480
23525SOL     OW75421   0.806   2.068   5.924  0.0648  0.2504  0.4849
23525SOL    HW175422   0.890   2.034   5.892 -0.5948 -0.1347 -0.9156
23525SOL    HW275423   0.749   2.067   5.847 -1.9331 -1.6665  1.8995
23526SOL     OW75424   0.434   8.785   3.842 -0.3525 -0.5267 -0.6125
23526SOL    HW175425   0.465   8.815   3.928  0.6330 -0.0852 -1.1052
23526SOL    HW275426   0.415   8.692   3.855  0.2932 -0.5893 -0.0419
23527SOL     OW75427   8.829   3.013   3.194  0.5880  0.1546 -0.1524
23527SOL    HW175428   8.907   2.965   3.220  0.5214 -0.5027 -1.1303
23527SOL    HW275429   8.783   2.955   3.134 -0.6965  0.5038  0.4549
23528SOL     OW75430   9.372   1.384   5.529  0.5417 -0.4281  0.1876
23528SOL    HW175431   9.462   1.382   5.496  0.4838  0.1131 -0.0156
23528SOL    HW275432   9.327   1.447   5.471 -0.0884 -1.0612 -0.0234
23529SOL     OW75433   1.653   7.291   1.309  0.2529  0.0058 -0.1612
23529SOL    HW175434   1.649   7.369   1.364  1.3151  1.6325 -2.2209
23529SOL    HW275435   1.579   7.301   1.249  1.4943  0.5150 -1.6855
23530SOL     OW75436   3.638   8.639   0.536  0.1485  0.5904  0.2746
23530SOL    HW175437   3.707   8.579   0.565  0.6247  0.7137 -0.5675
23530SOL    HW275438   3.572   8.635   0.605 -0.5714 -2.1226 -0.4404
23531SOL     OW75439   2.825   4.848   5.350 -0.0406 -0.1570 -0.0695
23531SOL    HW175440   2.762   4.858   5.422 -0.5930  0.0034 -0.5713
23531SOL    HW275441   2.840   4.754   5.345 -0.6923 -0.2533 -0.3275
23532SOL     OW75442   3.868   4.110   3.847  0.2607  0.5129  0.2153
23532SOL    HW175443   3.893   4.100   3.755  0.7418 -0.3546  0.4312
23532SOL    HW275444   3.775   4.131   3.844  0.1580  0.0094 -0.4628
23533SOL     OW75445   4.293   1.098   0.351  0.6031  0.0322  0.1394
23533SOL    HW175446   4.243   1.140   0.281  1.2056  0.3090 -0.1283
23533SOL    HW275447   4.375   1.071   0.309  1.4036  1.1095  0.9606
23534SOL     OW75448   6.975   5.527   6.501  0.5202 -0.3989  0.3396
23534SOL    HW175449   6.946   5.617   6.517  0.3988 -0.4370  0.3295
23534SOL    HW275450   6.899   5.472   6.522  0.8150 -0.5484  1.0372
23535SOL     OW75451   3.060   0.290   3.953  0.1052 -0.1160 -0.1266
23535SOL    HW175452   2.973   0.321   3.929 -0.7370 -0.5018  2.1981
23535SOL    HW275453   3.107   0.282   3.869 -2.1500 -0.1497 -1.4529
23536SOL     OW75454   6.735   7.496   7.693  0.0820  0.4680 -0.2049
23536SOL    HW175455   6.683   7.548   7.632 -1.1116 -0.9912 -0.4662
23536SOL    HW275456   6.673   7.466   7.759  0.5921 -1.2305 -0.4673
23537SOL     OW75457   5.073   1.380   4.817 -0.0229  0.3460  0.4035
23537SOL    HW175458   5.003   1.436   4.851 -0.7620 -1.1772  1.5014
23537SOL    HW275459   5.068   1.392   4.722 -1.1014  1.0351  0.5195
23538SOL     OW75460   8.435   8.300   5.086  0.0326  0.1175 -0.7813
23538SOL    HW175461   8.358   8.308   5.030 -2.0198  0.6872  1.9005
23538SOL    HW275462   8.455   8.390   5.113  0.5117 -0.2030 -0.0317
23539SOL     OW75463   1.490   4.828   5.659 -0.4232 -0.2464 -0.5798
23539SOL    HW175464   1.407   4.875   5.647 -1.0825 -0.4959  2.2770
23539SOL    HW275465   1.553   4.897   5.681 -0.8423 -0.3904  1.2167
23540SOL     OW75466   1.290   6.615   9.461 -0.3828 -0.4030 -0.0605
23540SOL    HW175467   1.366   6.635   9.407 -0.3587  1.2004  0.5074
23540SOL    HW275468   1.325   6.602   9.549 -0.5242 -2.0339 -0.2276
23541SOL     OW75469   4.358   6.952   2.774  0.5844  0.2586  0.3372
23541SOL    HW175470   4.342   7.025   2.713  0.4070 -0.4057 -0.4263
23541SOL    HW275471   4.409   6.890   2.722  0.7978 -0.1297  1.0123
23542SOL     OW75472   4.515   8.811   8.878  0.1656  0.1474 -0.4643
23542SOL    HW175473   4.582   8.878   8.882  0.4833 -0.2133  0.6595
23542SOL    HW275474   4.509   8.788   8.785  2.0827 -0.2899 -0.5192
23543SOL     OW75475   5.920   0.797   7.288 -0.5688  0.2418  0.5093
23543SOL    HW175476   5.916   0.856   7.212  0.6259 -0.8443 -0.4397
23543SOL    HW275477   5.957   0.851   7.358  1.5197  0.3902 -0.6268
23544SOL     OW75478   7.752   2.221   1.292  0.0539 -0.4684 -0.2754
23544SOL    HW175479   7.716   2.196   1.207  1.3301  0.5284 -1.1315
23544SOL    HW275480   7.806   2.146   1.318 -2.0577 -1.7640  0.7878
23545SOL     OW75481   1.631   3.361   1.421  0.2497 -0.2665 -0.0540
23545SOL    HW175482   1.608   3.274   1.387 -0.1852 -0.0324 -0.3763
23545SOL    HW275483   1.720   3.376   1.389  0.2797 -0.5403 -0.1072
23546SOL     OW75484   6.564   6.201   1.828 -0.3348 -0.6267  0.2121
23546SOL    HW175485   6.563   6.106   1.817  0.6078 -0.5787 -0.3768
23546SOL    HW275486   6.473   6.227   1.814 -0.5407 -1.4068  0.0464
23547SOL     OW75487   9.590   8.148   8.870  0.3100 -0.2596  0.5852
23547SOL    HW175488   9.576   8.143   8.964  1.0820 -0.4152  0.6975
23547SOL    HW275489   9.509   8.188   8.836  0.4030  0.6791  1.4092
23548SOL     OW75490   6.988   4.922   7.565 -0.1327 -0.3621 -0.4818
23548SOL    HW175491   7.052   4.966   7.620 -0.2177  0.6632 -1.1701
23548SOL    HW275492   7.032   4.843   7.535  1.1858  0.7962 -1.7233
23549SOL     OW75493   9.567   7.942   2.162 -0.2784  0.4109  0.1339
23549SOL    HW175494   9.629   7.888   2.212 -0.2237  0.5866  0.2590
23549SOL    HW275495   9.497   7.882   2.137  0.0550  0.1587 -0.2062
23550SOL     OW75496   3.495   1.020   7.280 -0.1168  0.6340  0.4808
23550SOL    HW175497   3.567   1.041   7.221 -1.1340 -1.2217 -1.5502
23550SOL    HW275498   3.534   0.963   7.347  0.8793  2.1201  1.2208
23551SOL     OW75499   6.321   6.402   3.129 -0.3028 -0.4842  0.3512
23551SOL    HW175500   6.375   6.446   3.195 -1.9890  0.6857  1.0218
23551SOL    HW275501   6.273   6.335   3.178 -0.0912 -0.9762 -0.0959
23552SOL     OW75502   8.378   9.372   5.974 -0.1826  0.6708  0.0720
23552SOL    HW175503   8.338   9.444   5.924  1.4913  1.3002 -0.4180
23552SOL    HW275504   8.381   9.405   6.064 -3.3593 -0.5303  0.7610
23553SOL     OW75505   3.266   6.049   5.617 -0.0164  0.1675 -0.1060
23553SOL    HW175506   3.317   6.037   5.536  0.3618  1.8349 -0.1595
23553SOL    HW275507   3.223   6.134   5.605 -0.9924 -0.1687  0.9135
23554SOL     OW75508   5.753   3.356   6.061  0.2378  0.0988  0.2668
23554SOL    HW175509   5.824   3.362   6.124  0.4708  0.7545 -0.0482
23554SOL    HW275510   5.720   3.446   6.053 -0.4072 -0.1372  0.1581
23555SOL     OW75511   9.378   1.754   8.911  0.3361 -0.0190  0.3241
23555SOL    HW175512   9.289   1.769   8.942  0.8199 -1.6951  2.7316
23555SOL    HW275513   9.373   1.672   8.861  0.8088 -1.1483  2.0599
23556SOL     OW75514   1.511   5.614   5.993  0.1141 -0.2053  0.6120
23556SOL    HW175515   1.466   5.553   5.936 -2.0142  0.9230  0.9616
23556SOL    HW275516   1.557   5.559   6.056 -1.9859 -1.5005  1.1259
23557SOL     OW75517   6.462   9.355   8.415  0.0901  0.1142 -0.0834
23557SOL    HW175518   6.432   9.391   8.498  0.1541  1.6247 -0.6934
23557SOL    HW275519   6.558   9.360   8.420  0.0758  1.6814 -0.8412
23558SOL     OW75520   1.060   2.618   5.102 -0.3473 -0.3723  0.2518
23558SOL    HW175521   1.142   2.665   5.116  1.0246 -2.1381 -1.3243
23558SOL    HW275522   1.037   2.638   5.011 -0.8942 -1.0537  0.2328
23559SOL     OW75523   1.975   4.439   4.691 -0.0215  0.2713  0.4015
23559SOL    HW175524   2.017   4.496   4.755  0.8898 -1.2246  1.1804
23559SOL    HW275525   2.001   4.475   4.606 -1.9957  2.8393  0.7582
23560SOL     OW75526   3.490   6.117   3.769 -0.2456  0.3428 -1.0085
23560SOL    HW175527   3.510   6.149   3.857 -0.9126 -2.2930  0.2086
23560SOL    HW275528   3.406   6.157   3.747 -0.1927  0.8241 -0.3569
23561SOL     OW75529   5.886   5.633   4.220  0.5395 -0.1693 -0.2975
23561SOL    HW175530   5.936   5.697   4.169  0.2849  0.6539  0.4429
23561SOL    HW275531   5.803   5.677   4.239  0.0145 -1.0558 -0.4915
23562SOL     OW75532   0.215   6.571   4.952  0.2734  0.3537  0.4399
23562SOL    HW175533   0.153   6.538   4.888  1.0760  2.1579 -1.3601
23562SOL    HW275534   0.267   6.495   4.977  0.4214 -0.2841 -1.6535
23563SOL     OW75535   4.985   1.621   3.562  0.0629 -0.3194  0.4888
23563SOL    HW175536   5.029   1.659   3.486 -2.2531  2.2750  0.3070
23563SOL    HW275537   5.025   1.665   3.637 -0.2258 -0.0828  0.5062
23564SOL     OW75538   7.487   8.566   8.993  0.4372  0.1520 -0.5995
23564SOL    HW175539   7.418   8.501   9.007  1.6807 -1.1734 -0.4174
23564SOL    HW275540   7.441   8.650   8.993 -1.1062 -0.6573 -0.0331
23565SOL     OW75541   6.137   9.353   8.715  0.1412  0.0053 -0.2906
23565SOL    HW175542   6.134   9.326   8.623  0.7034 -0.0524 -0.2956
23565SOL    HW275543   6.230   9.349   8.739  0.1448  1.1393 -0.0454
23566SOL     OW75544   2.532   8.423   4.727 -0.3740  0.5344  0.4444
23566SOL    HW175545   2.465   8.435   4.661 -3.5288  0.8108  3.3945
23566SOL    HW275546   2.558   8.331   4.719 -1.3495  0.3313 -0.5924
23567SOL     OW75547   9.378   2.645   4.618 -0.0719  0.0730  0.7197
23567SOL    HW175548   9.287   2.645   4.589  0.0418 -0.4741  0.3345
23567SOL    HW275549   9.416   2.567   4.576  0.6272  0.4259  0.6863
23568SOL     OW75550   8.543   4.416   7.345  0.4566  0.4416 -0.3090
23568SOL    HW175551   8.588   4.413   7.429 -0.5791  2.1932  0.3453
23568SOL    HW275552   8.613   4.435   7.282  1.0507  0.3628  0.3083
23569SOL     OW75553   8.075   3.063   7.415 -0.4874  0.0096 -0.3005
23569SOL    HW175554   8.069   3.159   7.414  1.2090  0.1393 -1.2379
23569SOL    HW275555   7.990   3.035   7.449 -0.7222  1.8571  0.7925
23570SOL     OW75556   4.185   0.043   0.119 -0.2706 -0.1839  1.0045
23570SOL    HW175557   4.263   0.010   0.163  0.5783 -1.3321 -1.2256
23570SOL    HW275558   4.134  -0.036   0.099  0.6821 -0.0876 -2.3721
23571SOL     OW75559   5.604   5.036   7.056  0.2543 -0.1231 -0.5256
23571SOL    HW175560   5.511   5.038   7.032  0.2938  0.3409 -0.6498
23571SOL    HW275561   5.619   4.947   7.088 -0.8129  0.4822  1.8397
23572SOL     OW75562   1.396   0.269   7.836 -0.1248 -0.4292 -0.0101
23572SOL    HW175563   1.333   0.264   7.908  0.1362  0.1384  0.2656
23572SOL    HW275564   1.479   0.243   7.876  0.9193  3.8227  1.0341
23573SOL     OW75565   3.748   5.778   8.208 -0.1497 -0.3939 -0.4586
23573SOL    HW175566   3.821   5.731   8.247  1.3629 -1.7971 -4.4752
23573SOL    HW275567   3.757   5.867   8.241  1.9803 -1.0336  0.9190
23574SOL     OW75568   2.869   2.140   4.227 -0.6060  0.2850  0.4786
23574SOL    HW175569   2.907   2.157   4.140  0.2283 -1.6609  0.3905
23574SOL    HW275570   2.789   2.191   4.229 -0.5390  0.5387 -1.3685
23575SOL     OW75571   4.388   8.049   9.174  0.3628  0.5864 -0.2820
23575SOL    HW175572   4.383   8.119   9.239 -0.6321 -0.7545  1.1909
23575SOL    HW275573   4.297   8.032   9.151  0.4502 -1.0699  0.4126
23576SOL     OW75574   0.762   5.445   3.277 -0.1750 -0.0714 -0.8850
23576SOL    HW175575   0.826   5.433   3.207 -0.4540 -0.9487 -1.0056
23576SOL    HW275576   0.805   5.504   3.339  0.0804  0.7178 -1.7811
23577SOL     OW75577   2.712   1.325   4.465  0.1785 -0.1395  0.3122
23577SOL    HW175578   2.757   1.396   4.511  0.3590  0.9386 -1.4625
23577SOL    HW275579   2.638   1.367   4.422 -0.2351 -1.2004 -0.0477
23578SOL     OW75580   5.129   1.986   6.836 -0.2027  0.4342  0.2230
23578SOL    HW175581   5.204   1.969   6.893 -0.2439  0.3191  0.2424
23578SOL    HW275582   5.146   1.931   6.758 -0.2309  0.4630  0.1966
23579SOL     OW75583   6.503   1.347   8.218 -0.7873  0.4783 -0.0392
23579SOL    HW175584   6.479   1.427   8.172  0.7983  1.4325  0.7450
23579SOL    HW275585   6.430   1.331   8.278 -1.8593  0.4083 -1.3079
23580SOL     OW75586   9.364   7.445   1.243 -0.2207  0.8671 -0.3279
23580SOL    HW175587   9.338   7.504   1.172 -0.8778  0.8400 -0.1210
23580SOL    HW275588   9.453   7.418   1.221 -0.3819  0.9382 -1.0892
23581SOL     OW75589   7.874   0.947   6.104 -0.3577  0.3290  0.2657
23581SOL    HW175590   7.940   0.962   6.036  0.7453  0.8518  1.4202
23581SOL    HW275591   7.882   0.854   6.125  0.2468  0.4581  0.6296
23582SOL     OW75592   1.932   6.894   1.787 -0.6785  0.2815  0.1181
23582SOL    HW175593   2.001   6.835   1.816 -2.0962 -0.9363  1.1782
23582SOL    HW275594   1.973   6.980   1.784  1.2978 -0.6285 -0.8945
23583SOL     OW75595   0.587   4.181   5.410  0.3726 -0.1120 -0.3856
23583SOL    HW175596   0.539   4.168   5.328  0.5936  0.4401 -0.6037
23583SOL    HW275597   0.522   4.163   5.478  1.3481 -5.8981 -0.4470
23584SOL     OW75598   4.150   4.673   9.706  0.0891  0.1472  0.6134
23584SOL    HW175599   4.165   4.740   9.640 -0.2239 -0.8270 -0.4846
23584SOL    HW275600   4.164   4.590   9.660  1.6068 -0.5510  2.2186
23585SOL     OW75601   6.696   1.084   1.966 -0.4870  0.5180  0.1433
23585SOL    HW175602   6.782   1.067   1.928  1.4239  2.3735  3.1148
23585SOL    HW275603   6.683   1.014   2.029 -0.2340  1.1852  0.9657
23586SOL     OW75604   7.892   8.616   4.046  0.3059 -0.4203 -0.2836
23586SOL    HW175605   7.917   8.564   3.969 -0.3584  0.4958 -1.1313
23586SOL    HW275606   7.869   8.550   4.112 -1.5234 -1.2402 -1.6636
23587SOL     OW75607   4.165   0.750   9.022  0.3830 -0.4172 -0.5454
23587SOL    HW175608   4.246   0.796   8.996  0.6643 -1.4195 -1.5245
23587SOL    HW275609   4.098   0.787   8.965  0.6671 -1.3800 -1.5502
23588SOL     OW75610   3.379   4.112   2.850 -0.0198 -0.3504  0.4956
23588SOL    HW175611   3.356   4.031   2.805  1.9394 -0.5658 -0.1760
23588SOL    HW275612   3.438   4.085   2.920 -0.6399  0.3319  1.3111
23589SOL     OW75613   4.758   3.382   1.004 -0.4856 -0.2926 -0.2533
23589SOL    HW175614   4.795   3.460   0.963 -2.1659  0.3235 -0.6709
23589SOL    HW275615   4.783   3.310   0.947  3.4509 -0.6036  1.5170
23590SOL     OW75616   3.099   3.818   2.933 -0.5870  0.1539 -0.6285
23590SOL    HW175617   3.092   3.770   3.015 -0.2689  0.4078 -0.4542
23590SOL    HW275618   3.052   3.900   2.949 -0.4290  0.2507 -0.6683
23591SOL     OW75619   0.483   8.668   3.099  0.2075  0.1441 -0.2319
23591SOL    HW175620   0.397   8.706   3.118  0.9036  1.8216 -0.2489
23591SOL    HW275621   0.501   8.610   3.173 -1.0385 -0.4581 -0.3715
23592SOL     OW75622   4.887   7.542   4.044  0.4212  0.4661 -0.2526
23592SOL    HW175623   4.878   7.620   3.989 -2.3309  0.6270  0.2709
23592SOL    HW275624   4.849   7.567   4.128 -1.7596 -1.7139 -0.4519
23593SOL     OW75625   0.407   2.453   4.409 -0.1974  0.3629  0.2652
23593SOL    HW175626   0.369   2.444   4.496 -0.3845  0.2026  0.1677
23593SOL    HW275627   0.498   2.426   4.419 -0.0059  1.0980  0.5802
23594SOL     OW75628   6.980   3.443   2.830  0.2816  0.3742 -0.1970
23594SOL    HW175629   7.045   3.437   2.759 -0.8548  1.0252 -1.3347
23594SOL    HW275630   6.934   3.359   2.827  1.2702 -0.2323  0.8486
23595SOL     OW75631   8.819   0.747   6.228 -0.2477  0.0633  0.3429
23595SOL    HW175632   8.897   0.767   6.176  0.2870 -0.4937  0.9045
23595SOL    HW275633   8.843   0.668   6.277 -1.3030 -0.3315  0.2459
23596SOL     OW75634   5.777   2.159   8.804  0.1335  0.0116 -0.6799
23596SOL    HW175635   5.836   2.108   8.749  1.5677  0.1951  0.6434
23596SOL    HW275636   5.755   2.236   8.750  0.7826 -0.2471 -1.3279
23597SOL     OW75637   8.891   7.012   9.149  0.3119  0.0932 -0.6301
23597SOL    HW175638   8.912   7.030   9.057 -1.9366  0.6741 -1.1030
23597SOL    HW275639   8.828   6.939   9.145 -0.9055  1.0414  0.3015
23598SOL     OW75640   3.854   8.629   2.649  0.3885 -0.1445  0.4206
23598SOL    HW175641   3.885   8.609   2.737 -0.8665 -0.4796  0.7987
23598SOL    HW275642   3.761   8.650   2.660  0.1770 -0.3508 -0.8375
23599SOL     OW75643   0.430   1.892   6.965  0.7964 -0.3347 -0.0209
23599SOL    HW175644   0.391   1.980   6.969  1.2627 -0.1203 -0.1082
23599SOL    HW275645   0.369   1.837   7.013  0.8933  0.1886  0.7254
23600SOL     OW75646   6.308   8.678   4.235  0.3031 -0.3243 -0.1490
23600SOL    HW175647   6.392   8.674   4.188 -0.3890  0.3532 -1.5186
23600SOL    HW275648   6.322   8.741   4.305  1.1325 -0.7394  0.0733
23601SOL     OW75649   7.542   9.214   6.158  0.3506  0.0168  0.6799
23601SOL    HW175650   7.588   9.222   6.241  1.1291  0.5176  0.2173
23601SOL    HW275651   7.510   9.123   6.157  2.6715 -0.8732  0.3674
23602SOL     OW75652   9.164   2.008   0.680  0.5573 -0.2031 -0.6235
23602SOL    HW175653   9.125   2.095   0.678  0.7534 -0.1149 -0.6499
23602SOL    HW275654   9.090   1.948   0.695  0.4485 -0.0166 -0.4151
23603SOL     OW75655   4.265   4.518   6.687 -0.3548  0.2296 -1.3339
23603SOL    HW175656   4.284   4.598   6.735  1.4712 -0.1551 -1.3100
23603SOL    HW275657   4.190   4.539   6.632 -1.4353  1.1764  0.4509
23604SOL     OW75658   4.558   6.768   2.652 -0.1559 -0.5526  0.1225
23604SOL    HW175659   4.593   6.810   2.573 -2.4298  0.8578 -0.2140
23604SOL    HW275660   4.634   6.757   2.709  1.2524 -0.0570 -1.5770
23605SOL     OW75661   4.194   8.460   7.602  0.1471 -0.7067 -0.1456
23605SOL    HW175662   4.255   8.500   7.541  0.2183 -1.7036 -0.7395
23605SOL    HW275663   4.173   8.530   7.664  1.2724 -0.1272 -0.3939
23606SOL     OW75664   0.860   7.369   2.192 -0.2548  0.1647  0.2542
23606SOL    HW175665   0.806   7.304   2.237  1.6635 -0.3425  1.9550
23606SOL    HW275666   0.944   7.326   2.178  1.3877  2.4176  2.2057
23607SOL     OW75667   4.572   6.677   1.195 -0.0691 -0.1787 -0.7432
23607SOL    HW175668   4.478   6.692   1.203 -0.3630  0.0121 -3.5398
23607SOL    HW275669   4.612   6.760   1.221 -0.9236  0.9292 -2.7530
23608SOL     OW75670   0.315   3.129   5.038  0.2335  0.0389  0.2245
23608SOL    HW175671   0.328   3.190   4.965  0.7894 -0.2059  0.1146
23608SOL    HW275672   0.232   3.086   5.018 -1.1719  2.0718  1.2646
23609SOL     OW75673   5.620   3.146   1.634  0.2445 -0.0299 -0.2091
23609SOL    HW175674   5.621   3.158   1.539 -0.6364 -1.3334 -0.4015
23609SOL    HW275675   5.675   3.218   1.668  0.3993  0.5713 -1.6721
23610SOL     OW75676   1.760   0.368   4.956 -0.4378 -0.3372 -0.3138
23610SOL    HW175677   1.845   0.406   4.934  0.3372 -0.5193  2.0736
23610SOL    HW275678   1.697   0.426   4.914  0.8275  0.6103 -0.9908
23611SOL     OW75679   8.824   0.784   2.821  0.4564 -0.0718 -0.0235
23611SOL    HW175680   8.894   0.832   2.777  1.0091 -0.1266  0.7602
23611SOL    HW275681   8.855   0.774   2.911 -0.7273  0.2225  0.4379
23612SOL     OW75682   4.739   1.123   6.224  0.1981  0.2274  0.3152
23612SOL    HW175683   4.779   1.207   6.203  1.9926 -0.8345 -0.7749
23612SOL    HW275684   4.667   1.115   6.162  1.0696  0.2440 -0.7342
23613SOL     OW75685   1.952   4.870   6.702  0.6113 -0.1338  0.6755
23613SOL    HW175686   2.012   4.816   6.651 -2.6388 -2.3279 -1.2648
23613SOL    HW275687   1.971   4.960   6.676  1.6782 -0.9129 -1.4694
23614SOL     OW75688   2.437   3.976   7.573 -0.5388 -0.2277 -0.2979
23614SOL    HW175689   2.520   4.015   7.600 -0.9719 -0.4522  1.5566
23614SOL    HW275690   2.459   3.919   7.499  1.3047 -1.6205  1.2121
23615SOL     OW75691   2.504   6.161   6.646  0.1646 -0.0959  0.4239
23615SOL    HW175692   2.565   6.091   6.670  0.0546 -0.1638  0.5047
23615SOL    HW275693   2.485   6.145   6.553 -0.6588 -0.7818  0.7031
23616SOL     OW75694   7.548   5.794   8.107 -0.5705 -0.0389 -0.1858
23616SOL    HW175695   7.567   5.876   8.061 -0.6498  1.0612  1.6401
23616SOL    HW275696   7.580   5.726   8.048  3.2034  1.4255 -0.0856
23617SOL     OW75697   6.168   0.354   9.492 -0.4124 -0.2805 -0.1763
23617SOL    HW175698   6.220   0.344   9.412  0.2988 -0.5314  0.3054
23617SOL    HW275699   6.138   0.266   9.512  1.6008 -0.7295  1.2487
23618SOL     OW75700   3.645   0.405   4.196 -0.2249  0.8372 -0.2722
23618SOL    HW175701   3.584   0.479   4.192  0.8088  1.6887 -1.0559
23618SOL    HW275702   3.709   0.430   4.263 -1.3595 -0.5877  1.4313
23619SOL     OW75703   6.730   0.264   8.396 -0.0095  0.0540  0.3117
23619SOL    HW175704   6.737   0.226   8.484  1.0966  0.1738  0.2907
23619SOL    HW275705   6.815   0.308   8.382 -0.1007 -0.1233 -0.8898
23620SOL     OW75706   8.629   8.649   4.908 -0.1050  0.1042  0.4257
23620SOL    HW175707   8.547   8.655   4.957 -0.4463  0.0420 -0.1222
23620SOL    HW275708   8.610   8.692   4.824 -0.8685 -3.2378 -1.3210
23621SOL     OW75709   0.970   6.478   1.892  0.3329 -0.2515 -0.4374
23621SOL    HW175710   0.968   6.573   1.897  1.1418 -0.2120 -0.7410
23621SOL    HW275711   0.922   6.456   1.813  0.1572 -0.0954 -0.3732
23622SOL     OW75712   0.279   2.779   5.008  0.7508  0.4969  0.1204
23622SOL    HW175713   0.252   2.857   4.960  1.5299  0.4777 -0.3709
23622SOL    HW275714   0.278   2.709   4.943 -1.4918 -0.2718  0.9073
23623SOL     OW75715   9.003   2.184   7.987 -0.1043 -0.2318  0.3198
23623SOL    HW175716   9.083   2.228   8.015 -0.7687  2.1758 -1.2576
23623SOL    HW275717   8.935   2.223   8.043 -0.4287 -0.8856  0.3845
23624SOL     OW75718   1.206   4.529   4.891 -0.0744 -0.9442 -0.1669
23624SOL    HW175719   1.113   4.546   4.882 -0.5687 -1.7420  2.6173
23624SOL    HW275720   1.214   4.434   4.883  0.6067 -0.8363 -0.9450
23625SOL     OW75721   1.022   5.203   8.286 -0.1927  0.0690 -0.1051
23625SOL    HW175722   0.972   5.193   8.367  1.7575 -1.1875  1.0250
23625SOL    HW275723   1.081   5.276   8.303 -0.6154  0.5965 -0.8682
23626SOL     OW75724   1.323   0.115   4.051  1.1992  0.3917 -0.1843
23626SOL    HW175725   1.243   0.097   4.001  1.1083  0.1664  0.0364
23626SOL    HW275726   1.318   0.208   4.071  0.2647  0.0948  1.0671
23627SOL     OW75727   2.451   9.613   8.968  0.4050  0.1578 -0.3752
23627SOL    HW175728   2.411   9.676   9.028 -0.5287 -0.3879 -0.4052
23627SOL    HW275729   2.441   9.528   9.011  1.3176 -0.0262 -0.5041
23628SOL     OW75730   4.343   9.328   0.372  0.3257 -0.0808  0.0095
23628SOL    HW175731   4.278   9.259   0.386  0.2181  0.2551  1.2749
23628SOL    HW275732   4.329   9.356   0.281 -2.2885  0.9824  0.6453
23629SOL     OW75733   8.061   7.222   0.343  0.0630  0.5272 -0.1038
23629SOL    HW175734   8.073   7.207   0.249 -0.0632  1.8246 -0.3451
23629SOL    HW275735   8.037   7.136   0.378  2.6861 -0.5868 -0.8070
23630SOL     OW75736   3.334   6.532   2.876  0.2556 -0.4311  0.7882
23630SOL    HW175737   3.379   6.617   2.874 -1.6673  0.7072 -2.3490
23630SOL    HW275738   3.390   6.476   2.929  1.8187  2.6482  2.7232
23631SOL     OW75739   8.566   3.374   5.856 -0.2748  0.0212 -0.4052
23631SOL    HW175740   8.570   3.296   5.912 -0.1087 -0.2679 -0.8116
23631SOL    HW275741   8.499   3.353   5.791  1.3935 -0.7618 -1.9438
23632SOL     OW75742   9.180   6.086   5.489  0.5521 -0.4609  0.4109
23632SOL    HW175743   9.253   6.026   5.506  0.8175 -0.1325  0.4300
23632SOL    HW275744   9.217   6.155   5.434  0.0951 -0.6357 -0.1246
23633SOL     OW75745   4.245   1.733   2.720 -0.4589 -0.3547  0.1544
23633SOL    HW175746   4.305   1.725   2.794 -0.1787 -0.8628 -0.1131
23633SOL    HW275747   4.249   1.825   2.695  0.4849 -0.4422 -0.0694
23634SOL     OW75748   4.664   5.027   5.647  0.4871  0.1946 -0.1620
23634SOL    HW175749   4.669   5.039   5.552  1.7647 -0.3799 -0.1873
23634SOL    HW275750   4.570   5.022   5.666  0.2114 -2.6410 -1.7778
23635SOL     OW75751   8.300   3.704   8.337  0.5226  0.3227 -0.3897
23635SOL    HW175752   8.261   3.700   8.250 -1.1026  0.9041  0.2711
23635SOL    HW275753   8.234   3.748   8.391  2.6083  2.5372  0.5292
23636SOL     OW75754   5.017   7.226   1.403 -0.7822 -0.6092  0.6005
23636SOL    HW175755   5.077   7.229   1.478 -0.1026  1.0091  0.0360
23636SOL    HW275756   4.940   7.275   1.432  0.4924  2.2932 -0.5099
23637SOL     OW75757   8.813   0.552   3.153 -0.1112 -0.1358  0.4850
23637SOL    HW175758   8.726   0.589   3.142 -1.2405 -2.9577 -0.9884
23637SOL    HW275759   8.817   0.530   3.246 -0.6922  0.5770  0.6941
23638SOL     OW75760   8.960   1.327   0.688  0.0693  0.1018  0.0096
23638SOL    HW175761   8.928   1.245   0.726  0.0766  0.5309  0.9598
23638SOL    HW275762   8.941   1.393   0.754 -1.6911  1.2118 -1.5089
23639SOL     OW75763   0.807   6.940   4.133 -0.4966 -0.3918  0.4665
23639SOL    HW175764   0.901   6.958   4.138 -0.7459  0.8629  1.2774
23639SOL    HW275765   0.768   7.027   4.120 -1.4673 -1.0462 -1.2094
23640SOL     OW75766   6.474   8.332   5.942  0.0400  0.0754  0.2220
23640SOL    HW175767   6.525   8.326   5.862  0.3544  1.5708  0.2789
23640SOL    HW275768   6.536   8.364   6.008 -0.6653  0.7323  0.5864
23641SOL     OW75769   8.686   8.849   2.042  0.1784  0.3680 -0.3997
23641SOL    HW175770   8.699   8.900   2.122  1.7431 -0.6956  0.0711
23641SOL    HW275771   8.637   8.771   2.070 -0.3229  0.5595 -0.7178
23642SOL     OW75772   7.569   0.148   3.915 -0.1214 -0.1774  0.1448
23642SOL    HW175773   7.634   0.140   3.845  0.0594  3.9996 -0.4060
23642SOL    HW275774   7.621   0.162   3.994 -0.3619 -0.8763  0.4329
23643SOL     OW75775   8.727   6.242   1.852 -0.1293 -0.3972  0.6449
23643SOL    HW175776   8.780   6.261   1.929 -1.5189 -0.4214  1.6593
23643SOL    HW275777   8.780   6.181   1.801  1.1703  0.2595  1.1654
23644SOL     OW75778   7.936   3.043   0.880  0.0787 -0.2481 -0.8154
23644SOL    HW175779   7.856   3.079   0.919 -0.2463  0.6971 -2.2723
23644SOL    HW275780   7.997   3.034   0.953 -0.1419  2.3996 -0.2045
23645SOL     OW75781   1.103   0.028   1.306  0.5178 -0.8354 -0.7366
23645SOL    HW175782   1.198   0.035   1.299  0.5478 -0.8224 -0.3093
23645SOL    HW275783   1.086  -0.065   1.317  0.2692 -1.3002 -3.9334
23646SOL     OW75784   1.798   9.260   4.124 -0.3100 -0.3096 -0.3063
23646SOL    HW175785   1.865   9.324   4.100  0.6631 -1.0326  0.4270
23646SOL    HW275786   1.805   9.252   4.219  1.4635 -3.4290 -0.5705
23647SOL     OW75787   2.041   9.541   1.386 -0.0300  0.5730  0.3011
23647SOL    HW175788   1.966   9.599   1.380 -0.4429  0.0800  0.6242
23647SOL    HW275789   2.101   9.585   1.446 -0.3456  0.6578  0.5548
23648SOL     OW75790   1.792   7.342   7.285  0.7072  0.6476  0.2468
23648SOL    HW175791   1.808   7.409   7.351  2.2060  0.3150  0.2507
23648SOL    HW275792   1.841   7.371   7.209  2.4368 -1.0283  0.6452
23649SOL     OW75793   4.480   5.419   9.036  0.2619  0.0160  0.2576
23649SOL    HW175794   4.504   5.447   8.948  0.1970 -1.6339 -0.3179
23649SOL    HW275795   4.448   5.499   9.079 -0.9691  0.5987 -1.6398
23650SOL     OW75796   8.249   6.668   3.701 -0.1430  0.5113 -0.4075
23650SOL    HW175797   8.322   6.623   3.658 -0.8908 -0.7684 -0.4046
23650SOL    HW275798   8.189   6.690   3.629  0.1157  1.3518 -0.3826
23651SOL     OW75799   8.812   8.078   1.216 -0.8368 -0.2188  0.8058
23651SOL    HW175800   8.901   8.054   1.193 -0.8693 -0.8733  1.3417
23651SOL    HW275801   8.762   8.067   1.135  0.1382  3.3470 -0.4457
23652SOL     OW75802   0.030   0.280   0.566  0.0085 -0.0664  0.3413
23652SOL    HW175803  -0.012   0.230   0.636 -1.8490  0.2701 -0.4938
23652SOL    HW275804   0.083   0.345   0.612 -1.5603  0.4810  1.4532
23653SOL     OW75805   2.817   4.072   0.790  0.2058 -0.7499 -0.1537
23653SOL    HW175806   2.744   4.019   0.823 -0.5692  1.8731  2.8159
23653SOL    HW275807   2.783   4.114   0.711 -0.1889 -2.2936 -0.8354
23654SOL     OW75808   8.399   4.190   7.361  0.1515  0.0633 -0.5478
23654SOL    HW175809   8.425   4.145   7.441 -1.3114  0.9328  0.4752
23654SOL    HW275810   8.470   4.251   7.342  2.4356 -2.8647 -2.2595
23655SOL     OW75811   8.551   6.205   2.496  0.0910 -0.0188 -0.0214
23655SOL    HW175812   8.588   6.118   2.478  1.5179  1.1206 -3.3345
23655SOL    HW275813   8.456   6.192   2.486  0.1726 -1.3949  0.6691
23656SOL     OW75814   0.476   3.122   6.419  0.5184  0.2667 -0.3559
23656SOL    HW175815   0.416   3.141   6.491  0.6232 -1.5132  0.2703
23656SOL    HW275816   0.437   3.163   6.343 -0.9213  0.0837  0.2539
23657SOL     OW75817   3.136   1.487   0.117  0.2448 -0.5476 -0.0445
23657SOL    HW175818   3.196   1.554   0.150 -0.9642  1.3456 -1.4556
23657SOL    HW275819   3.192   1.429   0.064  0.9731  0.7917 -0.8078
23658SOL     OW75820   6.280   2.709   7.433 -0.2208  0.1025  0.3566
23658SOL    HW175821   6.205   2.718   7.375  1.0199  0.3878 -1.3030
23658SOL    HW275822   6.252   2.748   7.516 -1.8580  0.2271 -0.2186
23659SOL     OW75823   3.584   7.475   1.626 -0.4259 -0.2530  0.2382
23659SOL    HW175824   3.522   7.460   1.555  0.0538 -0.1104 -0.2189
23659SOL    HW275825   3.549   7.425   1.700 -0.7069 -0.7458 -0.2214
23660SOL     OW75826   8.986   5.144   0.668  0.1505  0.8508  0.3787
23660SOL    HW175827   8.940   5.228   0.677  0.2298  0.7992  1.3688
23660SOL    HW275828   8.991   5.110   0.757 -0.2867 -0.4284 -0.0625
23661SOL     OW75829   6.938   0.785   4.193  0.1135  0.5967 -0.0197
23661SOL    HW175830   6.844   0.774   4.208  0.6254 -2.2160  1.8427
23661SOL    HW275831   6.945   0.810   4.101 -2.4854  2.6546  0.2163
23662SOL     OW75832   3.651   8.540   4.645 -0.6255 -0.2229  0.5027
23662SOL    HW175833   3.679   8.538   4.736  0.6248  0.2533  0.1490
23662SOL    HW275834   3.673   8.453   4.612 -1.7064 -0.6313  0.8133
23663SOL     OW75835   0.286   2.433   7.264 -0.0043 -0.9401 -0.2354
23663SOL    HW175836   0.198   2.468   7.269  0.2056 -0.5872  1.6471
23663SOL    HW275837   0.300   2.415   7.171 -1.4383  0.5387 -0.7654
23664SOL     OW75838   1.964   5.000   2.612 -0.1496  0.1925  0.0343
23664SOL    HW175839   1.930   4.957   2.690  0.9687  0.8663  0.9138
23664SOL    HW275840   1.921   5.086   2.610  0.7763  0.6854  0.6438
23665SOL     OW75841   5.413   6.247   1.267  0.1944  0.2225  0.1723
23665SOL    HW175842   5.407   6.177   1.331  0.3602  0.9996  1.0598
23665SOL    HW275843   5.466   6.211   1.196 -0.3676 -0.8003  0.2576
23666SOL     OW75844   3.996   8.340   6.681 -0.1408 -0.2590  0.0382
23666SOL    HW175845   4.054   8.414   6.701 -0.0101  0.5151 -2.6649
23666SOL    HW275846   3.908   8.373   6.699 -0.0123  0.2500 -0.2251
23667SOL     OW75847   3.361   9.381   2.769  0.4655 -0.0166  0.0173
23667SOL    HW175848   3.299   9.421   2.708 -0.5610 -0.8857  0.4532
23667SOL    HW275849   3.385   9.452   2.829 -1.0220  0.0755  0.5455
23668SOL     OW75850   2.685   6.420   6.520 -0.3214 -0.1348  0.8240
23668SOL    HW175851   2.665   6.509   6.493 -3.2190 -0.5596  1.1761
23668SOL    HW275852   2.612   6.396   6.578  1.2937 -2.1354  2.1631
23669SOL     OW75853   0.322   8.490   5.490 -0.3722  0.3478 -0.6693
23669SOL    HW175854   0.251   8.527   5.542  1.3195  0.0460  2.0774
23669SOL    HW275855   0.335   8.402   5.526  2.5553  1.0667  0.3291
23670SOL     OW75856   0.879   7.094   5.868  0.0328  0.0237 -0.5868
23670SOL    HW175857   0.798   7.113   5.820 -0.5203 -1.9567 -0.5151
23670SOL    HW275858   0.888   6.999   5.863  0.2494 -0.2401  2.7536
23671SOL     OW75859   6.729   5.857   0.429 -0.2561  0.0867  0.1583
23671SOL    HW175860   6.741   5.952   0.425  0.0996  0.0001 -3.2674
23671SOL    HW275861   6.793   5.822   0.367 -0.4944 -2.4196  1.2128
23672SOL     OW75862   5.999   1.048   6.995  0.1250  0.6951  0.8225
23672SOL    HW175863   5.973   1.080   7.082  1.1437 -0.6916  1.6868
23672SOL    HW275864   6.008   1.128   6.942 -1.2326  1.5176  1.7658
23673SOL     OW75865   5.699   2.743   4.547  0.3942 -0.0838  0.0304
23673SOL    HW175866   5.761   2.744   4.474 -0.8811  1.5934 -1.1022
23673SOL    HW275867   5.754   2.750   4.625  1.6484  1.2067 -0.9224
23674SOL     OW75868   4.064   0.924   6.709  0.0736 -0.3740 -0.1716
23674SOL    HW175869   3.984   0.871   6.711 -0.7392  0.7707 -1.2747
23674SOL    HW275870   4.050   0.985   6.637  1.9729 -0.1758 -0.4042
23675SOL     OW75871   6.010   8.783   6.133 -0.2294 -0.5267  0.1267
23675SOL    HW175872   5.991   8.719   6.202 -0.1215 -0.7221 -0.0284
23675SOL    HW275873   6.025   8.731   6.055  0.2703 -0.3328  0.0909
23676SOL     OW75874   5.221   1.401   5.761 -0.0985 -0.5995 -0.0220
23676SOL    HW175875   5.314   1.425   5.762 -0.5556  1.5147 -1.4504
23676SOL    HW275876   5.221   1.308   5.736  1.6441 -1.0656  1.4678
23677SOL     OW75877   4.608   8.070   0.402 -0.1555 -0.0647  0.1798
23677SOL    HW175878   4.640   8.002   0.343  2.0476 -0.2956  1.5165
23677SOL    HW275879   4.520   8.091   0.370 -0.1881 -2.2359 -1.3534
23678SOL     OW75880   7.509   6.616   4.543 -0.2851 -0.6044 -0.1321
23678SOL    HW175881   7.549   6.615   4.456 -0.1305  1.1813 -0.1203
23678SOL    HW275882   7.576   6.580   4.600  0.1404 -0.5149 -0.5651
23679SOL     OW75883   5.293   0.040   9.390 -0.0227  0.3053  1.0060
23679SOL    HW175884   5.337   0.124   9.400  0.5623  0.1798 -0.3983
23679SOL    HW275885   5.241   0.032   9.470  0.9494  1.3696  1.7963
23680SOL     OW75886   4.597   8.379   1.657  0.1524 -0.6470 -0.0818
23680SOL    HW175887   4.582   8.453   1.598  3.2661  0.5257  0.3920
23680SOL    HW275888   4.638   8.313   1.601  3.4503  0.6037  0.6282
23681SOL     OW75889   7.228   6.965   4.166  0.3025  0.0996 -1.0161
23681SOL    HW175890   7.174   6.904   4.216  1.0232  0.2226 -0.0785
23681SOL    HW275891   7.165   7.009   4.108 -0.6043  0.1714 -0.0120
23682SOL     OW75892   0.605   5.777   7.837 -0.0558 -0.0938 -0.0893
23682SOL    HW175893   0.605   5.872   7.848 -0.1566 -0.1677  0.5976
23682SOL    HW275894   0.675   5.746   7.895 -0.0828 -0.4450 -0.2397
23683SOL     OW75895   8.805   6.581   5.514  0.4500  0.2364 -0.9588
23683SOL    HW175896   8.898   6.564   5.504  0.0035 -1.6912 -2.6839
23683SOL    HW275897   8.800   6.657   5.571  3.0698  0.5529 -1.0306
23684SOL     OW75898   9.205   1.787   1.730 -0.5367 -0.5440 -0.4885
23684SOL    HW175899   9.196   1.709   1.785  1.1970  0.5905  1.5099
23684SOL    HW275900   9.143   1.850   1.767  1.4508  0.6218  0.9919
23685SOL     OW75901   8.019   9.743   8.259 -0.1962  0.0175  0.4489
23685SOL    HW175902   7.953   9.734   8.190  0.2693  1.4069 -0.2172
23685SOL    HW275903   8.088   9.794   8.219  0.1310  0.7923  1.9353
23686SOL     OW75904   9.310   4.432   6.554  0.1446  0.2480 -0.3644
23686SOL    HW175905   9.315   4.503   6.619 -1.3475  0.7938 -0.8098
23686SOL    HW275906   9.226   4.390   6.571  0.7734 -1.0962 -0.4660
23687SOL     OW75907   6.898   1.721   0.045 -0.0736 -0.5058  0.3737
23687SOL    HW175908   6.976   1.771   0.024  0.3349 -1.1554  0.3174
23687SOL    HW275909   6.913   1.690   0.135 -0.9044  0.5563  0.9032
23688SOL     OW75910   9.243   1.240   3.923 -0.0361  0.2009  0.2157
23688SOL    HW175911   9.261   1.156   3.880  1.0648  0.1934  0.6628
23688SOL    HW275912   9.310   1.247   3.991 -1.8941  0.0918  2.1618
23689SOL     OW75913   2.351   0.586   2.799 -0.5079 -0.0686 -0.1490
23689SOL    HW175914   2.380   0.521   2.863  1.3184  0.4855 -0.3809
23689SOL    HW275915   2.420   0.652   2.797 -1.4414  0.9296 -1.2868
23690SOL     OW75916   2.059   4.072   5.568  0.2700 -0.0182  0.2003
23690SOL    HW175917   1.998   4.133   5.609  0.9718 -0.0185  1.3054
23690SOL    HW275918   2.045   3.989   5.615  0.0188 -0.4480 -0.6127
23691SOL     OW75919   7.174   5.079   6.441  0.1724  0.0528  0.2785
23691SOL    HW175920   7.198   5.096   6.350 -0.6274  0.6079  0.1570
23691SOL    HW275921   7.194   5.161   6.487  2.0424 -0.7257  0.9411
23692SOL     OW75922   9.346   2.440   2.973 -0.0290 -0.6034 -0.1364
23692SOL    HW175923   9.400   2.414   2.899 -0.7697  1.6545 -1.5957
23692SOL    HW275924   9.256   2.439   2.939 -0.3897  0.4584  0.6944
23693SOL     OW75925   5.577   6.287   1.709  0.2650  0.2650 -0.2394
23693SOL    HW175926   5.497   6.338   1.723  0.1867  0.3606 -1.0017
23693SOL    HW275927   5.595   6.295   1.615  0.3423 -0.9835 -0.3497
23694SOL     OW75928   3.344   9.219   1.944  0.4397  0.4894  0.2729
23694SOL    HW175929   3.290   9.266   1.881  1.1525  1.0389  0.0544
23694SOL    HW275930   3.433   9.251   1.928  1.1708 -1.8867 -0.7368
23695SOL     OW75931   2.427   1.934   8.756 -0.0078  0.3368 -0.0572
23695SOL    HW175932   2.341   1.924   8.715 -0.1606  1.5838 -0.0976
23695SOL    HW275933   2.439   2.029   8.762  1.9568  0.2278 -1.3206
23696SOL     OW75934   2.584   7.333   5.736 -0.3298  0.0065  1.2582
23696SOL    HW175935   2.492   7.355   5.721 -0.0126  0.2555 -0.5322
23696SOL    HW275936   2.632   7.408   5.701  0.5946 -0.9076  0.5051
23697SOL     OW75937   6.060   2.816   2.511  0.3749  0.5169 -0.2571
23697SOL    HW175938   6.074   2.837   2.603 -1.0285  1.2865 -0.1958
23697SOL    HW275939   5.991   2.750   2.512  1.1293 -0.3012 -0.7193
23698SOL     OW75940   7.417   0.142   0.553 -0.0070 -0.1957 -0.6591
23698SOL    HW175941   7.436   0.050   0.566 -1.2619 -0.4868 -0.7207
23698SOL    HW275942   7.476   0.188   0.612 -0.1201 -1.0962  0.1735
23699SOL     OW75943   3.844   6.130   5.926  0.3343  0.6497 -0.2614
23699SOL    HW175944   3.819   6.201   5.866 -1.0911  0.8440  0.5143
23699SOL    HW275945   3.836   6.169   6.013  0.1729 -0.2786  0.1448
23700SOL     OW75946   2.995   3.579   5.184 -0.1398  0.4466  0.0153
23700SOL    HW175947   3.033   3.492   5.167 -0.7712  0.0970  0.3785
23700SOL    HW275948   3.049   3.639   5.131 -1.0922 -0.4304 -2.0854
23701SOL     OW75949   8.074   0.917   7.749 -0.2159  0.2528 -0.1033
23701SOL    HW175950   8.020   0.883   7.677  1.5425 -0.2770 -1.2318
23701SOL    HW275951   8.148   0.959   7.705  0.8700 -0.0296  1.3996
23702SOL     OW75952   9.388   9.153   8.683 -0.2006  0.1271  0.0888
23702SOL    HW175953   9.455   9.156   8.614  0.0931 -0.8425  0.3245
23702SOL    HW275954   9.437   9.133   8.763 -1.0316 -3.6273 -0.1691
23703SOL     OW75955   4.830   5.647   1.591 -0.4496 -0.2068  0.0101
23703SOL    HW175956   4.916   5.687   1.598  0.5170 -0.9352 -4.4685
23703SOL    HW275957   4.846   5.553   1.598 -1.4026 -0.2831  1.8910
23704SOL     OW75958   2.169   2.127   0.955  0.3541 -0.2822 -0.1799
23704SOL    HW175959   2.203   2.167   1.035 -3.2299  0.3465  1.2018
23704SOL    HW275960   2.176   2.196   0.889  0.6774  0.1901  0.3388
23705SOL     OW75961   9.700   6.011   2.610  0.2065 -0.4700 -0.1959
23705SOL    HW175962   9.715   6.041   2.699 -0.8793 -2.5375  0.7508
23705SOL    HW275963   9.655   6.084   2.567 -1.4007 -0.2895  1.6678
23706SOL     OW75964   0.293   7.938   6.170  0.2772 -0.3864 -0.2584
23706SOL    HW175965   0.381   7.902   6.160  0.4331 -0.0669 -0.0631
23706SOL    HW275966   0.288   7.964   6.262 -0.1509 -0.7335 -0.1804
23707SOL     OW75967   9.650   8.957   4.449  0.2244  0.4887 -0.3140
23707SOL    HW175968   9.710   9.031   4.456 -1.1804  1.6623 -0.2239
23707SOL    HW275969   9.582   8.988   4.389  0.1787 -1.1415 -1.1524
23708SOL     OW75970   2.535   9.417   1.986 -0.1897 -0.1798  0.6663
23708SOL    HW175971   2.494   9.492   2.029  1.7438  0.9949  0.5821
23708SOL    HW275972   2.532   9.347   2.051  0.2726  0.7490  1.7017
23709SOL     OW75973   6.412   0.033   5.605  0.4678  0.3883  0.0828
23709SOL    HW175974   6.437   0.125   5.616  0.1368  0.3776  0.9693
23709SOL    HW275975   6.446  -0.010   5.683  0.5721 -0.2438 -0.3047
23710SOL     OW75976   5.617   4.882   4.357  0.3129 -0.6162  0.1176
23710SOL    HW175977   5.664   4.805   4.390 -1.0029 -1.4136  0.2138
23710SOL    HW275978   5.602   4.861   4.264 -0.2682 -0.5862  0.2066
23711SOL     OW75979   8.028   2.183   7.808  0.5001 -0.1150  0.3993
23711SOL    HW175980   8.114   2.220   7.790  0.8069 -1.7803 -2.1141
23711SOL    HW275981   8.026   2.102   7.757 -2.2374 -0.5759  1.0811
23712SOL     OW75982   8.803   6.486   0.821 -0.7114  0.1793 -0.3228
23712SOL    HW175983   8.875   6.547   0.833 -1.5054  1.0547  0.0593
23712SOL    HW275984   8.797   6.475   0.726  2.7227 -3.3456 -0.4054
23713SOL     OW75985   8.002   7.026   2.058 -0.3291  0.0437  0.2041
23713SOL    HW175986   8.036   6.980   2.135 -0.2601  0.3769  0.3756
23713SOL    HW275987   7.927   6.974   2.030 -0.0514 -0.3599  0.1919
23714SOL     OW75988   5.827   0.211   9.117  0.1018  0.2095 -0.5314
23714SOL    HW175989   5.913   0.176   9.094  0.1774 -1.5586  2.0422
23714SOL    HW275990   5.837   0.306   9.110  2.4211  0.0724  0.1093
23715SOL     OW75991   1.498   2.330   6.435  0.5779 -0.0764  0.3785
23715SOL    HW175992   1.404   2.320   6.417  0.6192  0.6050 -0.2533
23715SOL    HW275993   1.509   2.297   6.524 -0.1409 -0.8269  0.2028
23716SOL     OW75994   4.473   3.495   6.483 -0.6457  0.0857  0.7921
23716SOL    HW175995   4.445   3.587   6.483  1.1016  0.6637  0.3773
23716SOL    HW275996   4.569   3.500   6.486 -0.4505 -1.6934 -1.0181
23717SOL     OW75997   6.628   9.747   1.670  0.1747  0.1005  0.1623
23717SOL    HW175998   6.697   9.800   1.630  0.8626  0.0010  1.1822
23717SOL    HW275999   6.673   9.699   1.740 -1.0396  0.4581  1.2095
23718SOL     OW76000   0.105   1.010   0.132 -0.1818  0.5911 -0.0824
23718SOL    HW176001   0.199   1.014   0.150  0.0081  1.9735 -1.2849
23718SOL    HW276002   0.064   1.039   0.214  0.3501 -1.1329  0.8549
23719SOL     OW76003   2.775   5.149   5.437  0.5594  0.1052  0.0561
23719SOL    HW176004   2.730   5.145   5.353  0.9073  0.4546 -0.1490
23719SOL    HW276005   2.748   5.069   5.482 -1.2270  0.8581  0.4347
23720SOL     OW76006   2.871   2.269   7.318  0.4921  0.3510  0.0016
23720SOL    HW176007   2.853   2.335   7.251  0.2392 -1.1657 -1.4910
23720SOL    HW276008   2.946   2.304   7.366 -0.5607  2.4144  0.2596
23721SOL     OW76009   7.658   1.691   0.473 -0.0041  0.3882  0.1326
23721SOL    HW176010   7.576   1.643   0.463  0.7453 -1.0610  0.6482
23721SOL    HW276011   7.634   1.783   0.458 -1.2282 -0.2551 -2.2998
23722SOL     OW76012   7.920   1.580   4.438  0.6655  0.3210  0.1341
23722SOL    HW176013   8.002   1.618   4.470  0.2193  0.6173  0.9586
23722SOL    HW276014   7.854   1.646   4.459  0.2204  0.1118 -0.5786
23723SOL     OW76015   5.847   5.945   6.829 -0.8391 -0.2779 -0.4262
23723SOL    HW176016   5.792   5.871   6.856 -1.1190  1.1230  3.5219
23723SOL    HW276017   5.935   5.920   6.854 -0.8842  0.5040  0.5955
23724SOL     OW76018   4.249   4.478   3.559 -0.1724 -0.9013  0.4403
23724SOL    HW176019   4.314   4.438   3.618  0.7342  0.5707  0.4987
23724SOL    HW276020   4.165   4.449   3.593  0.4009 -1.4879  1.4090
23725SOL     OW76021   2.458   3.503   4.837 -0.2702 -0.0252 -0.4192
23725SOL    HW176022   2.462   3.438   4.907 -0.6975  1.3474  0.9419
23725SOL    HW276023   2.549   3.526   4.819 -0.1114 -1.0581 -0.9987
23726SOL     OW76024   3.492   6.041   4.112 -0.2854  0.1320 -0.0931
23726SOL    HW176025   3.468   6.132   4.097 -2.2672 -0.4217 -0.5863
23726SOL    HW276026   3.586   6.038   4.099 -0.5426  1.5841 -2.8286
23727SOL     OW76027   7.790   4.105   2.786 -0.3743  0.1188 -0.0567
23727SOL    HW176028   7.881   4.089   2.808 -0.5655  0.2241  0.8644
23727SOL    HW276029   7.793   4.155   2.704  0.4105  0.5256  0.2122
23728SOL     OW76030   2.814   2.966   0.789  0.2142 -0.1921 -0.7273
23728SOL    HW176031   2.902   3.001   0.773 -0.5249  2.3437  0.2385
23728SOL    HW276032   2.822   2.921   0.873  0.4025  0.8659 -0.1640
23729SOL     OW76033   6.240   5.882   8.899 -0.2137 -0.2728 -0.3229
23729SOL    HW176034   6.164   5.939   8.905 -0.1776 -0.2128 -0.4423
23729SOL    HW276035   6.206   5.800   8.864 -0.8302 -1.3468  2.4983
23730SOL     OW76036   3.013   3.054   1.758 -0.3186 -0.3739 -0.0134
23730SOL    HW176037   2.994   2.999   1.681 -0.5398 -0.8141  0.3543
23730SOL    HW276038   3.083   3.112   1.728  0.6769 -1.5689 -0.0904
23731SOL     OW76039   8.950   4.480   7.707  0.2484  0.0885 -0.5768
23731SOL    HW176040   8.931   4.511   7.795  1.4824 -1.1808  0.1762
23731SOL    HW276041   8.936   4.556   7.651 -1.5239  0.6628  0.5678
23732SOL     OW76042   1.077   1.396   4.515 -0.1560  0.0801 -0.0914
23732SOL    HW176043   1.074   1.433   4.603  1.3083  0.8439 -0.3333
23732SOL    HW276044   1.006   1.332   4.513 -0.4782  0.3580  1.4951
23733SOL     OW76045   1.683   0.816   7.822  0.9604  0.5854  0.0032
23733SOL    HW176046   1.643   0.819   7.909  0.2030 -1.8166 -0.2002
23733SOL    HW276047   1.610   0.831   7.762  1.1318  0.3274 -0.2689
23734SOL     OW76048   9.469   1.757   1.943 -0.0196  0.0509  0.1793
23734SOL    HW176049   9.548   1.807   1.966  0.1948  0.0843 -0.6019
23734SOL    HW276050   9.446   1.788   1.855  0.7298 -1.9476 -0.7865
23735SOL     OW76051   3.947   5.964   9.005  0.5385  0.3087 -0.4597
23735SOL    HW176052   3.894   5.891   8.974 -0.3659  0.7271  0.0544
23735SOL    HW276053   3.902   6.042   8.972  1.1734  0.6584 -0.5201
23736SOL     OW76054   6.900   4.941   1.349  0.0698  0.1004  0.3344
23736SOL    HW176055   6.870   5.027   1.320 -2.7586 -0.4271  1.3286
23736SOL    HW276056   6.836   4.880   1.313 -0.0663 -1.1827  2.5250
23737SOL     OW76057   0.910   7.029   0.227  0.9271 -0.0256  0.3762
23737SOL    HW176058   0.889   7.055   0.317  3.2240 -0.6719  1.1735
23737SOL    HW276059   0.911   6.933   0.230 -0.0390 -0.0896 -0.6454
23738SOL     OW76060   6.094   2.878   4.378  0.0060  0.1724  0.2557
23738SOL    HW176061   6.123   2.796   4.418  0.9455  0.8678  1.0494
23738SOL    HW276062   6.036   2.917   4.444 -1.2591 -0.3011 -0.5327
23739SOL     OW76063   1.657   8.714   7.696 -0.1676 -0.1398 -0.5369
23739SOL    HW176064   1.710   8.776   7.747  1.9293 -1.3725 -1.0878
23739SOL    HW276065   1.640   8.760   7.613  1.9192 -0.4358 -1.2010
23740SOL     OW76066   2.439   9.405   7.758 -0.0889  0.3465  0.2096
23740SOL    HW176067   2.370   9.368   7.814  2.1144  0.6772  3.4489
23740SOL    HW276068   2.459   9.490   7.797  2.7606 -0.1590  0.1297
23741SOL     OW76069   6.894   2.019   9.727  0.5700 -0.1068  0.6366
23741SOL    HW176070   6.988   2.023   9.707  0.7194 -0.5323  1.2112
23741SOL    HW276071   6.851   2.055   9.650  1.1905 -0.2969  0.1926
23742SOL     OW76072   1.098   3.898   9.108  0.0034  0.5228  0.0184
23742SOL    HW176073   1.007   3.868   9.100  0.2128  0.1026 -0.9150
23742SOL    HW276074   1.150   3.820   9.092  0.5908 -0.2054  4.2776
23743SOL     OW76075   2.700   2.010   8.662  0.8901  0.0125 -0.0243
23743SOL    HW176076   2.761   2.084   8.659  1.1029 -0.1996 -1.5947
23743SOL    HW276077   2.625   2.039   8.611 -0.3426  0.2428  1.8230
23744SOL     OW76078   1.612   1.172   9.415  0.1996  0.0894  0.1989
23744SOL    HW176079   1.532   1.150   9.463  0.7187  0.3680  1.2201
23744SOL    HW276080   1.615   1.108   9.344  0.7294 -2.0144  2.0051
23745SOL     OW76081   2.549   9.650   5.253 -0.1445 -0.5787 -0.3892
23745SOL    HW176082   2.534   9.696   5.171  2.3252  0.1820 -0.4946
23745SOL    HW276083   2.613   9.582   5.231  0.8290 -0.1441  0.9249
23746SOL     OW76084   4.139   4.368   1.052 -0.1504  0.6324 -0.7862
23746SOL    HW176085   4.068   4.385   1.114 -0.8119  2.8386 -2.0306
23746SOL    HW276086   4.096   4.327   0.977  0.1206  0.7580 -1.0104
23747SOL     OW76087   6.519   2.620   5.474  0.4351  0.4424  0.7839
23747SOL    HW176088   6.523   2.528   5.500 -1.0006  0.1662  0.1151
23747SOL    HW276089   6.435   2.629   5.429  1.9118  1.3254 -2.0441
23748SOL     OW76090   4.089   2.269   8.918 -0.0916  0.1836  0.0878
23748SOL    HW176091   4.166   2.242   8.868 -0.7040 -0.6294 -0.4382
23748SOL    HW276092   4.120   2.273   9.009  0.5823 -0.1057 -0.1212
23749SOL     OW76093   4.582   5.915   1.556  0.5563  0.1488 -0.2361
23749SOL    HW176094   4.541   5.932   1.471  0.9868  0.0670 -0.4656
23749SOL    HW276095   4.543   5.834   1.587  0.0566  0.4257 -0.1380
23750SOL     OW76096   5.373   1.120   2.209  0.7094 -0.4183  0.2129
23750SOL    HW176097   5.355   1.142   2.301 -1.1754 -0.9311  0.0044
23750SOL    HW276098   5.442   1.180   2.183  1.4745 -0.4485  2.0429
23751SOL     OW76099   7.276   8.081   2.956  0.9108 -0.1703 -0.3830
23751SOL    HW176100   7.355   8.123   2.990  0.1581  1.4307 -0.5286
23751SOL    HW276101   7.295   8.065   2.864  0.4688  1.8157 -0.8571
23752SOL     OW76102   0.001   2.855   0.223 -0.6117 -0.5730 -0.3506
23752SOL    HW176103   0.039   2.771   0.200 -0.9485 -0.7237 -0.3658
23752SOL    HW276104   0.030   2.915   0.154 -0.4054 -0.6873 -0.3606
23753SOL     OW76105   5.069   6.014   4.015  0.3558 -0.4205  0.4189
23753SOL    HW176106   5.050   5.933   4.064 -0.6618  0.6842  1.9441
23753SOL    HW276107   5.164   6.023   4.020  0.5292 -1.6769 -0.0760
23754SOL     OW76108   1.370   2.113   5.373 -0.8569  0.1149  0.1890
23754SOL    HW176109   1.386   2.023   5.346 -2.0318 -0.2426  0.5955
23754SOL    HW276110   1.376   2.164   5.293  2.2196  0.0810  0.2923
23755SOL     OW76111   0.944   3.719   2.419 -0.1906 -0.1433  0.0817
23755SOL    HW176112   0.893   3.799   2.434 -0.7360  0.0101 -2.2265
23755SOL    HW276113   0.901   3.677   2.345  3.0330  0.0757 -2.1258
23756SOL     OW76114   8.786   4.743   3.283  0.3284  0.2808  0.6161
23756SOL    HW176115   8.713   4.803   3.265 -0.1655 -0.0899  1.3276
23756SOL    HW276116   8.832   4.784   3.356 -0.4837 -0.5835  1.6461
23757SOL     OW76117   0.598   5.251   8.579  0.2306 -0.8197 -0.6405
23757SOL    HW176118   0.503   5.235   8.579  0.2230 -0.7740 -0.4196
23757SOL    HW276119   0.609   5.326   8.521 -0.3217  1.8856  2.5219
23758SOL     OW76120   1.692   1.745   7.446  0.2347  0.6293  0.0913
23758SOL    HW176121   1.618   1.789   7.404  0.6302 -0.2769 -1.6458
23758SOL    HW276122   1.660   1.723   7.534 -1.2866  0.9317 -0.3577
23759SOL     OW76123   9.058   8.825   1.968  0.2361  0.3035  0.7045
23759SOL    HW176124   9.019   8.900   2.012 -0.4298  1.1061 -1.1212
23759SOL    HW276125   9.089   8.861   1.884  1.4966 -1.1139  0.5221
23760SOL     OW76126   6.359   1.664   7.307 -0.2333 -0.3920 -0.4742
23760SOL    HW176127   6.292   1.656   7.239 -0.6970  0.9544 -0.2144
23760SOL    HW276128   6.318   1.718   7.375  0.4669 -1.1182  0.5561
23761SOL     OW76129   3.570   8.769   5.640 -0.4640 -0.0998  0.0392
23761SOL    HW176130   3.588   8.811   5.725 -1.4190 -0.3832  0.3918
23761SOL    HW276131   3.560   8.676   5.661 -1.3192 -0.0838 -0.2927
23762SOL     OW76132   0.744   4.148   5.141 -0.4592  0.1060 -0.0095
23762SOL    HW176133   0.661   4.127   5.097 -0.2103 -0.1198 -0.3792
23762SOL    HW276134   0.719   4.171   5.230 -0.9573  0.3874 -0.2178
23763SOL     OW76135   1.153   1.438   2.263  0.4311 -0.1135  0.4911
23763SOL    HW176136   1.158   1.468   2.353  2.0926 -1.8594  1.0515
23763SOL    HW276137   1.150   1.342   2.269  1.3316 -0.3044 -1.2937
23764SOL     OW76138   7.743   6.599   8.715 -0.2915  0.1689  0.5302
23764SOL    HW176139   7.688   6.663   8.669 -0.9696  0.2377  1.4074
23764SOL    HW276140   7.795   6.557   8.646 -1.1106  0.4409 -0.2644
23765SOL     OW76141   5.976   6.304   7.536  0.1277  0.4479  0.1477
23765SOL    HW176142   6.004   6.246   7.465 -0.9416  0.6090 -0.4390
23765SOL    HW276143   6.041   6.292   7.604  1.0370  0.0831 -0.7594
23766SOL     OW76144   4.380   7.733   4.857 -0.0940  0.2520 -0.1743
23766SOL    HW176145   4.328   7.785   4.795 -1.2131 -0.9872 -0.3180
23766SOL    HW276146   4.457   7.787   4.875 -1.2268  1.9728 -0.2750
23767SOL     OW76147   2.397   5.158   4.754  0.1103  0.2860 -0.2308
23767SOL    HW176148   2.302   5.140   4.751 -0.0312  1.1314 -1.2821
23767SOL    HW276149   2.431   5.119   4.673  0.5478  0.6279 -0.2132
23768SOL     OW76150   8.969   9.534   9.536  0.4158  0.3481 -0.3898
23768SOL    HW176151   8.916   9.520   9.457 -0.5362  1.1475  0.0883
23768SOL    HW276152   9.025   9.457   9.540  0.4079  0.2331 -1.7828
23769SOL     OW76153   5.057   0.846   0.556  0.1675 -0.2851  0.2517
23769SOL    HW176154   4.978   0.837   0.610 -0.7729 -1.0292 -1.1855
23769SOL    HW276155   5.061   0.939   0.535 -0.0667 -0.1641  0.7260
23770SOL     OW76156   1.157   0.168   1.954 -0.0916 -0.1687 -0.0385
23770SOL    HW176157   1.168   0.127   1.868  0.6966  0.2734 -0.1540
23770SOL    HW276158   1.107   0.104   2.005  0.1943 -0.8045 -0.5492
23771SOL     OW76159   3.576   5.463   1.216 -0.2267 -0.5990  0.7658
23771SOL    HW176160   3.487   5.438   1.190 -0.3811 -1.7081  2.2176
23771SOL    HW276161   3.564   5.542   1.268 -0.2964 -0.4061  0.4582
23772SOL     OW76162   7.884   4.976   1.984 -0.5715 -0.0321  0.0160
23772SOL    HW176163   7.929   5.002   1.904  0.7949 -0.7255  0.5215
23772SOL    HW276164   7.937   4.904   2.019  0.2710  1.7728  2.7916
23773SOL     OW76165   2.893   5.396   0.628  0.5894  0.1881 -0.5273
23773SOL    HW176166   2.818   5.381   0.686  0.0958 -2.6830 -1.7414
23773SOL    HW276167   2.904   5.491   0.627 -2.7736  0.7088  0.0495
23774SOL     OW76168   0.232   4.686   1.565 -0.5666 -0.1433 -0.0699
23774SOL    HW176169   0.169   4.615   1.576 -1.8418  0.7630 -1.2759
23774SOL    HW276170   0.214   4.745   1.639 -1.2367  0.1716 -0.4741
23775SOL     OW76171   0.071   3.797   7.601  0.2274 -0.1488  0.2336
23775SOL    HW176172   0.037   3.734   7.537 -1.1324  1.9236 -1.2139
23775SOL    HW276173   0.070   3.750   7.684 -1.2249 -1.8803 -0.6988
23776SOL     OW76174   8.900   6.512   1.577  0.5172  0.5330  0.1556
23776SOL    HW176175   8.871   6.425   1.548  0.1081  0.8218 -0.2982
23776SOL    HW276176   8.930   6.556   1.498  1.9457  0.3542  0.5631
23777SOL     OW76177   0.207   7.846   8.366  0.2961 -0.3351 -0.1806
23777SOL    HW176178   0.293   7.840   8.325  0.3453  1.7956 -0.5086
23777SOL    HW276179   0.157   7.903   8.307 -0.9290 -0.5050  0.6707
23778SOL     OW76180   7.949   8.271   3.762  0.4277  0.0661  0.2611
23778SOL    HW176181   7.910   8.285   3.675  0.0337 -0.2720  0.3805
23778SOL    HW276182   7.956   8.359   3.799 -0.6000  0.1040  0.3973
23779SOL     OW76183   2.436   7.570   7.972 -0.5399  0.5431 -0.3109
23779SOL    HW176184   2.524   7.549   8.002 -0.9459  0.1125  0.6057
23779SOL    HW276185   2.450   7.627   7.896  0.5506 -1.0762 -1.3899
23780SOL     OW76186   2.850   0.277   6.715  0.1064  0.1488 -0.6250
23780SOL    HW176187   2.767   0.292   6.762  0.0194  2.5561 -1.3832
23780SOL    HW276188   2.912   0.255   6.784 -0.5487  1.2450  0.3724
23781SOL     OW76189   6.433   2.901   6.866  0.4169 -0.1582 -0.2799
23781SOL    HW176190   6.511   2.876   6.916  0.1404 -1.7547 -0.6136
23781SOL    HW276191   6.407   2.822   6.820 -2.0681  0.0146  0.6823
23782SOL     OW76192   5.561   5.343   4.697  0.2780  0.5790  0.2469
23782SOL    HW176193   5.627   5.298   4.750 -0.3200  0.1375  0.6397
23782SOL    HW276194   5.555   5.291   4.617  1.6534  1.6144 -0.5795
23783SOL     OW76195   3.181   4.795   8.708 -0.0910  0.2903 -0.5293
23783SOL    HW176196   3.213   4.870   8.759 -1.2883 -0.0177  0.7270
23783SOL    HW276197   3.164   4.727   8.773 -0.5300 -0.5329 -1.4807
23784SOL     OW76198   3.015   5.757   5.025  0.3181  0.3332  0.3502
23784SOL    HW176199   3.088   5.776   4.966 -0.8503 -0.4427 -1.4224
23784SOL    HW276200   2.953   5.829   5.010 -0.0651  0.0367  0.5011
23785SOL     OW76201   3.346   9.099   0.362 -0.5004 -0.1219  0.3481
23785SOL    HW176202   3.431   9.096   0.405  0.1436  0.0460 -0.8620
23785SOL    HW276203   3.301   9.020   0.392  1.5373 -2.2836 -1.8318
23786SOL     OW76204   4.025   1.511   0.318  0.3536 -0.1631 -0.1341
23786SOL    HW176205   4.069   1.519   0.402  0.1255 -1.4397  0.1211
23786SOL    HW276206   3.938   1.477   0.339 -0.0433  0.3855 -0.8130
23787SOL     OW76207   3.202   9.313   9.172 -0.2274 -0.1115  0.2821
23787SOL    HW176208   3.155   9.315   9.256 -0.2820 -3.4865  0.4473
23787SOL    HW276209   3.290   9.344   9.193 -1.0939  2.1465  0.8610
23788SOL     OW76210   0.228   7.180   8.817 -0.0533  0.2363 -0.1515
23788SOL    HW176211   0.163   7.212   8.754  1.2235 -0.1995 -1.7890
23788SOL    HW276212   0.193   7.205   8.902 -1.9096  0.8077 -1.0101
23789SOL     OW76213   1.433   9.427   1.733  0.6065 -0.0950  0.7185
23789SOL    HW176214   1.350   9.470   1.713  1.3869  1.5033  0.7571
23789SOL    HW276215   1.470   9.406   1.647 -0.1872 -1.6057  0.7043
23790SOL     OW76216   7.859   7.814   6.249  0.5940  0.5272 -0.1638
23790SOL    HW176217   7.903   7.880   6.195 -0.2777  0.7130 -0.6560
23790SOL    HW276218   7.922   7.742   6.254  1.0658  0.8991 -0.6269
23791SOL     OW76219   6.797   4.029   4.714 -0.3984 -0.6819 -0.5223
23791SOL    HW176220   6.850   3.953   4.691  0.9010 -0.2226  0.7779
23791SOL    HW276221   6.758   4.006   4.799  0.6255  0.3709  0.2555
23792SOL     OW76222   2.980   8.788   4.831  0.4394  0.1717  0.2248
23792SOL    HW176223   2.965   8.693   4.827  1.2105  0.0608 -0.1684
23792SOL    HW276224   2.892   8.826   4.837 -0.0467 -0.4568 -2.0832
23793SOL     OW76225   3.359   8.982   0.085 -0.0518  0.3116 -0.2885
23793SOL    HW176226   3.326   9.020   0.167 -2.8404 -0.0226 -1.1478
23793SOL    HW276227   3.376   8.891   0.106 -0.3207  0.3327  0.0352
23794SOL     OW76228   3.914   3.485   6.196  0.6396 -0.4636 -0.3378
23794SOL    HW176229   3.942   3.539   6.270  0.2660 -0.4102 -0.2316
23794SOL    HW276230   3.994   3.468   6.147  0.7032  0.5464 -0.6065
23795SOL     OW76231   6.815   8.234   3.280  0.1881 -0.1040 -0.5323
23795SOL    HW176232   6.800   8.140   3.268 -1.2237  0.0213  0.0893
23795SOL    HW276233   6.792   8.273   3.196  1.9873 -0.3915 -1.2219
23796SOL     OW76234   1.906   5.861   6.814  0.6730 -0.0457 -0.5794
23796SOL    HW176235   1.876   5.936   6.865 -0.7471 -0.1898 -1.1625
23796SOL    HW276236   1.915   5.894   6.725  2.2477 -0.0259 -0.4307
23797SOL     OW76237   1.410   5.037   1.422  0.0316  0.3661  0.2170
23797SOL    HW176238   1.456   5.106   1.468 -0.8478 -0.1362  1.9515
23797SOL    HW276239   1.402   4.966   1.486  0.4385 -1.1424 -1.3289
23798SOL     OW76240   0.210   8.855   0.738  0.3037 -0.3889 -0.0200
23798SOL    HW176241   0.129   8.903   0.757 -0.4026 -2.1494  1.7677
23798SOL    HW276242   0.263   8.917   0.687 -1.3762  1.5021  0.3892
23799SOL     OW76243   3.611   0.513   2.538  0.8056 -0.0913 -0.5302
23799SOL    HW176244   3.531   0.523   2.487 -0.6535 -1.2189  1.4287
23799SOL    HW276245   3.650   0.601   2.539 -0.8518  0.6803 -0.7924
23800SOL     OW76246   3.814   4.170   4.613 -0.7519 -0.9562 -0.0761
23800SOL    HW176247   3.805   4.124   4.530 -0.2521  1.2494 -1.4353
23800SOL    HW276248   3.780   4.258   4.595  2.9181  0.8335  0.8549
23801SOL     OW76249   8.556   4.679   4.609 -0.2138 -0.3990 -0.1148
23801SOL    HW176250   8.519   4.763   4.636 -1.6261 -0.9470 -0.2835
23801SOL    HW276251   8.584   4.693   4.519 -1.7557 -0.5033 -0.6235
23802SOL     OW76252   9.002   6.343   7.617  0.6811  0.1005  0.5614
23802SOL    HW176253   9.050   6.339   7.534  1.4670 -3.7148  1.0170
23802SOL    HW276254   8.998   6.253   7.647 -0.6066  1.1669  4.1666
23803SOL     OW76255   6.604   3.642   4.778 -0.2557 -0.0185 -0.0383
23803SOL    HW176256   6.547   3.671   4.850 -0.8189 -1.5609  0.1826
23803SOL    HW276257   6.545   3.597   4.717  0.3222  0.6925 -1.1591
23804SOL     OW76258   6.448   6.882   5.752  0.2463 -0.1662  0.0826
23804SOL    HW176259   6.509   6.933   5.700  1.5773 -0.4743  1.2674
23804SOL    HW276260   6.383   6.849   5.689  0.5173  1.2866 -0.9884
23805SOL     OW76261   0.425   3.196   9.260  0.1769 -0.0669 -0.4148
23805SOL    HW176262   0.477   3.176   9.338 -0.6375 -2.0509 -0.3353
23805SOL    HW276263   0.357   3.256   9.291  0.8652  0.4876  0.0314
23806SOL     OW76264   3.520   0.133   7.329  0.2508 -0.0322 -0.4867
23806SOL    HW176265   3.459   0.198   7.294 -0.3210 -1.1658 -1.7162
23806SOL    HW276266   3.581   0.183   7.383 -0.7897  1.3616 -0.5481
23807SOL     OW76267   3.502   4.909   8.304  0.0936 -0.0956 -0.1186
23807SOL    HW176268   3.548   4.944   8.228  0.3704 -0.7108 -0.2363
23807SOL    HW276269   3.410   4.922   8.285  0.1079 -1.3228 -1.0861
23808SOL     OW76270   4.916   1.221   4.090  0.4986  0.4428 -0.4910
23808SOL    HW176271   4.890   1.273   4.166  1.1932  0.4194 -0.2359
23808SOL    HW276272   4.861   1.254   4.019  0.9832  1.5902 -0.3562
23809SOL     OW76273   0.260   2.311   4.597 -0.0911 -0.2427  0.2082
23809SOL    HW176274   0.229   2.283   4.684  1.0005 -0.2766  0.5966
23809SOL    HW276275   0.319   2.242   4.569  1.3332  0.8416  0.4476
23810SOL     OW76276   6.573   8.786   6.740 -0.2507 -0.8991 -0.7226
23810SOL    HW176277   6.532   8.794   6.826  0.9909  0.7027 -0.2382
23810SOL    HW276278   6.501   8.804   6.678 -0.8556 -0.7486  0.0097
23811SOL     OW76279   2.741   0.183   2.496 -0.2772  0.5639 -0.3655
23811SOL    HW176280   2.825   0.227   2.508  0.4466 -0.4637 -1.3855
23811SOL    HW276281   2.731   0.177   2.401 -0.3078 -1.4697 -0.2847
23812SOL     OW76282   3.362   4.185   2.102  0.6084  0.1087 -0.1186
23812SOL    HW176283   3.335   4.225   2.019 -1.9710 -0.4427  0.3810
23812SOL    HW276284   3.398   4.099   2.077  2.8957  1.2094 -0.8755
23813SOL     OW76285   7.180   2.528   9.695  0.5509 -0.7722 -0.1228
23813SOL    HW176286   7.271   2.542   9.670  0.5442 -1.1419 -0.3683
23813SOL    HW276287   7.150   2.613   9.727  0.9384 -0.6132 -0.1819
23814SOL     OW76288   3.148   4.251   3.015 -0.0168 -0.3703  0.2306
23814SOL    HW176289   3.104   4.280   2.935 -0.3721  1.9345  1.1696
23814SOL    HW276290   3.221   4.198   2.985 -1.8996 -2.1862 -1.4762
23815SOL     OW76291   1.000   5.494   2.720  0.0388 -0.9756 -0.3061
23815SOL    HW176292   0.962   5.406   2.718  0.2809 -1.1615  1.3575
23815SOL    HW276293   0.950   5.544   2.655 -0.5933 -2.1446 -0.7419
23816SOL     OW76294   9.715   3.813   0.620 -0.2840 -0.6861 -0.1440
23816SOL    HW176295   9.660   3.857   0.556 -0.9545 -2.5239 -0.8843
23816SOL    HW276296   9.731   3.879   0.688 -1.7331  0.4844 -0.8997
23817SOL     OW76297   2.606   6.706   4.768 -0.7045 -0.3367 -0.2235
23817SOL    HW176298   2.684   6.681   4.816 -0.9538 -1.5168 -0.3890
23817SOL    HW276299   2.535   6.655   4.808 -0.9722 -1.1183 -1.5861
23818SOL     OW76300   7.633   1.277   0.586  0.3373  0.0886  0.0302
23818SOL    HW176301   7.593   1.361   0.609 -0.6520 -0.0375 -1.1004
23818SOL    HW276302   7.726   1.289   0.604  0.2512  1.5129 -0.3416
23819SOL     OW76303   5.067   3.867   5.595 -0.4051 -0.2322  0.2987
23819SOL    HW176304   5.117   3.924   5.653 -2.0055  0.3855  1.1157
23819SOL    HW276305   5.013   3.814   5.653 -2.9583  1.2485 -0.5573
23820SOL     OW76306   4.244   1.601   4.339 -0.5262  0.3109 -0.1148
23820SOL    HW176307   4.290   1.530   4.383 -1.6990 -0.6890 -0.4180
23820SOL    HW276308   4.242   1.672   4.402  0.8605  0.1660  0.1211
23821SOL     OW76309   6.658   9.389   3.289  0.0863 -0.0627 -0.2786
23821SOL    HW176310   6.578   9.429   3.324 -0.0727 -1.8791  1.6391
23821SOL    HW276311   6.722   9.460   3.289 -0.9580  0.9144  0.2058
23822SOL     OW76312   8.963   5.055   4.627  0.1621 -0.1218 -1.4928
23822SOL    HW176313   8.870   5.068   4.613 -0.2577  1.8689  2.0175
23822SOL    HW276314   8.969   4.978   4.682  0.2257  1.2999  0.6131
23823SOL     OW76315   8.968   2.215   4.405 -0.2586  0.3315  0.2733
23823SOL    HW176316   8.984   2.260   4.323  1.1034 -1.0827 -0.2843
23823SOL    HW276317   9.048   2.228   4.456 -1.6351  2.5468  2.1309
23824SOL     OW76318   7.466   4.399   4.495  0.2708  0.0692  0.6972
23824SOL    HW176319   7.465   4.430   4.404 -1.2702 -1.7716  0.0047
23824SOL    HW276320   7.525   4.459   4.540  1.5432  0.7081 -1.6275
23825SOL     OW76321   5.606   1.306   2.206  0.0372  0.7060 -0.6579
23825SOL    HW176322   5.649   1.258   2.277  2.3754  1.0338 -1.7774
23825SOL    HW276323   5.552   1.372   2.251  1.5855  1.0343  0.8333
23826SOL     OW76324   2.325   9.332   7.091 -0.2969 -0.0553 -0.1740
23826SOL    HW176325   2.262   9.378   7.036 -0.5612  0.2380  0.3632
23826SOL    HW276326   2.279   9.253   7.120 -0.4690  0.2253  0.3255
23827SOL     OW76327   4.056   8.257   7.739 -0.4509 -0.6940 -0.7486
23827SOL    HW176328   4.113   8.194   7.783 -0.7796 -2.7603 -3.0057
23827SOL    HW276329   4.115   8.323   7.703 -0.0355  0.0492  1.1996
23828SOL     OW76330   5.924   1.234   1.731 -0.1138  0.1972  0.1887
23828SOL    HW176331   5.919   1.187   1.814  0.4424 -1.2535 -0.5560
23828SOL    HW276332   5.953   1.322   1.755  0.9533 -0.4591  1.4547
23829SOL     OW76333   4.099   0.789   9.293  0.3562 -0.1296  0.1762
23829SOL    HW176334   4.096   0.784   9.197  1.4988 -0.2217  0.1314
23829SOL    HW276335   4.104   0.883   9.312 -1.0714 -0.0359  0.2133
23830SOL     OW76336   7.360   5.290   0.002 -0.1217 -0.3506 -0.4372
23830SOL    HW176337   7.272   5.322  -0.018 -0.2072  1.2551  2.1090
23830SOL    HW276338   7.355   5.258   0.092  1.9104 -0.1126 -0.1828
23831SOL     OW76339   3.546   7.099   3.183 -0.0481 -0.7468 -0.3278
23831SOL    HW176340   3.563   7.139   3.098  1.7869  0.6965  0.6419
23831SOL    HW276341   3.457   7.127   3.206  0.8938  2.3566 -0.0013
23832SOL     OW76342   2.492   8.862   9.157 -0.0696 -0.0914 -0.7674
23832SOL    HW176343   2.541   8.934   9.116  0.8470 -0.5555 -0.5195
23832SOL    HW276344   2.513   8.869   9.250  0.6773 -1.1491 -0.8356
23833SOL     OW76345   3.806   7.119   3.024 -0.1492 -0.3171 -0.3026
23833SOL    HW176346   3.818   7.212   3.044 -0.2500 -0.6762  1.6702
23833SOL    HW276347   3.894   7.083   3.022 -0.1618 -0.3608 -0.0704
23834SOL     OW76348   7.669   0.331   4.245 -0.1324 -0.1893  0.0138
23834SOL    HW176349   7.716   0.287   4.314  1.4631  2.0371  0.4581
23834SOL    HW276350   7.736   0.357   4.182 -0.7584  2.3926  0.2799
23835SOL     OW76351   3.943   6.230   2.110 -0.3651  0.0438  0.0992
23835SOL    HW176352   4.024   6.203   2.066  0.6325  0.8970  1.3431
23835SOL    HW276353   3.900   6.289   2.048  0.9930  1.1938  0.2040
23836SOL     OW76354   7.092   1.287   4.565  0.2746  0.5753 -0.4105
23836SOL    HW176355   7.077   1.347   4.492  0.7129  1.4151  0.1563
23836SOL    HW276356   7.188   1.278   4.569  0.1700 -1.0353 -1.1488
23837SOL     OW76357   1.403   6.560   5.903 -0.0156  0.2226 -0.4221
23837SOL    HW176358   1.483   6.611   5.895 -0.8054  1.4286 -0.9473
23837SOL    HW276359   1.416   6.485   5.846  0.6668  0.4978 -0.6374
23838SOL     OW76360   5.653   5.735   4.305  0.0455 -0.1011 -0.1804
23838SOL    HW176361   5.573   5.785   4.285 -0.6504 -1.4468 -0.8812
23838SOL    HW276362   5.662   5.743   4.400 -0.0548  1.3082 -0.2577
23839SOL     OW76363   7.583   5.610   8.717  0.2597  0.1889  0.1331
23839SOL    HW176364   7.521   5.571   8.656  0.8694 -3.2252  1.4767
23839SOL    HW276365   7.531   5.631   8.795  0.5443 -1.8625  0.9301
23840SOL     OW76366   5.681   4.592   4.398  0.4737  0.1099 -0.4981
23840SOL    HW176367   5.658   4.505   4.433 -0.3677  0.5897  0.1858
23840SOL    HW276368   5.730   4.573   4.319  3.5436 -1.0688  1.5065
23841SOL     OW76369   0.784   9.400   5.819 -0.3273 -0.1177 -0.1451
23841SOL    HW176370   0.783   9.336   5.891  1.1104 -0.8965 -0.7791
23841SOL    HW276371   0.830   9.475   5.855  1.1331 -0.8282 -0.4844
23842SOL     OW76372   5.238   1.351   3.371 -0.1875  0.3922  0.1823
23842SOL    HW176373   5.316   1.407   3.377  1.0404 -1.1780 -0.3256
23842SOL    HW276374   5.165   1.412   3.369  0.8403  1.9073  2.8619
23843SOL     OW76375   8.903   6.765   0.572  0.8315 -0.1267 -0.0526
23843SOL    HW176376   8.987   6.728   0.543  1.6767  0.1561  1.9024
23843SOL    HW276377   8.924   6.855   0.597 -0.0677 -0.0332  0.3806
23844SOL     OW76378   4.042   9.386   3.838  0.4549 -0.4478 -0.2159
23844SOL    HW176379   4.002   9.330   3.771 -0.9681  0.4361 -0.1365
23844SOL    HW276380   4.133   9.354   3.844  0.3956 -1.0730 -1.9721
23845SOL     OW76381   7.463   9.402   9.053  0.2602 -0.0879  0.2953
23845SOL    HW176382   7.383   9.439   9.015 -0.0439  0.0373  1.0374
23845SOL    HW276383   7.526   9.402   8.981 -0.3749 -0.0848 -0.2698
23846SOL     OW76384   7.790   1.139   3.059 -0.0703 -0.4354 -0.4850
23846SOL    HW176385   7.863   1.078   3.059  0.2318 -0.2139  2.2320
23846SOL    HW276386   7.813   1.203   3.127 -2.5707 -0.1278  0.1745
23847SOL     OW76387   2.644   6.094   1.482 -0.0990 -0.5714 -0.1065
23847SOL    HW176388   2.681   6.075   1.569  0.8005  1.2088 -0.0573
23847SOL    HW276389   2.634   6.008   1.441 -2.0109 -1.6207  2.2914
23848SOL     OW76390   3.814   8.526   3.272  0.0207  0.2649 -0.5570
23848SOL    HW176391   3.811   8.562   3.183  1.5224  0.5657 -0.4987
23848SOL    HW276392   3.727   8.544   3.307 -0.4325  0.6086 -1.7791
23849SOL     OW76393   8.348   3.794   4.953 -0.1406 -0.1444 -0.7317
23849SOL    HW176394   8.341   3.886   4.927 -0.5908  0.3102  0.8819
23849SOL    HW276395   8.303   3.746   4.884 -1.7745  1.0408 -0.5422
23850SOL     OW76396   5.851   4.391   9.628  0.4287 -0.7720 -0.5116
23850SOL    HW176397   5.937   4.353   9.647  0.6952 -1.1299 -2.2585
23850SOL    HW276398   5.788   4.322   9.650  0.5688 -0.5635  0.6231
23851SOL     OW76399   6.115   9.686   5.218  0.6884  0.3922 -0.5589
23851SOL    HW176400   6.056   9.732   5.158  0.3997  0.9122  0.1161
23851SOL    HW276401   6.084   9.595   5.217  0.6912  0.3906 -1.1941
23852SOL     OW76402   1.003   3.554   6.794 -0.1519  0.7730 -0.1847
23852SOL    HW176403   0.922   3.577   6.750  0.3527  0.6523 -1.2043
23852SOL    HW276404   0.985   3.471   6.837  0.1027 -0.4951 -2.3865
23853SOL     OW76405   3.901   3.533   7.136 -0.6020 -1.1412 -0.4208
23853SOL    HW176406   3.934   3.606   7.188  1.8146 -1.4581 -1.3685
23853SOL    HW276407   3.812   3.558   7.113 -0.3654  0.7869  0.5653
23854SOL     OW76408   8.440   8.124   4.570  0.5634  0.1475  0.0573
23854SOL    HW176409   8.449   8.205   4.619  2.7619  0.2091 -0.3430
23854SOL    HW276410   8.455   8.149   4.478 -2.0991 -0.1930 -0.5522
23855SOL     OW76411   8.292   1.377   6.192 -0.1496  0.1242 -0.1887
23855SOL    HW176412   8.284   1.468   6.223  1.0085  0.0495  0.3590
23855SOL    HW276413   8.299   1.385   6.097 -1.1401  0.5266 -0.2436
23856SOL     OW76414   5.762   0.965   9.455  0.2129  0.0436 -0.8462
23856SOL    HW176415   5.772   0.894   9.519 -3.1288  0.5563  0.4160
23856SOL    HW276416   5.846   0.967   9.409  2.5633 -0.8859  2.9396
23857SOL     OW76417   8.704   4.946   2.377  0.2707  0.0836  0.5102
23857SOL    HW176418   8.726   4.853   2.388  0.4221 -0.0790 -0.9797
23857SOL    HW276419   8.743   4.989   2.454  1.4943 -0.8902  0.4618
23858SOL     OW76420   9.224   0.711   8.172  0.0304  0.1285  0.0741
23858SOL    HW176421   9.207   0.638   8.113 -0.3217 -0.9887  1.5136
23858SOL    HW276422   9.318   0.728   8.163  0.0434 -0.2444 -0.5515
23859SOL     OW76423   4.533   5.958   0.473  0.1968  0.0433  0.0759
23859SOL    HW176424   4.569   5.885   0.523 -0.2565  0.0450  0.4070
23859SOL    HW276425   4.598   5.975   0.404  0.9567  0.2251  0.8272
23860SOL     OW76426   5.875   3.835   8.085  0.3179 -0.5272  0.6507
23860SOL    HW176427   5.929   3.894   8.033 -1.3641  0.9675  0.5290
23860SOL    HW276428   5.915   3.749   8.072  3.6923  0.6786  1.9503
23861SOL     OW76429   9.433   0.235   0.806 -0.7617  0.1371  0.1163
23861SOL    HW176430   9.487   0.313   0.819 -1.6999  0.5561  1.8468
23861SOL    HW276431   9.367   0.262   0.743 -1.0628  0.7727  0.6832
23862SOL     OW76432   7.417   9.072   2.674 -0.2630 -0.2997 -0.1260
23862SOL    HW176433   7.328   9.055   2.704 -0.8650  1.2184 -1.0030
23862SOL    HW276434   7.451   9.138   2.735 -0.0119 -0.2857 -0.2786
23863SOL     OW76435   8.137   2.960   4.214 -0.1944  0.0134  0.1765
23863SOL    HW176436   8.170   3.030   4.271  0.7179  0.1588 -0.5177
23863SOL    HW276437   8.209   2.941   4.155 -0.0849 -2.1711  0.9195
23864SOL     OW76438   5.779   0.054   9.367  0.2663 -0.0152  0.7598
23864SOL    HW176439   5.781   0.099   9.283 -0.2570  0.1390  0.8259
23864SOL    HW276440   5.872   0.042   9.390  0.4097  0.3723  0.3962
23865SOL     OW76441   0.493   8.745   5.558  0.2891  0.1956  0.0769
23865SOL    HW176442   0.474   8.836   5.538  1.5092 -0.0093 -2.3943
23865SOL    HW276443   0.419   8.715   5.611  0.1129  2.7183  1.3740
23866SOL     OW76444   5.378   6.825   0.318  0.7002  1.1588 -0.5277
23866SOL    HW176445   5.438   6.869   0.379  1.0201 -0.7518  0.6249
23866SOL    HW276446   5.302   6.802   0.372  2.0365 -2.8270 -0.0100
23867SOL     OW76447   4.892   2.963   0.392  0.5346 -0.4305 -0.2356
23867SOL    HW176448   4.804   2.958   0.429 -1.4547  1.0047 -4.1237
23867SOL    HW276449   4.912   3.057   0.390  1.9182 -0.7019  0.0787
23868SOL     OW76450   8.103   8.889   8.295 -0.4298 -0.1327 -0.0236
23868SOL    HW176451   8.104   8.984   8.288  1.1092 -0.0914  0.4912
23868SOL    HW276452   8.071   8.859   8.209 -0.2101  0.8258 -0.4494
23869SOL     OW76453   5.332   8.657   5.114  0.7358  0.1355 -0.6589
23869SOL    HW176454   5.305   8.719   5.045  1.5684  2.4452  0.9691
23869SOL    HW276455   5.427   8.652   5.105  0.6673 -1.1407 -0.8842
23870SOL     OW76456   9.228   6.710   5.945 -0.2053  0.1765 -0.3390
23870SOL    HW176457   9.205   6.795   5.981 -0.6372  0.1871 -0.6294
23870SOL    HW276458   9.255   6.658   6.021 -0.2941  0.4553 -0.1150
23871SOL     OW76459   6.449   2.130   4.992  0.6752 -0.0141 -0.2344
23871SOL    HW176460   6.362   2.093   4.976  2.0959 -2.7154 -2.6465
23871SOL    HW276461   6.461   2.123   5.087 -1.6900  0.4906  0.1810
23872SOL     OW76462   5.558   9.100   6.216  0.0049  0.5605  0.3719
23872SOL    HW176463   5.467   9.108   6.243  0.4678 -1.7971  3.1024
23872SOL    HW276464   5.558   9.025   6.156  0.1325  0.8307  0.0269
23873SOL     OW76465   7.475   5.416   1.079  0.3801 -0.2533 -0.0594
23873SOL    HW176466   7.498   5.411   1.172 -0.5878 -1.3818  0.1426
23873SOL    HW276467   7.388   5.377   1.073 -0.4164  1.5974 -1.1727
23874SOL     OW76468   3.267   7.680   6.493  0.0537  0.2117  0.6655
23874SOL    HW176469   3.189   7.696   6.547 -0.4647  0.4120 -0.1277
23874SOL    HW276470   3.234   7.680   6.403  0.6645 -1.4509  0.3991
23875SOL     OW76471   0.628   5.656   1.141 -0.7844 -0.1924 -0.2265
23875SOL    HW176472   0.568   5.618   1.205  1.1651 -0.9149  1.2797
23875SOL    HW276473   0.592   5.743   1.124 -2.0336 -0.4421  0.9160
23876SOL     OW76474   2.731   3.509   7.395  0.4409  0.2580  0.0754
23876SOL    HW176475   2.719   3.509   7.490  0.7491  0.4332  0.1124
23876SOL    HW276476   2.642   3.512   7.360  0.3494  0.9306  0.3579
23877SOL     OW76477   1.200   1.601   6.938  0.1391 -0.3841  0.4542
23877SOL    HW176478   1.145   1.526   6.915  1.4483 -2.1100  2.4885
23877SOL    HW276479   1.143   1.659   6.988 -0.6506 -0.5249 -0.2742
23878SOL     OW76480   0.222   3.406   5.630  0.2622  0.3008  0.0705
23878SOL    HW176481   0.274   3.445   5.560  0.8518 -0.8901 -0.1727
23878SOL    HW276482   0.274   3.333   5.662 -1.4755 -1.2898 -0.5574
23879SOL     OW76483   7.743   5.753   5.881 -0.3421 -0.2535 -0.4690
23879SOL    HW176484   7.679   5.711   5.939 -0.2448 -1.0421 -0.9202
23879SOL    HW276485   7.755   5.841   5.918  0.0914 -0.8988  0.9856
23880SOL     OW76486   3.241   2.343   3.086 -0.5495 -0.3114 -0.8889
23880SOL    HW176487   3.261   2.385   3.170  0.5279 -0.9525 -0.8042
23880SOL    HW276488   3.321   2.356   3.034 -0.3065 -1.9358 -0.9764
23881SOL     OW76489   7.338   7.369   6.590  0.1947 -0.0193 -0.1087
23881SOL    HW176490   7.245   7.361   6.611  0.5523  0.2091  1.6609
23881SOL    HW276491   7.381   7.304   6.645  1.1344  0.1070 -0.6646
23882SOL     OW76492   7.285   8.528   4.226 -0.0055 -0.4139  0.0564
23882SOL    HW176493   7.296   8.434   4.212 -1.5198 -0.4856 -0.8169
23882SOL    HW276494   7.331   8.544   4.309  2.2483 -1.4660 -0.9086
23883SOL     OW76495   7.624   8.819   4.627  0.3298  0.2747 -0.1834
23883SOL    HW176496   7.625   8.914   4.637  1.6134  0.7178 -3.3032
23883SOL    HW276497   7.541   8.800   4.584  0.0933 -0.0282  0.3970
23884SOL     OW76498   5.345   4.566   6.736  0.1555  0.3709 -0.4791
23884SOL    HW176499   5.358   4.659   6.752 -0.1545 -0.1052  3.2204
23884SOL    HW276500   5.254   4.550   6.760 -0.3417 -0.6495 -2.7723
23885SOL     OW76501   7.932   5.021   9.104 -0.0115 -0.2385 -0.8370
23885SOL    HW176502   7.924   5.094   9.166 -1.9434 -0.4627 -0.7722
23885SOL    HW276503   7.991   4.960   9.148 -1.0007 -0.1933  0.6267
23886SOL     OW76504   8.256   0.658   2.960  0.8006  0.0251  0.2486
23886SOL    HW176505   8.267   0.742   2.915 -0.2319 -0.4609 -0.9876
23886SOL    HW276506   8.330   0.605   2.930  1.0141  0.2358  0.4036
23887SOL     OW76507   0.919   1.801   8.508  0.3697 -0.3458  0.1203
23887SOL    HW176508   0.992   1.857   8.482 -1.0032  0.8233 -1.4249
23887SOL    HW276509   0.947   1.763   8.591  2.9566 -0.4029 -0.6744
23888SOL     OW76510   5.965   2.516   4.972 -0.0459 -0.2520  0.3912
23888SOL    HW176511   5.879   2.558   4.977 -0.3607 -0.9991  2.5150
23888SOL    HW276512   6.028   2.588   4.982 -0.4707  0.1290  0.3445
23889SOL     OW76513   7.374   2.070   3.623  0.0939 -0.0123  0.1799
23889SOL    HW176514   7.346   2.049   3.534  0.1601 -0.2212  0.2082
23889SOL    HW276515   7.293   2.098   3.667  0.1392  0.5169 -0.0665
23890SOL     OW76516   3.126   4.020   4.528  0.3273 -0.2383  0.3272
23890SOL    HW176517   3.160   4.062   4.449  1.2511 -1.6255 -0.0493
23890SOL    HW276518   3.106   3.931   4.501 -0.9682 -0.2532  1.2660
23891SOL     OW76519   2.645   4.731   5.071  0.0591 -0.3715 -0.1779
23891SOL    HW176520   2.591   4.683   5.133  0.6961 -1.6094 -0.5582
23891SOL    HW276521   2.588   4.800   5.038 -1.5882 -2.1444 -1.2212
23892SOL     OW76522   8.377   9.032   8.996 -0.4267  0.3327 -0.8763
23892SOL    HW176523   8.416   8.949   9.022 -0.5017  1.1026  2.0118
23892SOL    HW276524   8.283   9.014   8.987 -0.1173 -0.4442 -3.0167
23893SOL     OW76525   9.058   8.856   6.073  0.6468 -0.1182 -0.0422
23893SOL    HW176526   9.060   8.927   6.009  2.2244  1.4523  1.6342
23893SOL    HW276527   9.145   8.817   6.067  0.3339 -0.8649  0.1938
23894SOL     OW76528   7.362   2.619   5.856  0.0845  0.3622 -0.7266
23894SOL    HW176529   7.427   2.548   5.854  0.3651  0.6346 -1.6581
23894SOL    HW276530   7.280   2.575   5.878  0.4721 -0.0760 -0.1226
23895SOL     OW76531   4.955   3.243   8.365  0.3187 -0.1577 -0.2446
23895SOL    HW176532   4.955   3.211   8.455 -0.2498 -0.3486 -0.3108
23895SOL    HW276533   5.040   3.213   8.330  0.9032  0.6299  0.4628
23896SOL     OW76534   5.168   8.260   1.253 -0.1262 -0.3545 -0.8057
23896SOL    HW176535   5.078   8.231   1.243 -0.7159  0.6476  1.0860
23896SOL    HW276536   5.197   8.222   1.336  0.2453  1.5144 -0.0299
23897SOL     OW76537   6.605   1.993   3.896  0.6154 -0.1198 -0.4155
23897SOL    HW176538   6.655   2.013   3.817 -1.2991  0.9218 -1.4455
23897SOL    HW276539   6.548   2.069   3.908  0.3816 -0.5651  1.5980
23898SOL     OW76540   5.142   6.926   6.516  0.4018 -0.2014 -0.1964
23898SOL    HW176541   5.129   7.004   6.463  1.6863  0.5461  0.5471
23898SOL    HW276542   5.175   6.860   6.455  1.0640  0.3954 -0.4895
23899SOL     OW76543   7.154   3.616   7.496  0.5370  0.4614 -0.0947
23899SOL    HW176544   7.128   3.672   7.569  2.2000  1.2019 -0.0263
23899SOL    HW276545   7.126   3.663   7.417  3.2611  2.2989 -0.1285
23900SOL     OW76546   8.148   2.621   8.899  0.1800  0.5561  0.3179
23900SOL    HW176547   8.227   2.675   8.904 -0.0623  1.2093 -1.8118
23900SOL    HW276548   8.172   2.539   8.943  1.6499  1.1559  0.6988
23901SOL     OW76549   3.437   5.877   3.629 -0.1327  0.8887  0.0488
23901SOL    HW176550   3.414   5.903   3.540 -2.9422 -1.3979 -0.0273
23901SOL    HW276551   3.427   5.957   3.681 -0.6690  1.7465 -1.3243
23902SOL     OW76552   5.692   6.882   2.597  0.1852 -0.4678 -0.6096
23902SOL    HW176553   5.716   6.802   2.551  2.1957 -0.0378 -0.3948
23902SOL    HW276554   5.751   6.885   2.673 -0.0121  1.0771 -0.4862
23903SOL     OW76555   1.962   0.815   9.186 -0.0858  0.0870  0.5046
23903SOL    HW176556   2.009   0.806   9.103 -0.6879 -3.5087  0.3894
23903SOL    HW276557   2.030   0.807   9.253 -0.0624 -1.3955  0.3275
23904SOL     OW76558   3.836   8.439   5.510 -0.1223  0.2930  0.2681
23904SOL    HW176559   3.763   8.422   5.450  0.2016  1.1199 -0.3732
23904SOL    HW276560   3.868   8.352   5.533  0.4512 -0.0713 -1.6536
23905SOL     OW76561   1.408   8.865   0.998  0.2170 -0.4455  0.0409
23905SOL    HW176562   1.436   8.849   1.088 -0.9394  0.3210  0.5557
23905SOL    HW276563   1.455   8.943   0.971  1.2211 -1.1592 -0.3452
23906SOL     OW76564   7.545   7.484   3.782  0.3286 -0.0651 -0.7452
23906SOL    HW176565   7.583   7.565   3.748 -0.2588  0.4231 -0.2571
23906SOL    HW276566   7.576   7.478   3.872  0.9421 -0.7589 -0.9922
23907SOL     OW76567   6.394   6.527   6.210 -0.6162 -0.1085  0.0304
23907SOL    HW176568   6.305   6.551   6.235 -1.2577  0.7175 -2.6924
23907SOL    HW276569   6.443   6.609   6.213 -0.2507 -0.3368  0.3572
23908SOL     OW76570   7.086   3.982   2.260  0.3488  0.2529  0.0904
23908SOL    HW176571   7.113   4.047   2.195  0.6037  2.1192  1.9584
23908SOL    HW276572   7.121   3.899   2.227  1.3368  1.2943 -1.6253
23909SOL     OW76573   3.484   1.864   8.480 -0.0699 -0.1117 -0.1463
23909SOL    HW176574   3.419   1.796   8.462  0.3453 -0.5042 -0.2138
23909SOL    HW276575   3.436   1.946   8.478 -0.2951 -0.2508 -1.7433
23910SOL     OW76576   6.383   5.590   6.972  0.9749 -0.0453  0.0206
23910SOL    HW176577   6.347   5.524   7.031  0.5669 -0.2288 -0.4276
23910SOL    HW276578   6.477   5.570   6.968  0.9322 -0.2978  0.2647
23911SOL     OW76579   2.875   8.915   5.517  0.2992  0.0906 -0.0327
23911SOL    HW176580   2.877   8.947   5.607 -0.7752  0.9768 -0.3109
23911SOL    HW276581   2.892   8.821   5.525 -1.1581 -0.1067  1.2381
23912SOL     OW76582   7.358   8.888   2.328 -0.5890  0.0180 -0.1627
23912SOL    HW176583   7.377   8.981   2.336 -0.6044 -0.0154  0.2820
23912SOL    HW276584   7.423   8.845   2.384 -2.8706 -0.0037  2.7630
23913SOL     OW76585   8.309   4.554   4.355  0.5315  0.3668  0.5550
23913SOL    HW176586   8.235   4.534   4.414  0.2199  0.4051  0.1834
23913SOL    HW276587   8.275   4.534   4.267  1.0599  0.1124  0.4054
23914SOL     OW76588   0.891   5.661   0.580 -0.4959  0.4213  0.1160
23914SOL    HW176589   0.972   5.617   0.607 -1.9644 -0.8242  3.0622
23914SOL    HW276590   0.898   5.669   0.485  2.7525 -0.2044  0.1833
23915SOL     OW76591   3.197   6.310   8.240 -0.0604 -0.2748  0.1966
23915SOL    HW176592   3.201   6.386   8.183  0.1348  0.8568  1.6783
23915SOL    HW276593   3.284   6.269   8.231  1.0909  1.6216  1.9437
23916SOL     OW76594   8.170   0.673   3.217 -0.3122  0.1872 -0.2572
23916SOL    HW176595   8.249   0.708   3.257  0.2213 -1.7930  0.5347
23916SOL    HW276596   8.188   0.672   3.124  0.0972  0.9166 -0.1902
23917SOL     OW76597   7.124   7.538   7.227 -0.0634 -0.0798  0.7745
23917SOL    HW176598   7.051   7.589   7.193  0.3831 -0.0242 -0.1186
23917SOL    HW276599   7.083   7.473   7.285 -0.7793  0.2228  0.6151
23918SOL     OW76600   6.846   3.833   3.974 -0.5127  0.1465  0.1990
23918SOL    HW176601   6.773   3.857   4.031 -0.5852 -0.1799  0.2497
23918SOL    HW276602   6.845   3.899   3.905 -1.1619 -0.1199 -0.0644
23919SOL     OW76603   7.853   1.253   3.344 -0.1333  0.4609  0.5306
23919SOL    HW176604   7.896   1.311   3.407  0.6647 -1.0814  1.4792
23919SOL    HW276605   7.759   1.271   3.354  0.0300  0.7702  1.6468
23920SOL     OW76606   8.609   8.361   7.990  0.0566  0.2633  0.0392
23920SOL    HW176607   8.545   8.341   8.058  0.9602  1.5821  1.3425
23920SOL    HW276608   8.684   8.306   8.011 -0.6849 -1.5240 -1.6734
23921SOL     OW76609   1.608   4.258   5.936  0.3226  0.4048 -0.0932
23921SOL    HW176610   1.559   4.252   6.018  2.3917 -0.2271  1.1525
23921SOL    HW276611   1.699   4.247   5.961  1.1773  1.8123 -2.3005
23922SOL     OW76612   4.895   5.044   7.473  0.0981  0.1469  0.1553
23922SOL    HW176613   4.874   5.011   7.386 -0.1543  1.1088 -0.1687
23922SOL    HW276614   4.906   5.139   7.461  0.5207  0.2309  1.0829
23923SOL     OW76615   7.199   4.914   1.880 -0.1766  0.4965 -0.2440
23923SOL    HW176616   7.196   4.948   1.791 -0.3689  0.4887 -0.2412
23923SOL    HW276617   7.108   4.917   1.910 -0.1452  0.2886 -0.1268
23924SOL     OW76618   7.719   6.373   8.912  0.2830 -0.9029 -0.0369
23924SOL    HW176619   7.709   6.301   8.850  0.9676  0.6584 -2.0591
23924SOL    HW276620   7.812   6.394   8.909  0.3176 -0.7294  1.5027
23925SOL     OW76621   6.451   4.060   1.901  0.2683 -0.1614 -0.1254
23925SOL    HW176622   6.397   4.037   1.976  0.2250 -0.4100 -0.2337
23925SOL    HW276623   6.421   4.148   1.876 -0.4850 -0.5219 -0.5351
23926SOL     OW76624   0.394   3.290   1.404 -0.4989 -0.0911  0.2141
23926SOL    HW176625   0.395   3.366   1.462  1.0916  2.1585 -2.4825
23926SOL    HW276626   0.483   3.255   1.410 -0.3523  0.0989 -0.7034
23927SOL     OW76627   8.502   4.756   5.852 -0.5668  0.1715  0.2932
23927SOL    HW176628   8.543   4.827   5.902 -0.2122 -0.1876  0.5149
23927SOL    HW276629   8.445   4.711   5.914 -0.0002 -0.3771  0.4269
23928SOL     OW76630   4.100   8.227   6.165 -0.3478  0.1077 -0.1056
23928SOL    HW176631   4.150   8.276   6.230 -0.0262 -2.0030  1.3566
23928SOL    HW276632   4.011   8.224   6.202 -0.8748  1.3101 -1.2158
23929SOL     OW76633   2.691   5.391   8.339  0.0959  0.7596 -0.0100
23929SOL    HW176634   2.720   5.342   8.416 -0.5425  0.4994  0.0671
23929SOL    HW276635   2.769   5.396   8.284  0.0559 -0.7756 -0.2532
23930SOL     OW76636   4.172   2.191   5.620  0.3665 -0.0456  0.3133
23930SOL    HW176637   4.128   2.215   5.702 -0.3966 -1.5164  0.3640
23930SOL    HW276638   4.122   2.117   5.586  1.5259 -0.3808 -0.7601
23931SOL     OW76639   6.039   8.662   7.861 -0.3027  0.3189 -0.7105
23931SOL    HW176640   6.018   8.680   7.769  1.0114  2.5412 -0.6576
23931SOL    HW276641   6.134   8.659   7.864 -0.3243  0.2739  0.5812
23932SOL     OW76642   6.514   1.722   3.922 -0.3847  0.0352 -0.4703
23932SOL    HW176643   6.556   1.807   3.937 -1.1231  0.3011  0.1316
23932SOL    HW276644   6.484   1.726   3.831 -0.7804  0.5870 -0.3216
23933SOL     OW76645   2.350   3.366   6.833 -0.0915  0.3542  0.0174
23933SOL    HW176646   2.379   3.451   6.867  2.1581 -0.2116 -0.3259
23933SOL    HW276647   2.431   3.316   6.822 -1.1386 -1.0455 -1.9240
23934SOL     OW76648   5.410   3.956   3.608  0.7502  0.3371 -0.0047
23934SOL    HW176649   5.386   4.049   3.615  0.8067  0.3652 -0.1849
23934SOL    HW276650   5.351   3.912   3.670  1.4104  0.6071  0.8335
23935SOL     OW76651   8.224   7.104   6.279  0.4045  0.5553 -0.3996
23935SOL    HW176652   8.302   7.132   6.231 -0.2798  0.5994 -1.5136
23935SOL    HW276653   8.169   7.062   6.213  0.0813 -0.7266  0.6427
23936SOL     OW76654   1.820   4.418   6.698  0.3390  0.5967  0.1254
23936SOL    HW176655   1.843   4.443   6.609 -0.3386 -1.3971 -0.6618
23936SOL    HW276656   1.814   4.502   6.745  1.0944  1.6708 -1.5739
23937SOL     OW76657   7.333   7.558   5.121 -0.3406 -0.1496  0.3334
23937SOL    HW176658   7.345   7.651   5.139  1.3199 -0.0294 -1.1821
23937SOL    HW276659   7.390   7.513   5.183  2.3756  0.1086 -1.7826
23938SOL     OW76660   9.413   2.273   4.261  0.2044  0.2577  0.3386
23938SOL    HW176661   9.358   2.244   4.188 -0.1554 -0.1955  0.7832
23938SOL    HW276662   9.470   2.340   4.223 -0.5131  0.5841 -0.1815
23939SOL     OW76663   7.978   2.287   8.885 -0.4251  0.4030  0.4357
23939SOL    HW176664   8.060   2.267   8.930 -0.2738  1.2280  0.5428
23939SOL    HW276665   7.957   2.376   8.911 -0.6567  0.6817 -0.6462
23940SOL     OW76666   8.949   0.394   7.030  0.0980 -0.2140  0.1019
23940SOL    HW176667   9.009   0.460   6.995 -0.4324 -0.7673 -1.9348
23940SOL    HW276668   8.862   0.433   7.022 -0.1233 -0.7472 -0.1351
23941SOL     OW76669   7.279   5.075   3.798  0.3612 -0.0816  0.1845
23941SOL    HW176670   7.254   5.161   3.763 -0.1827 -1.1247 -2.1965
23941SOL    HW276671   7.207   5.051   3.857 -0.1552  0.5144 -0.1963
23942SOL     OW76672   7.733   1.192   4.607 -0.1427 -0.5880 -0.0391
23942SOL    HW176673   7.671   1.134   4.651 -0.1159 -0.9730 -0.4991
23942SOL    HW276674   7.793   1.220   4.676  0.8026 -2.3476 -0.0929
23943SOL     OW76675   6.085   3.639   3.924 -0.0191  0.2068  0.3552
23943SOL    HW176676   6.144   3.637   3.849  0.8656  0.1360  1.0349
23943SOL    HW276677   6.028   3.563   3.912 -1.3339  1.3746 -1.3492
23944SOL     OW76678   3.147   0.051   0.668  0.7736  0.2376 -0.4975
23944SOL    HW176679   3.079   0.077   0.605 -0.1119 -0.2291  0.2351
23944SOL    HW276680   3.119   0.090   0.751  0.5364 -1.2555  0.1643
23945SOL     OW76681   7.914   3.243   9.530  0.3753 -0.0982  0.6313
23945SOL    HW176682   7.990   3.281   9.486  0.6975 -0.3596  0.9533
23945SOL    HW276683   7.951   3.183   9.595 -0.1114 -0.4616  0.5852
23946SOL     OW76684   0.578   0.726   7.794  0.2455  0.0043 -0.0259
23946SOL    HW176685   0.485   0.719   7.817  0.1326 -0.2894 -0.5691
23946SOL    HW276686   0.596   0.820   7.800  0.2639 -0.0666  1.4066
23947SOL     OW76687   3.914   5.017   4.361 -0.0507  0.1895 -0.0563
23947SOL    HW176688   4.009   5.013   4.349 -0.0937 -0.3834 -0.2343
23947SOL    HW276689   3.902   5.031   4.455  0.2118  0.5919 -0.0778
23948SOL     OW76690   1.487   4.067   9.239 -0.6138  0.1064  0.2568
23948SOL    HW176691   1.470   4.161   9.233  1.4838  0.5413  0.4203
23948SOL    HW276692   1.512   4.041   9.150 -1.4296 -0.3675  0.1549
23949SOL     OW76693   3.057   1.495   4.266  0.2344  0.5471 -0.3652
23949SOL    HW176694   3.000   1.424   4.296  1.8068  0.2346  2.1124
23949SOL    HW276695   3.098   1.529   4.345  0.3929  3.5313 -1.5992
23950SOL     OW76696   8.956   2.983   0.709 -0.4385  0.0678  0.3023
23950SOL    HW176697   8.998   3.051   0.655  0.6856 -0.4008  0.5532
23950SOL    HW276698   8.879   3.026   0.746  0.2209  1.2047  0.4067
23951SOL     OW76699   9.621   8.515   6.425  0.0630  0.1324  0.1616
23951SOL    HW176700   9.643   8.542   6.336  0.1657 -0.9547 -0.1600
23951SOL    HW276701   9.586   8.427   6.415 -1.1896  0.5072  1.0617
23952SOL     OW76702   3.688   8.588   8.867  0.2420  0.4781 -0.1667
23952SOL    HW176703   3.695   8.651   8.795  0.2632 -0.1584 -0.7340
23952SOL    HW276704   3.605   8.544   8.852  1.2416 -1.2077 -1.1127
23953SOL     OW76705   3.418   9.017   1.671  0.8989  0.1459  0.0787
23953SOL    HW176706   3.447   8.956   1.738  1.8319 -0.4415 -0.8305
23953SOL    HW276707   3.337   9.054   1.706 -1.2268 -3.5537 -0.4361
23954SOL     OW76708   2.336   6.108   9.142  0.7998  0.0515  0.2584
23954SOL    HW176709   2.304   6.020   9.123  0.5411 -0.2786  2.0619
23954SOL    HW276710   2.378   6.101   9.227  0.1377  1.8202  0.7799
23955SOL     OW76711   3.018   6.125   2.729  0.2632  0.2656 -0.1889
23955SOL    HW176712   2.986   6.035   2.715  0.0246  0.5021 -1.3317
23955SOL    HW276713   3.111   6.115   2.745  0.2561 -0.1886 -0.4067
23956SOL     OW76714   3.793   9.060   8.097 -0.1473 -0.1057 -0.0458
23956SOL    HW176715   3.799   9.132   8.159 -0.3987  0.4580 -0.6597
23956SOL    HW276716   3.868   9.071   8.038  1.1243 -1.6794  1.2072
23957SOL     OW76717   6.459   7.824   2.351  0.4930  0.1222  0.4021
23957SOL    HW176718   6.553   7.824   2.335  0.3156  1.2294 -0.7899
23957SOL    HW276719   6.451   7.823   2.446  1.7231  0.7641  0.5330
23958SOL     OW76720   8.194   5.021   5.426  0.1376  0.2720 -0.2179
23958SOL    HW176721   8.171   4.962   5.354 -0.7957  0.3966 -0.0280
23958SOL    HW276722   8.117   5.075   5.439  0.8582  1.3095 -0.1468
23959SOL     OW76723   4.870   5.996   1.468 -0.0536 -0.0873 -0.2706
23959SOL    HW176724   4.946   5.938   1.472  0.7488  1.0025  1.1011
23959SOL    HW276725   4.795   5.939   1.482  0.7909 -0.7088  2.1847
23960SOL     OW76726   6.397   5.885   4.667  0.0538  0.5909  0.0003
23960SOL    HW176727   6.444   5.810   4.630 -0.4528  0.7784 -1.0910
23960SOL    HW276728   6.429   5.960   4.617 -0.9505  0.7989 -0.3616
23961SOL     OW76729   2.293   9.395   3.845 -0.2227  0.1358 -0.2098
23961SOL    HW176730   2.245   9.478   3.842  1.4344  1.1218 -0.7060
23961SOL    HW276731   2.231   9.331   3.811 -1.7584  1.0340  0.7596
23962SOL     OW76732   2.632   4.373   0.917  0.0911  0.1187 -0.2434
23962SOL    HW176733   2.706   4.324   0.953  1.6044  3.0196  0.9233
23962SOL    HW276734   2.641   4.363   0.822  2.1899  0.6364 -0.1412
23963SOL     OW76735   0.903   4.103   5.907 -0.7140  1.0325  0.2395
23963SOL    HW176736   0.934   4.173   5.965 -0.2510  0.8279  0.2436
23963SOL    HW276737   0.964   4.105   5.833 -2.0260  2.1135 -0.8700
23964SOL     OW76738   8.361   4.226   6.366 -0.3751 -0.0267  0.0827
23964SOL    HW176739   8.396   4.309   6.332 -1.8651 -0.1814 -2.0366
23964SOL    HW276740   8.427   4.196   6.429  1.1084  1.8132 -0.4913
23965SOL     OW76741   2.717   3.678   1.862  0.6424 -0.1861  0.1022
23965SOL    HW176742   2.764   3.755   1.829  1.4378 -0.9470 -0.5976
23965SOL    HW276743   2.784   3.609   1.865  0.3773 -0.4417  2.3500
23966SOL     OW76744   3.610   7.766   3.392 -0.3514 -0.0892 -0.1601
23966SOL    HW176745   3.622   7.754   3.298 -2.0716  1.5089 -0.6607
23966SOL    HW276746   3.541   7.704   3.416  0.7529 -1.1820  0.2893
23967SOL     OW76747   7.419   2.630   4.436 -0.2597  0.7132  0.0462
23967SOL    HW176748   7.342   2.573   4.444 -0.1227  0.4098 -0.6951
23967SOL    HW276749   7.415   2.661   4.346 -0.3350  1.8969  0.4427
23968SOL     OW76750   9.309   0.968   1.141 -0.1747  0.3432  0.5324
23968SOL    HW176751   9.236   0.906   1.142  0.5134 -0.4826  0.9817
23968SOL    HW276752   9.334   0.972   1.048 -0.6978  0.5358  0.3921
23969SOL     OW76753   1.839   1.159   3.103  0.3578 -0.1066 -0.0898
23969SOL    HW176754   1.917   1.209   3.082  0.0685  0.8386  0.9814
23969SOL    HW276755   1.847   1.139   3.196  0.1163 -1.4511 -0.3343
23970SOL     OW76756   1.976   9.584   5.411 -0.7014 -0.2345 -0.2059
23970SOL    HW176757   1.932   9.505   5.381 -0.3990  0.0908 -1.5842
23970SOL    HW276758   1.960   9.587   5.506 -3.1157 -0.4337 -0.5628
23971SOL     OW76759   7.025   0.598   6.375  0.1874 -0.1267 -1.1273
23971SOL    HW176760   6.964   0.581   6.303  0.8797 -0.3452 -1.6870
23971SOL    HW276761   6.987   0.671   6.423 -0.7654 -0.5977 -1.1527
23972SOL     OW76762   4.780   8.618   8.835  0.3525 -0.8217  0.2488
23972SOL    HW176763   4.817   8.695   8.877 -1.3580  1.3240 -1.8975
23972SOL    HW276764   4.709   8.590   8.893 -0.6743  0.8524 -0.1409
23973SOL     OW76765   3.319   9.042   3.913 -0.2585  0.1403  0.4746
23973SOL    HW176766   3.382   9.114   3.911 -1.4856  1.2677  1.3448
23973SOL    HW276767   3.332   9.002   3.999  0.7051 -0.9943 -0.1561
23974SOL     OW76768   7.333   0.973   4.268 -0.6809  0.3031  0.4524
23974SOL    HW176769   7.249   0.955   4.309  0.0326 -1.0043  1.4012
23974SOL    HW276770   7.339   0.912   4.195  0.2349 -0.9988  1.5578
23975SOL     OW76771   6.445   9.256   4.366  0.2931  0.0085  0.7110
23975SOL    HW176772   6.453   9.280   4.458 -0.2802  0.3740  0.6709
23975SOL    HW276773   6.411   9.335   4.324 -1.2127 -0.7198  0.4994
23976SOL     OW76774   7.375   7.878   7.374  0.1413 -0.0967  0.0296
23976SOL    HW176775   7.381   7.785   7.395 -1.2102 -0.0220  0.8326
23976SOL    HW276776   7.310   7.884   7.305  0.0752  0.2666  0.1194
23977SOL     OW76777   3.512   6.916   6.270  0.2431 -0.1845 -0.4183
23977SOL    HW176778   3.519   6.829   6.309  0.2144 -0.8055 -1.7498
23977SOL    HW276779   3.583   6.966   6.309 -1.5816  0.2162  2.7976
23978SOL     OW76780   2.163   4.146   6.399  0.1991 -0.1927  0.0470
23978SOL    HW176781   2.220   4.206   6.351  1.1838 -0.4952  0.7968
23978SOL    HW276782   2.171   4.174   6.491  2.3603 -2.7325  0.7426
23979SOL     OW76783   7.665   5.558   7.341  0.7544 -0.3054  0.0660
23979SOL    HW176784   7.694   5.633   7.393 -3.2212  2.3037 -1.0749
23979SOL    HW276785   7.707   5.571   7.256  0.6163  0.2294  0.0777
23980SOL     OW76786   3.249   5.290   5.414 -0.0940 -0.2747  0.0316
23980SOL    HW176787   3.163   5.252   5.395 -0.4117 -0.1207  1.1123
23980SOL    HW276788   3.260   5.357   5.346 -1.7463  1.0953  1.0129
23981SOL     OW76789   0.799   6.170   8.800 -0.6099 -0.1931  0.3470
23981SOL    HW176790   0.712   6.168   8.840 -1.6603  1.5163 -1.6554
23981SOL    HW276791   0.814   6.082   8.766 -1.5594 -0.4943  0.7089
23982SOL     OW76792   3.191   6.036   9.659 -0.5790  0.2986  0.2481
23982SOL    HW176793   3.143   5.998   9.733  0.5084 -0.5790  0.5201
23982SOL    HW276794   3.150   5.998   9.581  0.5342 -1.5267  0.5187
23983SOL     OW76795   1.538   6.018   1.222 -0.8300  0.2199  0.0645
23983SOL    HW176796   1.503   5.989   1.138 -0.0516  1.4008 -0.7199
23983SOL    HW276797   1.495   6.102   1.238  0.2927  0.8557 -0.0683
23984SOL     OW76798   0.952   2.758   1.739 -0.1235  0.1158  0.1479
23984SOL    HW176799   0.901   2.694   1.789 -0.6046  0.7589  0.4943
23984SOL    HW276800   0.919   2.843   1.768  1.7064  0.5904  0.9960
23985SOL     OW76801   4.669   0.804   6.308 -0.6091  0.1110 -0.1351
23985SOL    HW176802   4.637   0.715   6.291  0.0104 -0.2764  0.6625
23985SOL    HW276803   4.590   0.854   6.327 -1.0522 -0.0694 -1.3768
23986SOL     OW76804   4.971   3.252   4.392  0.1921  0.1754 -0.5481
23986SOL    HW176805   4.939   3.307   4.463  0.3527 -0.2471 -0.1477
23986SOL    HW276806   5.005   3.174   4.435  2.4698  0.9121 -0.8653
23987SOL     OW76807   9.717   6.254   0.796  0.8869 -0.6025 -0.0961
23987SOL    HW176808   9.791   6.236   0.738  0.5631  1.9505 -1.4442
23987SOL    HW276809   9.662   6.315   0.746 -0.4693  0.1044  2.1263
23988SOL     OW76810   0.826   5.100   8.129 -0.4420 -0.6381  0.0679
23988SOL    HW176811   0.905   5.123   8.178  1.0776 -0.7867 -2.1595
23988SOL    HW276812   0.781   5.183   8.115  1.1716  0.0314 -1.5681
23989SOL     OW76813   2.937   2.406   7.590  0.5365 -0.0816  0.4178
23989SOL    HW176814   2.960   2.470   7.522  0.3202  0.8060  1.1621
23989SOL    HW276815   3.021   2.384   7.630  0.3984  1.4447  1.6304
23990SOL     OW76816   8.024   3.539   3.076 -0.2356 -0.2116 -0.7187
23990SOL    HW176817   8.061   3.618   3.114 -0.8845  0.5930 -1.6793
23990SOL    HW276818   7.946   3.521   3.128  0.1105 -0.4368 -0.2737
23991SOL     OW76819   8.815   8.667   0.543 -0.3327 -0.1104  0.0207
23991SOL    HW176820   8.840   8.601   0.608  0.5415  1.5033  1.4131
23991SOL    HW276821   8.748   8.625   0.490 -0.7673 -1.6544  1.7107
23992SOL     OW76822   5.542   9.193   7.582 -0.0675 -0.0092 -0.0113
23992SOL    HW176823   5.613   9.169   7.522 -0.7136 -0.3746 -0.6569
23992SOL    HW276824   5.510   9.277   7.548 -0.5874 -0.3301 -0.3278
23993SOL     OW76825   0.572   0.413   0.727  0.3571 -0.6386 -0.5748
23993SOL    HW176826   0.594   0.503   0.749 -2.5119 -0.6000  3.0575
23993SOL    HW276827   0.632   0.360   0.781 -1.1503 -0.7067  1.1242
23994SOL     OW76828   2.753   5.231   2.706 -0.6563 -0.5598 -0.0875
23994SOL    HW176829   2.806   5.307   2.728 -0.2331 -1.3322  1.7456
23994SOL    HW276830   2.716   5.202   2.789 -2.5364 -1.1196 -1.0552
23995SOL     OW76831   8.159   3.907   7.526  0.6104 -0.1459 -0.0442
23995SOL    HW176832   8.193   3.819   7.541 -0.0590 -0.4425 -0.2352
23995SOL    HW276833   8.173   3.952   7.609  1.0149 -0.4045  0.0353
23996SOL     OW76834   4.426   5.905   7.490  0.0657 -0.4025  0.0720
23996SOL    HW176835   4.428   5.883   7.583  0.0117 -0.9309 -0.0507
23996SOL    HW276836   4.333   5.902   7.466  0.0831 -0.3086 -0.0103
23997SOL     OW76837   7.375   7.017   2.131 -0.3243 -0.3779 -0.1931
23997SOL    HW176838   7.311   7.085   2.110 -0.2985 -0.9461 -2.4063
23997SOL    HW276839   7.460   7.060   2.125 -0.4160  0.1306  1.7074
23998SOL     OW76840   5.578   1.794   1.393 -0.3059 -0.2689  0.3313
23998SOL    HW176841   5.512   1.836   1.448 -1.3106 -0.0800 -0.9747
23998SOL    HW276842   5.657   1.847   1.406 -1.4727  2.0057 -1.1225
23999SOL     OW76843   1.583   9.625   8.762 -0.0156  0.5301 -0.2866
23999SOL    HW176844   1.666   9.673   8.762  0.8599 -0.9207 -0.1826
23999SOL    HW276845   1.551   9.631   8.672  1.0339 -0.2613 -0.7239
24000SOL     OW76846   8.309   4.030   8.538  0.1887  0.2834 -0.0212
24000SOL    HW176847   8.371   4.006   8.469 -1.2642  0.6797 -1.5287
24000SOL    HW276848   8.225   3.994   8.509 -0.3565 -0.0868  1.8681
24001SOL     OW76849   8.044   0.064   5.830 -0.1003  0.7100 -0.0707
24001SOL    HW176850   7.961   0.024   5.854 -0.0068  0.3792 -0.2973
24001SOL    HW276851   8.088  -0.002   5.777  0.3443  0.8499  0.1201
24002SOL     OW76852   1.265   0.884   2.982 -0.3345  0.0404 -0.2367
24002SOL    HW176853   1.310   0.850   3.059  2.3564 -0.2970 -1.8365
24002SOL    HW276854   1.266   0.979   2.993 -3.9303 -0.0065  2.1196
24003SOL     OW76855   5.962   3.231   7.652 -0.2686 -0.0529  0.7047
24003SOL    HW176856   5.929   3.158   7.599  0.8346 -0.6481  0.7853
24003SOL    HW276857   6.051   3.203   7.676  0.1459  1.2952  0.7972
24004SOL     OW76858   5.256   1.045   4.619  0.7134 -0.0410 -0.1116
24004SOL    HW176859   5.180   1.042   4.561  0.8921  0.6033 -0.3871
24004SOL    HW276860   5.320   0.987   4.577  1.1894  1.1336 -1.0877
24005SOL     OW76861   7.393   4.750   8.552  0.4095 -0.3868  0.5145
24005SOL    HW176862   7.397   4.674   8.611  0.8957 -1.1316 -0.4470
24005SOL    HW276863   7.432   4.718   8.470  0.3926  0.8369  0.0178
24006SOL     OW76864   8.375   9.173   7.252  0.4035 -0.3164  0.0855
24006SOL    HW176865   8.351   9.081   7.264 -2.5540  0.2161 -0.9395
24006SOL    HW276866   8.471   9.173   7.248  0.5589 -3.1273  1.5543
24007SOL     OW76867   0.721   8.803   7.454  0.2422 -0.2740  0.0576
24007SOL    HW176868   0.800   8.770   7.497  0.1812 -0.7315 -0.1758
24007SOL    HW276869   0.683   8.726   7.412 -1.1497 -0.3798  1.4438
24008SOL     OW76870   5.613   9.433   8.948  0.7354 -0.1538  0.2592
24008SOL    HW176871   5.613   9.526   8.927  0.7107 -0.4113 -0.9158
24008SOL    HW276872   5.649   9.429   9.037 -0.0128  1.0357  0.6417
24009SOL     OW76873   3.214   8.622   1.705 -0.3500  0.6206 -0.1629
24009SOL    HW176874   3.221   8.556   1.636  0.3481 -1.1800  1.5408
24009SOL    HW276875   3.304   8.652   1.719 -0.7913  2.9127 -1.7434
24010SOL     OW76876   4.456   9.278   4.855  0.0515 -0.5747  0.5147
24010SOL    HW176877   4.525   9.331   4.894  0.2692 -1.6066  1.5952
24010SOL    HW276878   4.374   9.318   4.885  0.2147 -1.2049  1.8667
24011SOL     OW76879   4.330   1.890   5.934 -0.2197  0.4284 -0.2718
24011SOL    HW176880   4.296   1.858   6.018  0.0066  1.6243  0.3023
24011SOL    HW276881   4.338   1.984   5.946 -1.6340  0.8511 -2.1667
24012SOL     OW76882   9.499   9.377   2.023 -0.3560 -0.5694 -0.5342
24012SOL    HW176883   9.517   9.471   2.017 -0.8805 -0.4316 -0.0962
24012SOL    HW276884   9.412   9.366   1.983  0.6767 -1.2408 -2.7322
24013SOL     OW76885   2.122   4.058   3.594 -0.1206 -0.1233 -0.4871
24013SOL    HW176886   2.104   4.125   3.527 -2.0160 -0.7343 -0.6510
24013SOL    HW276887   2.112   3.975   3.548  1.1623 -0.5592 -0.0232
24014SOL     OW76888   2.800   7.719   5.478  0.0406  0.6220  0.2895
24014SOL    HW176889   2.760   7.701   5.393  1.2061  1.4993 -0.4690
24014SOL    HW276890   2.759   7.801   5.506  0.0706  0.6284  0.3142
24015SOL     OW76891   9.309   8.504   2.430  0.2160  0.0268  0.2591
24015SOL    HW176892   9.256   8.425   2.422  1.4547 -0.6331 -2.8262
24015SOL    HW276893   9.373   8.484   2.499  0.3515 -1.5853 -0.2958
24016SOL     OW76894   6.374   6.092   3.613 -0.6470 -0.2693  0.5330
24016SOL    HW176895   6.391   6.024   3.677  0.8249  0.2810  0.7700
24016SOL    HW276896   6.377   6.047   3.528 -0.7533 -0.6848  0.7485
24017SOL     OW76897   0.103   2.934   0.539 -0.2442 -0.4138 -0.7992
24017SOL    HW176898   0.081   2.883   0.617 -0.3722  0.6814 -0.0871
24017SOL    HW276899   0.156   2.875   0.485  1.1769 -0.7270  0.8375
24018SOL     OW76900   5.419   2.317   4.126 -0.4844  0.2734  0.7490
24018SOL    HW176901   5.396   2.378   4.196 -0.0079  0.5057  0.7052
24018SOL    HW276902   5.492   2.266   4.161  0.2941  0.9389  0.1292
24019SOL     OW76903   1.143   0.039   7.256  0.3077  0.1510  0.0205
24019SOL    HW176904   1.123   0.024   7.348 -1.2876 -0.0749 -0.3311
24019SOL    HW276905   1.113   0.129   7.239  1.5213  0.5573 -0.0511
24020SOL     OW76906   1.928   1.297   7.407 -0.0784 -0.2463  0.0658
24020SOL    HW176907   1.999   1.361   7.402 -1.0077  0.7869 -0.3146
24020SOL    HW276908   1.899   1.301   7.498 -0.2220 -0.0048  0.0127
24021SOL     OW76909   3.144   7.786   5.994 -0.1230 -0.9082 -0.1550
24021SOL    HW176910   3.068   7.757   6.044 -0.3150 -0.7592 -0.3610
24021SOL    HW276911   3.128   7.878   5.976  0.5133 -0.6514  0.5405
24022SOL     OW76912   5.661   1.313   5.883 -0.5435 -0.2275  0.6404
24022SOL    HW176913   5.732   1.256   5.913 -1.2061 -0.4796  1.7930
24022SOL    HW276914   5.693   1.402   5.898 -0.2788 -0.3281  0.6771
24023SOL     OW76915   0.721   5.857   8.228 -0.4005 -0.2318 -0.1053
24023SOL    HW176916   0.733   5.917   8.155  1.4923 -1.4988 -0.9202
24023SOL    HW276917   0.722   5.913   8.306 -0.4182  0.9414 -0.9230
24024SOL     OW76918   2.424   8.614   3.884  0.6623 -0.5450  0.4798
24024SOL    HW176919   2.440   8.627   3.791 -0.8288  0.2119  0.3088
24024SOL    HW276920   2.329   8.615   3.893  0.7852 -0.3378  2.0514
24025SOL     OW76921   0.213   3.876   8.953  0.1763  0.0306  0.1275
24025SOL    HW176922   0.288   3.875   8.894  0.3201 -0.4912  0.3205
24025SOL    HW276923   0.220   3.795   9.002 -3.1030 -2.4593 -3.0543
24026SOL     OW76924   7.097   9.533   4.758  0.2987  0.1267 -0.0169
24026SOL    HW176925   7.033   9.603   4.749  0.2476  0.3696  1.8832
24026SOL    HW276926   7.078   9.494   4.843  2.3885 -0.0783  0.4008
24027SOL     OW76927   3.332   0.483   9.615  0.4727 -0.6812 -0.0443
24027SOL    HW176928   3.265   0.452   9.676  0.3091 -2.4254 -1.0529
24027SOL    HW276929   3.335   0.578   9.629 -2.9757 -0.3455 -0.6821
24028SOL     OW76930   4.254   8.888   7.240  0.0002  0.2303  0.3941
24028SOL    HW176931   4.185   8.867   7.177  1.2580 -1.5327 -0.4804
24028SOL    HW276932   4.332   8.903   7.187  0.4972  1.4151  1.4064
24029SOL     OW76933   3.022   9.531   6.183  0.2192 -0.1879 -0.4321
24029SOL    HW176934   2.952   9.479   6.141 -0.9806  0.7212  0.3729
24029SOL    HW276935   2.976   9.605   6.222  1.8756  1.4514 -1.4385
24030SOL     OW76936   3.104   6.619   1.270 -0.3626  0.1899 -0.1216
24030SOL    HW176937   3.134   6.677   1.340 -0.7501  0.9449 -0.5663
24030SOL    HW276938   3.168   6.632   1.199  0.0146 -0.5523  0.0755
24031SOL     OW76939   8.561   6.147   5.734 -0.1062  0.0124  0.3390
24031SOL    HW176940   8.628   6.138   5.802 -0.9374 -2.1172  0.9493
24031SOL    HW276941   8.607   6.128   5.653  0.0966 -1.2444  0.7316
24032SOL     OW76942   3.841   3.025   5.289  0.2649  0.1181  0.0604
24032SOL    HW176943   3.883   3.102   5.326 -1.6995  1.0154  0.5235
24032SOL    HW276944   3.831   2.965   5.363  0.5072 -0.0088 -0.0068
24033SOL     OW76945   5.020   2.924   9.513  0.0345  0.0363  0.0716
24033SOL    HW176946   5.061   2.902   9.597  1.7348  1.0206 -0.4511
24033SOL    HW276947   5.039   3.017   9.501 -2.0461  0.4418 -0.4170
24034SOL     OW76948   5.983   0.013   2.553  0.8192  0.1563  0.0012
24034SOL    HW176949   6.027   0.043   2.473  1.4090  2.7374  1.2118
24034SOL    HW276950   6.017  -0.076   2.566  0.6281 -0.3893 -2.6273
24035SOL     OW76951   7.154   6.248   4.007 -0.0637  0.1947  0.0394
24035SOL    HW176952   7.227   6.212   4.056 -1.1375 -2.9800 -0.5040
24035SOL    HW276953   7.086   6.265   4.073  1.1308  3.5752  0.6136
24036SOL     OW76954   3.105   7.930   8.403  0.1247  0.3905 -0.3164
24036SOL    HW176955   3.108   7.967   8.315  1.4008 -0.1627 -0.5208
24036SOL    HW276956   3.042   7.985   8.450 -1.1961  0.1978 -1.7894
24037SOL     OW76957   4.824   1.568   4.865 -0.4086  0.7922  0.1140
24037SOL    HW176958   4.813   1.550   4.958 -0.3376  3.0964  0.6306
24037SOL    HW276959   4.772   1.647   4.850 -1.3908 -0.2077 -2.0860
24038SOL     OW76960   7.408   3.146   0.729  0.0461 -0.3852 -0.4402
24038SOL    HW176961   7.420   3.206   0.655  0.4856  1.5474  1.1207
24038SOL    HW276962   7.375   3.201   0.800  0.6546 -1.9583  1.1364
24039SOL     OW76963   5.906   0.246   5.554  0.6020  0.3676 -0.2747
24039SOL    HW176964   5.913   0.342   5.553  1.6946  0.3029  0.2092
24039SOL    HW276965   5.868   0.224   5.469  1.0794  1.1842 -0.7121
24040SOL     OW76966   2.068   6.287   8.867 -0.0470  0.2716  0.7948
24040SOL    HW176967   2.163   6.286   8.870  0.0559  1.8537 -0.3291
24040SOL    HW276968   2.042   6.335   8.947 -0.0568 -1.9309  2.1871
24041SOL     OW76969   0.364   6.132   7.003 -0.1594 -0.2669 -0.0387
24041SOL    HW176970   0.330   6.201   7.059  1.4819 -0.1286  0.8513
24041SOL    HW276971   0.314   6.054   7.027 -0.7938  0.2191  0.2328
24042SOL     OW76972   6.414   4.954   2.052 -0.0445 -0.1660 -0.0146
24042SOL    HW176973   6.474   4.915   2.114  1.2990  1.2975 -0.3312
24042SOL    HW276974   6.329   4.952   2.096  1.1251  2.3438  2.6312
24043SOL     OW76975   3.745   7.456   1.917 -0.7876  0.1391 -0.5556
24043SOL    HW176976   3.737   7.546   1.947  1.9571 -0.4539  2.4812
24043SOL    HW276977   3.669   7.411   1.953 -1.0390  0.7907 -0.2610
24044SOL     OW76978   3.671   0.248   9.568 -0.1369 -0.3018 -0.1033
24044SOL    HW176979   3.631   0.263   9.654 -0.4801  0.1980 -0.3458
24044SOL    HW276980   3.760   0.281   9.577  0.5668 -2.2906  0.7327
24045SOL     OW76981   7.161   6.462   4.903  0.2612 -0.0378  0.0289
24045SOL    HW176982   7.208   6.475   4.821  0.8349 -0.8753  0.2128
24045SOL    HW276983   7.188   6.535   4.958 -0.2401  0.6121 -0.5691
24046SOL     OW76984   4.530   0.003   4.992 -0.2251  0.4907 -0.0374
24046SOL    HW176985   4.532   0.049   5.076  1.5185 -0.4556  0.4963
24046SOL    HW276986   4.439  -0.024   4.982 -0.2035 -0.8324  2.4223
24047SOL     OW76987   9.672   7.354   7.966 -0.2407 -0.4921 -0.0455
24047SOL    HW176988   9.686   7.315   7.880  0.2762 -1.0097  0.2709
24047SOL    HW276989   9.760   7.367   8.001 -0.4496 -0.3878  0.4529
24048SOL     OW76990   1.664   2.785   2.386  0.1638 -0.2214 -0.6052
24048SOL    HW176991   1.642   2.803   2.477 -1.9847 -1.0718 -0.8770
24048SOL    HW276992   1.670   2.871   2.345 -1.9911  0.1689 -0.2584
24049SOL     OW76993   5.334   5.010   5.219 -0.1983  0.2598  0.2627
24049SOL    HW176994   5.369   4.941   5.163  0.3336  0.7723 -0.0529
24049SOL    HW276995   5.401   5.023   5.286 -0.9776 -0.5797  1.2397
24050SOL     OW76996   9.337   6.242   0.436  0.0660  0.4291  0.1852
24050SOL    HW176997   9.373   6.330   0.440  0.0900  0.3929  0.8349
24050SOL    HW276998   9.360   6.211   0.348 -1.5298  1.7353 -0.7488
24051SOL     OW76999   1.650   2.373   2.569 -0.3506 -0.3750 -0.1452
24051SOL    HW177000   1.703   2.407   2.497  1.4215 -1.3319  0.6366
24051SOL    HW277001   1.676   2.281   2.575 -1.4379 -0.6311  0.8902
24052SOL     OW77002   0.354   5.201   4.732  0.0143 -0.2419 -0.6108
24052SOL    HW177003   0.361   5.290   4.698 -1.4815 -0.3471 -1.3122
24052SOL    HW277004   0.427   5.154   4.693  1.5314  0.9130  0.6928
24053SOL     OW77005   8.268   4.113   4.902 -0.1884 -0.5072 -0.0890
24053SOL    HW177006   8.362   4.105   4.916 -0.0720  0.0303 -0.5260
24053SOL    HW277007   8.255   4.202   4.870 -0.6971 -0.9198 -1.1147
24054SOL     OW77008   8.321   4.895   8.541  0.0390 -0.5596  0.7379
24054SOL    HW177009   8.324   4.952   8.618  1.3359  1.4495 -0.6684
24054SOL    HW277010   8.401   4.843   8.546  0.8180  0.5156  0.1700
24055SOL     OW77011   5.962   3.242   5.552  0.0269  0.1522 -0.2139
24055SOL    HW177012   6.040   3.296   5.542 -0.5087  1.1111  0.6005
24055SOL    HW277013   5.952   3.232   5.646  0.3753 -1.8073 -0.3389
24056SOL     OW77014   5.798   6.845   7.414  0.1747 -0.2134 -0.1083
24056SOL    HW177015   5.745   6.881   7.342  0.1081 -0.3693 -0.1388
24056SOL    HW277016   5.739   6.784   7.458  0.7279 -1.4225 -0.9697
24057SOL     OW77017   6.346   1.956   2.221  0.1832  0.7336  0.5489
24057SOL    HW177018   6.370   1.893   2.288  2.6425  0.3260 -0.5854
24057SOL    HW277019   6.311   1.903   2.149  1.0141  0.7662  0.1083
24058SOL     OW77020   4.898   8.645   9.198  0.5936 -0.0802  0.0790
24058SOL    HW177021   4.809   8.621   9.170  0.7785 -0.4609 -0.2052
24058SOL    HW277022   4.893   8.738   9.217 -0.1687 -0.3441  1.2740
24059SOL     OW77023   0.984   4.524   2.875 -0.0603 -1.0432  0.0839
24059SOL    HW177024   0.903   4.572   2.859  0.1490  0.1586  2.2452
24059SOL    HW277025   1.047   4.564   2.815 -1.1121 -2.3907 -2.0558
24060SOL     OW77026   7.530   5.693   6.103  0.4136 -0.3787  0.6440
24060SOL    HW177027   7.546   5.742   6.184 -1.9792  1.6276  0.0442
24060SOL    HW277028   7.435   5.699   6.090  0.5313 -2.0248 -1.4832
24061SOL     OW77029   1.587   5.672   5.178 -0.2226 -0.1801 -0.1156
24061SOL    HW177030   1.525   5.660   5.106 -1.0542 -1.7884  0.8108
24061SOL    HW277031   1.533   5.671   5.257  0.8591 -0.5201  0.6505
24062SOL     OW77032   3.671   5.908   8.669 -0.4221  0.3085 -0.0908
24062SOL    HW177033   3.689   5.837   8.608  0.8993  1.7777 -1.5205
24062SOL    HW277034   3.666   5.866   8.754 -1.2539 -1.6825 -1.0447
24063SOL     OW77035   6.963   3.900   6.567 -0.1974 -0.0200 -0.3822
24063SOL    HW177036   6.969   3.927   6.476 -0.5198 -0.7076 -0.6112
24063SOL    HW277037   6.875   3.925   6.595  0.0599  0.6092 -0.1164
24064SOL     OW77038   9.515   1.631   8.542 -0.2027  0.3633  0.2801
24064SOL    HW177039   9.555   1.544   8.551 -1.9696 -0.5612 -0.2299
24064SOL    HW277040   9.460   1.623   8.464  1.8278  2.8747 -1.5861
24065SOL     OW77041   9.733   4.414   2.345  0.5711  0.6719  0.0467
24065SOL    HW177042   9.788   4.419   2.266  0.6434  0.6947  0.0982
24065SOL    HW277043   9.718   4.321   2.357  0.4806  0.6732 -0.0478
24066SOL     OW77044   5.565   9.701   0.532 -0.2528  0.0839  0.4766
24066SOL    HW177045   5.637   9.752   0.496  0.5770 -0.6021  1.1012
24066SOL    HW277046   5.583   9.611   0.503  0.5864 -0.5413  2.7216
24067SOL     OW77047   0.884   6.008   8.066 -0.0622 -0.5905  0.2698
24067SOL    HW177048   0.906   5.963   7.984 -2.2359 -0.1193 -0.6356
24067SOL    HW277049   0.964   6.055   8.089  0.9312 -1.5522 -1.0210
24068SOL     OW77050   1.321   2.263   0.606  0.8135 -0.0586 -0.5304
24068SOL    HW177051   1.232   2.236   0.583 -0.2744 -0.7663  3.7098
24068SOL    HW277052   1.325   2.355   0.581 -0.2384 -0.5569 -2.8005
24069SOL     OW77053   5.709   4.911   8.682  0.3066  0.5546  0.2840
24069SOL    HW177054   5.675   4.846   8.620  1.1331  3.2776 -3.3138
24069SOL    HW277055   5.639   4.976   8.689  1.2779  1.6653 -0.0255
24070SOL     OW77056   1.399   4.314   3.280  0.0083 -0.2802 -0.6764
24070SOL    HW177057   1.400   4.301   3.186 -2.8467 -0.9209 -0.7129
24070SOL    HW277058   1.333   4.381   3.295  0.1176 -0.4735  0.8824
24071SOL     OW77059   7.173   3.614   3.734  0.5492  0.1514  0.4683
24071SOL    HW177060   7.188   3.697   3.780  1.1237 -0.4904  1.4734
24071SOL    HW277061   7.236   3.553   3.772  0.6688 -0.5566 -0.8080
24072SOL     OW77062   9.279   9.004   8.105  0.0253 -0.0697  0.0347
24072SOL    HW177063   9.200   8.955   8.085 -0.2090 -0.0105  0.8103
24072SOL    HW277064   9.312   8.965   8.186 -0.6227  1.5733  1.1528
24073SOL     OW77065   7.389   8.240   0.334 -0.6511 -0.2451 -0.5880
24073SOL    HW177066   7.366   8.328   0.305  1.2109  0.7964  0.8796
24073SOL    HW277067   7.312   8.210   0.383 -2.1326 -0.3530 -2.8554
24074SOL     OW77068   7.171   8.131   3.504 -0.1001  0.2596  0.8478
24074SOL    HW177069   7.254   8.105   3.464 -0.1870  0.3805  0.5866
24074SOL    HW277070   7.171   8.088   3.590  0.1018  0.0248  0.7311
24075SOL     OW77071   3.172   1.454   2.757 -0.1168 -0.0107 -0.4063
24075SOL    HW177072   3.111   1.391   2.795  1.3646 -0.5333  1.2775
24075SOL    HW277073   3.220   1.405   2.690 -0.3056 -0.1068 -0.4708
24076SOL     OW77074   9.009   8.110   5.606 -0.4486  0.0311 -0.4937
24076SOL    HW177075   8.927   8.096   5.558  0.0354  1.1419 -1.7373
24076SOL    HW277076   9.066   8.152   5.542  0.4395  1.0436  0.9093
24077SOL     OW77077   5.505   5.880   8.921  0.2347  0.2504  0.1376
24077SOL    HW177078   5.413   5.882   8.948 -0.0937  2.5862 -0.8894
24077SOL    HW277079   5.540   5.965   8.950  2.0707 -0.5586  0.4282
24078SOL     OW77080   2.679   6.080   8.967  0.8234 -0.1929  0.4234
24078SOL    HW177081   2.641   6.166   8.987  0.3835  0.4297 -2.6523
24078SOL    HW277082   2.606   6.019   8.978  0.7764 -0.0002  1.2656
24079SOL     OW77083   4.322   0.131   0.585 -0.0921 -0.6585 -0.0739
24079SOL    HW177084   4.230   0.156   0.596  0.6389  3.1495 -1.0308
24079SOL    HW277085   4.359   0.138   0.673  0.0811  2.3006 -0.2756
24080SOL     OW77086   4.918   3.620   2.558 -0.1596 -0.4419 -0.2498
24080SOL    HW177087   4.996   3.565   2.569 -0.0195 -0.9459 -3.1404
24080SOL    HW277088   4.862   3.595   2.631  2.2005 -0.2675  1.7878
24081SOL     OW77089   2.814   9.472   2.724  0.0298  0.0754  0.0793
24081SOL    HW177090   2.815   9.535   2.651 -1.7347  0.1457  0.0740
24081SOL    HW277091   2.873   9.402   2.696  0.6957  0.9046 -0.6583
24082SOL     OW77092   7.306   8.645   5.132 -0.3686 -0.9816 -0.2144
24082SOL    HW177093   7.279   8.638   5.041  1.5765 -1.1607 -0.8198
24082SOL    HW277094   7.401   8.652   5.129 -0.3448  0.7120  1.7174
24083SOL     OW77095   1.925   4.003   6.470  0.2098 -0.2561 -0.5525
24083SOL    HW177096   1.996   3.939   6.479 -0.0470 -0.3735  0.9282
24083SOL    HW277097   1.971   4.087   6.461  0.6620 -0.0411  2.4825
24084SOL     OW77098   8.419   2.611   6.035  0.1717  0.5260  0.2282
24084SOL    HW177099   8.421   2.581   5.944 -1.1607  1.3598 -0.0948
24084SOL    HW277100   8.511   2.614   6.061  0.5165 -0.6166 -0.7832
24085SOL     OW77101   7.134   8.638   1.886 -0.0014 -0.3108  0.2548
24085SOL    HW177102   7.074   8.624   1.959  1.2966  1.4756  1.7773
24085SOL    HW277103   7.193   8.707   1.917  0.6451  0.4897 -2.4830
24086SOL     OW77104   5.421   5.147   0.200  0.0026 -0.7419  0.2698
24086SOL    HW177105   5.420   5.189   0.114 -2.5023  0.1356  0.6373
24086SOL    HW277106   5.375   5.064   0.186 -1.5580 -0.0369  0.9415
24087SOL     OW77107   8.236   9.549   4.746  0.1959 -0.2594  0.1403
24087SOL    HW177108   8.271   9.597   4.820  1.2628  0.0960 -0.5756
24087SOL    HW277109   8.292   9.472   4.737  0.1551 -0.2375 -0.3736
24088SOL     OW77110   2.078   6.822   0.676  0.1028 -0.6480  0.3492
24088SOL    HW177111   2.161   6.867   0.691 -0.4035  1.6561 -2.6387
24088SOL    HW277112   2.026   6.841   0.754  0.7573  2.0969  0.2321
24089SOL     OW77113   1.065   3.424   1.382 -0.0392 -0.0214  0.7587
24089SOL    HW177114   0.970   3.419   1.379 -0.0374 -0.0688  0.7829
24089SOL    HW277115   1.094   3.399   1.295 -0.0047 -0.9602  1.0250
24090SOL     OW77116   3.465   6.052   8.877 -0.4007  0.3402 -0.0015
24090SOL    HW177117   3.398   6.108   8.839 -0.4648  0.5776  0.4491
24090SOL    HW277118   3.495   6.100   8.954  0.0880  0.1065 -0.0439
24091SOL     OW77119   2.377   5.682   0.259  0.5767 -0.2434 -0.0910
24091SOL    HW177120   2.437   5.681   0.334  2.1055  1.1341 -1.2185
24091SOL    HW277121   2.425   5.730   0.191 -1.5909  0.3650 -1.2719
24092SOL     OW77122   0.572   3.032   2.830 -0.0199 -0.2013 -0.3575
24092SOL    HW177123   0.528   3.016   2.913 -0.3384 -1.6226 -0.7740
24092SOL    HW277124   0.525   2.977   2.767 -0.4931  1.6377 -1.7233
24093SOL     OW77125   7.498   6.988   7.673  0.8485  0.4718 -0.2562
24093SOL    HW177126   7.464   6.976   7.762 -1.4248  1.4480 -0.9273
24093SOL    HW277127   7.526   7.079   7.670 -1.9108  1.3811 -1.3355
24094SOL     OW77128   4.024   7.081   2.575  0.4034  0.5664 -0.0654
24094SOL    HW177129   3.972   7.159   2.558 -0.0180  0.4414  0.6381
24094SOL    HW277130   3.961   7.009   2.566  0.6181  0.3648  0.0580
24095SOL     OW77131   6.624   9.081   0.784 -0.1653 -0.1897 -0.0327
24095SOL    HW177132   6.668   8.997   0.797 -1.1145 -0.3153  2.8400
24095SOL    HW277133   6.573   9.069   0.704 -0.3107 -2.3780  0.3282
24096SOL     OW77134   2.800   7.790   2.171  0.5751  0.2112 -0.0656
24096SOL    HW177135   2.717   7.820   2.135  0.1200 -0.6977  0.2096
24096SOL    HW277136   2.793   7.807   2.265  1.4734  1.9070 -0.2741
24097SOL     OW77137   6.463   3.009   9.709 -0.7088 -0.1092  0.2007
24097SOL    HW177138   6.521   3.009   9.633 -0.0869  2.7898  0.5591
24097SOL    HW277139   6.407   3.086   9.697 -0.5644  0.4656  2.6582
24098SOL     OW77140   5.410   5.145   7.404 -0.4128 -0.0032 -0.5784
24098SOL    HW177141   5.429   5.239   7.407  1.0522 -0.2378 -1.7765
24098SOL    HW277142   5.324   5.137   7.446 -1.3142  2.0796 -1.8832
24099SOL     OW77143   6.236   1.207   3.717 -0.6934 -0.0453 -0.4376
24099SOL    HW177144   6.238   1.139   3.649  2.3032 -0.5094 -0.0096
24099SOL    HW277145   6.305   1.269   3.692  2.1271 -1.3803  3.1166
24100SOL     OW77146   4.530   2.410   4.586  0.0194 -0.1567 -0.3782
24100SOL    HW177147   4.472   2.355   4.640 -0.1090 -2.2825 -2.5625
24100SOL    HW277148   4.476   2.436   4.512  0.1778  2.8005  0.3798
24101SOL     OW77149   4.201   1.781   0.592  0.3341  0.2567 -0.5732
24101SOL    HW177150   4.223   1.710   0.652 -0.9213  0.0960 -0.2860
24101SOL    HW277151   4.277   1.839   0.595  1.2585 -0.9183 -0.6006
24102SOL     OW77152   8.624   4.939   1.214  0.0706 -0.2502  0.3444
24102SOL    HW177153   8.699   4.882   1.199  0.9258  0.7786  0.6054
24102SOL    HW277154   8.660   5.016   1.257 -1.4037 -0.4882  2.1506
24103SOL     OW77155   8.385   0.420   6.747  0.1261 -0.2906  0.7371
24103SOL    HW177156   8.298   0.461   6.750 -0.7580 -2.1562  1.8017
24103SOL    HW277157   8.445   0.490   6.773 -1.2559  0.5081  1.9140
24104SOL     OW77158   9.494   0.236   4.968 -0.1490  0.2357  0.3517
24104SOL    HW177159   9.495   0.280   5.053 -0.5675  1.7540 -0.4010
24104SOL    HW277160   9.586   0.230   4.943  0.0490 -1.0098  1.2774
24105SOL     OW77161   9.172   4.649   4.864  0.2208 -0.3529  0.0220
24105SOL    HW177162   9.173   4.582   4.932 -0.5041  0.0376  0.4419
24105SOL    HW277163   9.258   4.690   4.869  0.0203 -0.0348  1.0203
24106SOL     OW77164   4.502   0.582   3.976  0.2101  0.4184 -0.0084
24106SOL    HW177165   4.461   0.574   3.890 -1.3252 -2.3977  0.8682
24106SOL    HW277166   4.595   0.596   3.957  0.5968 -3.6354 -2.3298
24107SOL     OW77167   7.429   4.718   3.511  0.3269 -0.1482 -0.2085
24107SOL    HW177168   7.338   4.721   3.481  0.7984 -1.3264 -1.9307
24107SOL    HW277169   7.465   4.803   3.485 -0.0638  0.0121 -0.2387
24108SOL     OW77170   5.934   7.648   0.782 -0.4211  0.1030  0.7903
24108SOL    HW177171   5.847   7.658   0.819 -1.2071 -0.1751 -0.8716
24108SOL    HW277172   5.948   7.727   0.731 -0.4579 -0.6055 -0.3635
24109SOL     OW77173   2.214   2.741   3.902  0.2100 -0.4186 -0.4857
24109SOL    HW177174   2.147   2.698   3.849 -0.8488  0.2010  0.3187
24109SOL    HW277175   2.257   2.668   3.948 -1.0865 -0.7275  0.3124
24110SOL     OW77176   4.137   6.192   7.178 -0.5241  0.7773  0.0075
24110SOL    HW177177   4.181   6.221   7.098  0.1217 -3.0243 -1.2240
24110SOL    HW277178   4.192   6.226   7.249  0.5361  1.8281 -1.2570
24111SOL     OW77179   9.310   7.510   7.297 -0.0884 -0.3810  0.4009
24111SOL    HW177180   9.391   7.551   7.328  0.9741  0.5547 -3.1472
24111SOL    HW277181   9.250   7.517   7.370  0.4083  6.3164  0.7167
24112SOL     OW77182   7.838   2.269   7.983  0.1166 -0.0688  0.1214
24112SOL    HW177183   7.897   2.238   7.914  0.3819  1.1093 -0.2029
24112SOL    HW277184   7.763   2.210   7.979  0.5121 -0.5360 -0.6060
24113SOL     OW77185   7.608   9.720   7.237 -0.4368  0.2914 -0.4046
24113SOL    HW177186   7.631   9.751   7.324 -0.5611  0.1631 -0.3243
24113SOL    HW277187   7.543   9.651   7.253  0.9510 -1.0794 -0.4973
24114SOL     OW77188   2.462   1.445   7.648 -0.3251 -0.4853 -0.4727
24114SOL    HW177189   2.475   1.477   7.558  1.2988 -1.5890 -0.6664
24114SOL    HW277190   2.521   1.370   7.655 -1.0382 -0.9143  1.2732
24115SOL     OW77191   4.374   6.201   1.231 -0.1371 -0.1294 -0.0285
24115SOL    HW177192   4.356   6.224   1.322  0.3388  0.8598 -0.1685
24115SOL    HW277193   4.414   6.113   1.236 -1.9834 -0.9782  0.5201
24116SOL     OW77194   5.186   7.079   0.680  0.3629 -0.8916 -0.0735
24116SOL    HW177195   5.098   7.042   0.675 -0.3811  0.8452 -0.5181
24116SOL    HW277196   5.179   7.148   0.746  1.1232 -0.0697 -0.8282
24117SOL     OW77197   4.551   1.293   0.295 -0.8148 -0.1167 -0.5992
24117SOL    HW177198   4.498   1.369   0.318  1.5595  0.7556  2.7878
24117SOL    HW277199   4.639   1.314   0.327  0.2640 -3.7392 -0.7025
24118SOL     OW77200   8.014   2.418   3.933  0.1541 -0.6788 -0.4758
24118SOL    HW177201   8.007   2.429   3.838  1.2384 -1.5565 -0.6823
24118SOL    HW277202   7.941   2.469   3.968 -1.1189 -1.4677 -1.8482
24119SOL     OW77203   1.956   4.805   8.034 -0.4765 -0.1859  0.0207
24119SOL    HW177204   1.885   4.855   8.075  0.8124  0.4584  1.6168
24119SOL    HW277205   1.913   4.751   7.968 -2.1108  2.0229 -0.8522
24120SOL     OW77206   6.230   8.940   5.469  0.8401 -0.0147  0.3430
24120SOL    HW177207   6.254   8.967   5.380  2.4532 -1.1245  0.3920
24120SOL    HW277208   6.176   9.011   5.502  0.3077  0.4980 -1.4676
24121SOL     OW77209   6.102   0.486   4.034 -0.6281 -0.0748  0.5769
24121SOL    HW177210   6.180   0.530   3.999  0.5959 -1.3068  1.6271
24121SOL    HW277211   6.119   0.393   4.020 -2.3208 -0.3298  0.0605
24122SOL     OW77212   0.894   3.246   4.371 -0.6568 -0.2938 -0.1552
24122SOL    HW177213   0.986   3.261   4.347 -0.2082 -0.8328  1.1574
24122SOL    HW277214   0.854   3.211   4.292 -0.2557  1.8584 -1.4065
24123SOL     OW77215   8.587   1.262   2.148  0.2264  0.3106  0.3575
24123SOL    HW177216   8.493   1.281   2.148  0.2130  0.4652 -1.7563
24123SOL    HW277217   8.595   1.183   2.202 -1.2467 -0.1721 -0.0601
24124SOL     OW77218   6.335   2.082   9.594  0.4525  0.3991  0.7251
24124SOL    HW177219   6.329   2.065   9.688 -0.2511  0.8251  0.7640
24124SOL    HW277220   6.355   1.997   9.556  0.3513  0.1476  1.2235
24125SOL     OW77221   5.755   5.260   1.365 -0.2216  0.4324 -0.2785
24125SOL    HW177222   5.687   5.327   1.363 -1.5273 -0.6784 -4.4235
24125SOL    HW277223   5.708   5.177   1.376  1.0111 -0.0991  1.3698
24126SOL     OW77224   9.237   0.335   1.271 -0.3405  0.0386  0.2958
24126SOL    HW177225   9.275   0.307   1.188 -0.5124  1.0299 -0.1356
24126SOL    HW277226   9.245   0.431   1.269 -0.2950  0.0638  1.4506
24127SOL     OW77227   7.959   0.300   0.255  0.1448  0.1533 -0.1017
24127SOL    HW177228   7.933   0.271   0.342 -0.4888  0.8964 -0.0320
24127SOL    HW277229   7.879   0.300   0.204  0.5209 -0.3072 -0.6973
24128SOL     OW77230   0.764   8.873   0.672  0.2566  0.4540 -0.1031
24128SOL    HW177231   0.813   8.883   0.753 -1.4394 -1.6895  1.3232
24128SOL    HW277232   0.826   8.831   0.611  0.9888  0.2972  0.7343
24129SOL     OW77233   3.995   2.829   6.223  0.3735 -0.0401  0.2521
24129SOL    HW177234   3.989   2.833   6.127 -0.3927  0.3108  0.3129
24129SOL    HW277235   3.914   2.786   6.250  0.8872 -0.7377  0.7058
24130SOL     OW77236   0.409   9.039   6.765 -0.2674 -0.0851  0.1671
24130SOL    HW177237   0.380   9.088   6.842 -1.6706  0.7290 -0.8209
24130SOL    HW277238   0.503   9.028   6.778 -0.3704  0.5337  1.7053
24131SOL     OW77239   3.562   3.783   3.011 -0.5505  0.2473 -0.4243
24131SOL    HW177240   3.585   3.820   3.096 -0.9086 -0.0230 -0.2047
24131SOL    HW277241   3.477   3.740   3.026 -0.9149  0.7301 -1.0639
24132SOL     OW77242   6.868   5.084   0.360 -0.3702  0.4863 -0.6431
24132SOL    HW177243   6.860   5.055   0.451  1.0225  1.1284 -0.2839
24132SOL    HW277244   6.923   5.018   0.319  2.9173  2.4531  0.2085
24133SOL     OW77245   1.461   9.056   0.005  0.1349 -0.3825  0.3349
24133SOL    HW177246   1.372   9.090   0.011 -0.0021  0.0969 -2.6372
24133SOL    HW277247   1.496   9.062   0.094 -2.3037  0.7425  1.3043
24134SOL     OW77248   5.022   6.702   4.845 -0.0402 -0.2472 -1.0167
24134SOL    HW177249   5.002   6.609   4.849  1.4728 -0.5594  0.3161
24134SOL    HW277250   5.000   6.736   4.931  0.9013  0.2890 -0.9682
24135SOL     OW77251   6.877   2.583   3.953 -0.5378  0.0652 -0.4912
24135SOL    HW177252   6.938   2.627   4.012 -1.4446  0.4949  0.1588
24135SOL    HW277253   6.912   2.495   3.944  0.7610  0.5987 -1.0027
24136SOL     OW77254   8.037   8.517   3.817  0.0997 -0.0522  0.0559
24136SOL    HW177255   8.067   8.551   3.733 -1.1628  0.1484 -0.3265
24136SOL    HW277256   8.115   8.520   3.873  0.5435  1.4899 -0.5809
24137SOL     OW77257   8.251   2.774   3.776  0.0401 -0.4772  0.2269
24137SOL    HW177258   8.313   2.769   3.703  0.8394  2.3553  0.6013
24137SOL    HW277259   8.165   2.781   3.734  0.3155 -0.6338 -0.3778
24138SOL     OW77260   5.317   6.539   9.492 -0.1986  0.1900  0.1314
24138SOL    HW177261   5.234   6.586   9.491 -0.7023 -0.6262  1.1957
24138SOL    HW277262   5.352   6.551   9.404 -0.4130  2.3042  0.2828
24139SOL     OW77263   4.454   4.308   6.621 -0.0929  0.3343  0.0339
24139SOL    HW177264   4.381   4.368   6.637  0.2589  1.0433 -0.9374
24139SOL    HW277265   4.527   4.366   6.599  0.4073 -0.4319 -0.3332
24140SOL     OW77266   8.706   4.179   3.909  0.4230  0.5745  0.0701
24140SOL    HW177267   8.614   4.196   3.929  0.0051 -1.7671  0.4819
24140SOL    HW277268   8.722   4.222   3.826 -1.6234 -0.5196 -0.9631
24141SOL     OW77269   5.314   3.814   9.724 -0.1604 -0.4896 -0.0362
24141SOL    HW177270   5.386   3.848   9.777  1.2370 -1.3310 -1.3080
24141SOL    HW277271   5.247   3.883   9.727  0.3561 -0.0081  1.7895
24142SOL     OW77272   0.151   8.614   7.320 -0.1558  0.2636 -0.0785
24142SOL    HW177273   0.083   8.639   7.256 -0.2492 -0.1350 -0.1359
24142SOL    HW277274   0.106   8.618   7.405  0.0664  1.1518  0.0022
24143SOL     OW77275   2.920   4.210   6.521 -0.1705 -0.4025 -0.1632
24143SOL    HW177276   2.957   4.275   6.462 -1.2503 -0.4341 -0.8945
24143SOL    HW277277   2.942   4.125   6.481 -0.7636 -0.4267 -0.4521
24144SOL     OW77278   7.779   8.837   0.059  0.0389  0.1820 -0.0835
24144SOL    HW177279   7.842   8.830   0.130 -2.2347 -1.1812  1.9449
24144SOL    HW277280   7.830   8.870  -0.015  2.9524 -0.2434  1.5799
24145SOL     OW77281   8.376   1.600   1.260 -0.5407 -0.0258  0.5661
24145SOL    HW177282   8.408   1.543   1.190 -1.0025  0.7045 -0.2670
24145SOL    HW277283   8.455   1.628   1.306 -0.0534  0.7814 -0.6956
24146SOL     OW77284   9.503   3.668   6.504  0.4431 -0.8903 -0.4952
24146SOL    HW177285   9.598   3.665   6.517  0.7726  1.9266 -1.5235
24146SOL    HW277286   9.473   3.581   6.527  3.3307 -2.0000 -0.5055
24147SOL     OW77287   4.605   1.566   0.180 -0.6032 -0.1067 -0.0438
24147SOL    HW177288   4.563   1.649   0.204  1.5492  0.9858  0.1250
24147SOL    HW277289   4.645   1.535   0.261  0.2125 -0.3119 -0.5153
24148SOL     OW77290   4.778   1.363   7.785 -0.2193  0.2522  0.2653
24148SOL    HW177291   4.706   1.306   7.811  1.5195 -1.7944  0.8140
24148SOL    HW277292   4.848   1.345   7.848  1.5884  0.4948 -1.5478
24149SOL     OW77293   5.852   0.289   3.895  0.0747  0.1206 -0.0677
24149SOL    HW177294   5.811   0.239   3.825  0.2590  0.0047 -0.0927
24149SOL    HW277295   5.891   0.223   3.953 -3.1047 -0.0613  2.1275
24150SOL     OW77296   6.078   7.043   9.337  0.3207  0.3049 -0.8590
24150SOL    HW177297   6.028   6.986   9.279 -0.3432  0.7955 -0.7924
24150SOL    HW277298   6.034   7.128   9.329  0.7310  0.5760 -0.2725
24151SOL     OW77299   8.232   7.232   8.448 -0.8629 -0.3922  0.0293
24151SOL    HW177300   8.280   7.186   8.517 -0.6861  2.2907  1.8658
24151SOL    HW277301   8.290   7.228   8.372  0.1814 -1.1167  0.8283
24152SOL     OW77302   0.704   7.966   4.410 -0.2186  0.2173  0.2413
24152SOL    HW177303   0.626   7.953   4.463 -0.4239  1.5885  0.3057
24152SOL    HW277304   0.698   7.900   4.340 -1.6578  0.6027 -0.0174
24153SOL     OW77305   3.468   2.227   0.933 -0.2557 -0.3575 -0.0212
24153SOL    HW177306   3.553   2.209   0.893  0.2700 -0.0632  0.9338
24153SOL    HW277307   3.485   2.296   0.997 -0.9437 -1.1523  1.0780
24154SOL     OW77308   3.878   2.666   3.524  0.0276  0.7247  0.0069
24154SOL    HW177309   3.929   2.630   3.597  1.3712  2.0188 -0.2410
24154SOL    HW277310   3.944   2.702   3.465 -1.0849  0.3542 -1.5059
24155SOL     OW77311   5.630   3.122   5.333  0.0273 -0.3003 -0.1086
24155SOL    HW177312   5.623   3.146   5.426  0.8307  1.1255 -0.4000
24155SOL    HW277313   5.552   3.069   5.317 -0.8332  0.5566  1.0609
24156SOL     OW77314   0.930   0.637   8.832  0.0776 -0.4308  0.4013
24156SOL    HW177315   0.874   0.714   8.840  0.2326 -0.3841  1.0597
24156SOL    HW277316   0.876   0.564   8.860 -0.1142 -0.5891 -0.3565
24157SOL     OW77317   5.699   0.753   9.618 -0.2199 -0.0562 -0.2573
24157SOL    HW177318   5.622   0.762   9.675 -0.6284 -2.2607 -0.3720
24157SOL    HW277319   5.755   0.689   9.663  1.6938  1.6346 -0.0813
24158SOL     OW77320   6.081   7.335   2.390 -0.1127  0.5113  0.3936
24158SOL    HW177321   6.117   7.254   2.427 -0.3255  0.4722  0.5235
24158SOL    HW277322   6.000   7.349   2.441 -2.0704 -1.1917 -1.9988
24159SOL     OW77323   8.764   8.946   8.528 -0.1760 -0.1398  0.0724
24159SOL    HW177324   8.719   8.920   8.609 -2.3040  1.6686 -0.4246
24159SOL    HW277325   8.827   9.012   8.557 -1.0025  0.5772  0.3076
24160SOL     OW77326   1.924   3.844   1.763  0.2289 -0.0421 -0.1352
24160SOL    HW177327   1.957   3.900   1.693  0.6558  0.0331  0.1183
24160SOL    HW277328   2.003   3.808   1.804 -0.0278 -0.4305  0.0260
24161SOL     OW77329   0.044   9.690   4.206  0.3673 -0.4977  0.2580
24161SOL    HW177330   0.008   9.709   4.292  1.2529 -0.6912  0.6806
24161SOL    HW277331  -0.020   9.725   4.144 -0.7927 -1.2865  0.9846
24162SOL     OW77332   7.127   9.653   2.839 -0.4169  0.1372  0.1306
24162SOL    HW177333   7.185   9.580   2.816 -0.3076 -0.0710  1.0377
24162SOL    HW277334   7.174   9.700   2.907 -0.9501  0.4617  0.2782
24163SOL     OW77335   9.450   2.638   0.245 -0.1293 -0.7190 -0.7000
24163SOL    HW177336   9.364   2.599   0.233 -2.2739  3.0985  0.6525
24163SOL    HW277337   9.455   2.658   0.339  0.9908  1.6139 -1.1707
24164SOL     OW77338   5.358   2.196   9.120 -0.0637  0.4038  0.3085
24164SOL    HW177339   5.327   2.111   9.151 -2.1385  1.0476  0.1280
24164SOL    HW277340   5.432   2.175   9.063  0.2857 -1.1699  1.2693
24165SOL     OW77341   6.844   4.495   8.926 -0.2976  0.1051  0.3070
24165SOL    HW177342   6.842   4.508   8.831 -0.0508  0.2050  0.3138
24165SOL    HW277343   6.900   4.418   8.939  0.5293  0.7081  0.4272
24166SOL     OW77344   3.092   4.286   0.273 -0.1786  0.2843 -0.1404
24166SOL    HW177345   3.077   4.245   0.188  1.1281 -0.6698  0.0716
24166SOL    HW277346   3.038   4.366   0.270  0.6180  0.8140 -2.2573
24167SOL     OW77347   7.942   1.904   3.074 -0.0944  0.0073 -0.0017
24167SOL    HW177348   7.902   1.820   3.052  0.1448 -0.5365  1.5689
24167SOL    HW277349   7.900   1.930   3.156  0.3752  1.0675 -0.0790
24168SOL     OW77350   3.221   1.736   7.208 -0.3430  0.2848  0.2117
24168SOL    HW177351   3.311   1.706   7.222 -0.5565 -0.4696  0.0137
24168SOL    HW277352   3.225   1.782   7.124  0.0939  1.2965  0.7653
24169SOL     OW77353   3.697   2.888   4.472 -0.4053 -0.9998  0.2704
24169SOL    HW177354   3.746   2.822   4.424  2.5754  0.7176  0.6749
24169SOL    HW277355   3.700   2.966   4.416 -1.7343 -0.5028  0.8449
24170SOL     OW77356   2.504   3.398   3.086  0.4302 -0.1793 -0.5626
24170SOL    HW177357   2.454   3.409   3.006 -2.3533 -0.3020  1.0089
24170SOL    HW277358   2.505   3.485   3.126 -1.4566 -0.7752  0.9368
24171SOL     OW77359   0.634   1.374   1.555 -0.6792 -0.0631 -0.3123
24171SOL    HW177360   0.614   1.447   1.496 -0.7689  0.2043  0.0498
24171SOL    HW277361   0.549   1.340   1.582 -0.6398  0.0702 -0.0194
24172SOL     OW77362   4.751   5.387   6.948  0.1864 -0.1764 -0.3022
24172SOL    HW177363   4.774   5.415   7.036 -0.1835  2.9464 -1.0883
24172SOL    HW277364   4.676   5.330   6.959 -1.4276  2.1001  1.3303
24173SOL     OW77365   3.455   2.807   7.092 -0.1499 -0.4921 -0.7746
24173SOL    HW177366   3.391   2.789   7.161 -1.3026  0.4606 -1.5818
24173SOL    HW277367   3.483   2.720   7.062  1.1938 -0.9833  1.5746
24174SOL     OW77368   2.263   0.911   4.450  0.2721 -0.1287  0.3393
24174SOL    HW177369   2.334   0.966   4.483  2.8509 -1.8493 -1.9484
24174SOL    HW277370   2.276   0.827   4.494 -0.3654 -0.4479 -0.0762
24175SOL     OW77371   5.500   8.393   6.330  0.0384  0.1899  0.1768
24175SOL    HW177372   5.407   8.417   6.339  0.0137  0.1528  0.0189
24175SOL    HW277373   5.527   8.371   6.419  0.8236  3.5666  0.9133
24176SOL     OW77374   3.984   1.681   6.185 -0.2816  0.1655 -0.3033
24176SOL    HW177375   4.070   1.717   6.168  0.3347  0.0757  2.2154
24176SOL    HW277376   3.943   1.743   6.246 -1.0815 -0.9057  0.2921
24177SOL     OW77377   1.496   6.966   0.254 -0.4469 -0.8225 -0.5604
24177SOL    HW177378   1.496   6.948   0.161  2.3797  1.5782 -1.1915
24177SOL    HW277379   1.468   7.057   0.261  0.1854 -0.6900  0.8030
24178SOL     OW77380   1.159   9.112   7.997 -0.2579 -0.0907 -0.5932
24178SOL    HW177381   1.101   9.138   8.069  1.0402 -1.5457  1.0884
24178SOL    HW277382   1.166   9.190   7.943 -1.4568  1.0247  0.7618
24179SOL     OW77383   2.598   0.357   7.575  0.4632 -0.2225 -0.7853
24179SOL    HW177384   2.584   0.276   7.525  0.8027 -0.3964 -0.6008
24179SOL    HW277385   2.525   0.360   7.636  0.1204 -0.0812 -1.1954
24180SOL     OW77386   7.073   6.283   4.683  0.7120 -0.2924  1.0865
24180SOL    HW177387   7.020   6.216   4.726 -2.0088  1.7381  1.1299
24180SOL    HW277388   7.121   6.325   4.754  1.1857 -1.1102  1.2609
24181SOL     OW77389   0.646   0.430   4.575  0.1330 -0.0326  0.1453
24181SOL    HW177390   0.647   0.504   4.515  1.4394  0.1311  0.3452
24181SOL    HW277391   0.611   0.465   4.657  0.2730  0.2386  0.0886
24182SOL     OW77392   4.269   9.322   8.601  0.2151 -0.0277 -0.5587
24182SOL    HW177393   4.249   9.257   8.533  0.6899 -0.5059 -0.2468
24182SOL    HW277394   4.256   9.406   8.557 -0.8449 -0.3192 -0.8370
24183SOL     OW77395   8.745   7.210   2.649 -0.7296  0.0593 -0.0041
24183SOL    HW177396   8.722   7.133   2.598 -0.9191 -0.2553  0.5522
24183SOL    HW277397   8.706   7.195   2.735 -1.3156  1.0689 -0.0803
24184SOL     OW77398   3.020   1.931   2.470 -0.8627 -0.0310 -0.2631
24184SOL    HW177399   3.093   1.872   2.489  0.8427  1.6939 -1.1074
24184SOL    HW277400   2.958   1.916   2.542  0.8290 -0.7432  1.1270
24185SOL     OW77401   6.659   5.687   0.125 -0.4526 -0.2250 -0.1896
24185SOL    HW177402   6.728   5.753   0.128  0.5793 -1.1415 -1.8531
24185SOL    HW277403   6.596   5.715   0.191  0.6569  1.5973  0.1787
24186SOL     OW77404   0.907   1.463   6.223 -0.2146 -0.0266  0.3633
24186SOL    HW177405   0.895   1.521   6.299  0.0099  0.0285  0.3574
24186SOL    HW277406   1.001   1.445   6.222 -0.0930  0.6131 -0.3752
24187SOL     OW77407   8.564   6.304   3.933 -0.2650 -0.5545  0.0401
24187SOL    HW177408   8.595   6.269   4.016 -0.0422 -1.3490 -0.3683
24187SOL    HW277409   8.520   6.231   3.890 -0.2828 -0.1875 -0.5906
24188SOL     OW77410   9.445   2.585   8.891 -0.4522  0.2002  0.0422
24188SOL    HW177411   9.364   2.533   8.889 -0.8576  0.8311 -1.3123
24188SOL    HW277412   9.471   2.585   8.983 -0.1097 -2.8567  0.0396
24189SOL     OW77413   3.137   5.345   6.957  0.1794  0.0225  0.2588
24189SOL    HW177414   3.220   5.392   6.954 -0.3036  0.9965 -3.6594
24189SOL    HW277415   3.071   5.411   6.936 -1.2012 -1.3271  0.1979
24190SOL     OW77416   8.105   2.139   0.267  0.3169 -0.0606 -0.4817
24190SOL    HW177417   8.172   2.084   0.309 -1.0154 -1.0726  0.4065
24190SOL    HW277418   8.136   2.149   0.177  0.9533 -1.7220 -0.4930
24191SOL     OW77419   0.824   0.298   8.066  0.1368 -0.2591  0.2765
24191SOL    HW177420   0.763   0.369   8.047 -0.4031 -0.4226  1.3548
24191SOL    HW277421   0.910   0.334   8.042 -0.1327  0.7560  0.7621
24192SOL     OW77422   6.001   2.786   6.930  0.0958 -0.2285 -0.6936
24192SOL    HW177423   6.032   2.847   6.997 -0.0390 -0.5447 -0.3379
24192SOL    HW277424   6.047   2.812   6.850  1.0976 -0.5456 -0.2268
24193SOL     OW77425   8.283   5.731   2.616  0.0604 -1.3611  0.3237
24193SOL    HW177426   8.372   5.696   2.629 -0.2098 -2.0656  0.3389
24193SOL    HW277427   8.296   5.810   2.564  0.7313 -1.2560  0.6401
24194SOL     OW77428   8.204   0.966   4.590 -0.2545  0.0771  0.0062
24194SOL    HW177429   8.184   0.888   4.538  0.2117 -0.0241 -0.0311
24194SOL    HW277430   8.266   0.934   4.656  1.4401  0.7915 -1.1769
24195SOL     OW77431   9.365   1.814   0.538 -0.1330 -0.3565  0.0316
24195SOL    HW177432   9.274   1.786   0.529 -0.0583 -0.8365  0.6684
24195SOL    HW277433   9.363   1.907   0.516 -0.7605 -0.3815 -0.0589
24196SOL     OW77434   0.986   8.828   3.987  0.4754  0.0215 -0.2304
24196SOL    HW177435   1.020   8.780   3.911  0.1215 -1.2150  0.3692
24196SOL    HW277436   1.029   8.789   4.062 -1.0327 -0.4794  0.4131
24197SOL     OW77437   7.577   3.255   6.116  0.1565  0.5228 -0.4168
24197SOL    HW177438   7.651   3.304   6.153 -1.2069  1.7024  0.8418
24197SOL    HW277439   7.515   3.323   6.087 -1.3095 -0.4265  0.3927
24198SOL     OW77440   5.518   1.266   8.753  0.5277 -0.0415  0.7886
24198SOL    HW177441   5.503   1.190   8.697  1.3487 -0.0904  0.6362
24198SOL    HW277442   5.601   1.249   8.796  0.5054  0.5709  1.0888
24199SOL     OW77443   8.737   9.224   4.554  0.2091 -0.3215  0.3382
24199SOL    HW177444   8.658   9.171   4.543  0.5019 -0.4379 -1.6003
24199SOL    HW277445   8.774   9.195   4.637 -1.3301 -0.8530  0.8865
24200SOL     OW77446   2.887   7.915   6.481 -1.0067  1.2011 -0.1944
24200SOL    HW177447   2.961   7.869   6.520 -0.0916  1.2194 -1.8176
24200SOL    HW277448   2.820   7.847   6.469 -0.3756  0.6789 -0.8355
24201SOL     OW77449   7.803   3.900   2.282  0.3912 -0.0077 -0.5326
24201SOL    HW177450   7.749   3.894   2.361  3.0016 -2.1971  1.2542
24201SOL    HW277451   7.756   3.847   2.217 -0.6757 -0.0801  0.2628
24202SOL     OW77452   0.540   6.441   9.512 -0.0838 -0.5057 -0.5418
24202SOL    HW177453   0.484   6.472   9.584 -0.3019 -0.7050 -0.6223
24202SOL    HW277454   0.520   6.348   9.505  0.5917 -0.6782 -0.2753
24203SOL     OW77455   1.604   4.748   7.463 -0.2768  0.2206  0.2625
24203SOL    HW177456   1.634   4.689   7.394  0.4436 -0.9948  1.5456
24203SOL    HW277457   1.522   4.709   7.493 -0.3134  0.4395  0.4474
24204SOL     OW77458   5.373   5.791   1.681  0.0942  0.0948  0.3619
24204SOL    HW177459   5.372   5.853   1.608  0.2136  0.9689  1.0835
24204SOL    HW277460   5.430   5.720   1.652  1.3624  1.1470  0.1705
24205SOL     OW77461   3.048   6.362   0.671 -0.1745 -0.1409  0.1075
24205SOL    HW177462   3.018   6.445   0.708  0.5817  0.0188  0.3720
24205SOL    HW277463   3.097   6.387   0.593  0.3713 -0.3189  0.3945
24206SOL     OW77464   7.935   4.410   2.792  0.4748 -0.0847 -0.5462
24206SOL    HW177465   7.852   4.399   2.839  0.4950 -1.6509 -0.8022
24206SOL    HW277466   7.911   4.417   2.700  0.6007 -0.2625 -0.5944
24207SOL     OW77467   0.388   4.714   4.036  0.4418 -0.0154 -0.1038
24207SOL    HW177468   0.413   4.806   4.038  0.2958  0.0414 -0.8070
24207SOL    HW277469   0.292   4.715   4.036  0.4315 -0.1366 -0.9724
24208SOL     OW77470   4.811   9.348   8.005  0.2711  0.0529  0.1785
24208SOL    HW177471   4.858   9.403   7.942 -0.7695 -0.5380 -1.1627
24208SOL    HW277472   4.719   9.367   7.991  0.0098  0.2760  1.9155
24209SOL     OW77473   3.239   5.329   4.536 -0.0710  0.5298 -0.2624
24209SOL    HW177474   3.253   5.245   4.579 -1.7069  0.2766 -0.1627
24209SOL    HW277475   3.321   5.377   4.550  0.9007 -1.0321 -0.3477
24210SOL     OW77476   2.051   3.018   0.013  0.4828 -0.3355  0.0525
24210SOL    HW177477   2.143   2.999  -0.005 -0.1147 -2.6830 -0.8238
24210SOL    HW277478   2.003   2.966  -0.050 -1.4994 -0.5768  1.6621
24211SOL     OW77479   6.970   2.949   1.989  0.0613 -0.0417 -0.3574
24211SOL    HW177480   6.891   2.895   1.985  0.5241 -1.0785  2.4274
24211SOL    HW277481   7.039   2.889   2.016  1.1176  1.4575  0.4423
24212SOL     OW77482   4.884   0.135   7.378 -0.4166  0.2911 -0.5782
24212SOL    HW177483   4.839   0.178   7.451 -0.5083  0.0395 -0.4868
24212SOL    HW277484   4.952   0.197   7.352 -1.9057  1.4726 -1.8613
24213SOL     OW77485   5.607   2.865   2.955  0.0010 -0.2885  0.0012
24213SOL    HW177486   5.695   2.868   2.918  0.5278  0.9994  1.2883
24213SOL    HW277487   5.619   2.828   3.043  0.0097  3.7468  1.9240
24214SOL     OW77488   5.234   0.450   0.505  0.3261  0.2851  0.2239
24214SOL    HW177489   5.153   0.489   0.540 -0.9841  0.2060 -2.4556
24214SOL    HW277490   5.303   0.510   0.532 -0.7742  0.9552  1.6736
24215SOL     OW77491   4.619   4.189   9.118 -0.2071 -0.6164 -0.1441
24215SOL    HW177492   4.642   4.253   9.051 -2.2811  1.0192  0.6040
24215SOL    HW277493   4.696   4.186   9.175  0.7839 -0.4978 -1.4300
24216SOL     OW77494   7.332   2.516   4.024 -0.0373  0.2844 -0.0641
24216SOL    HW177495   7.297   2.577   4.089  0.0462 -0.3598  0.6000
24216SOL    HW277496   7.419   2.550   4.004 -0.3035  0.8309 -0.2974
24217SOL     OW77497   6.208   1.696   5.783  0.4201 -0.3085  0.0842
24217SOL    HW177498   6.266   1.641   5.731 -1.6898 -2.3198 -0.3180
24217SOL    HW277499   6.247   1.696   5.871 -0.2046 -3.8110  0.5144
24218SOL     OW77500   9.138   5.936   8.652  0.2879  0.5403  0.5297
24218SOL    HW177501   9.169   5.941   8.742 -1.0688  0.0804  1.0463
24218SOL    HW277502   9.141   6.027   8.621 -0.1095  0.8562  1.3667
24219SOL     OW77503   6.651   7.418   4.421  0.3179  0.4028  0.0580
24219SOL    HW177504   6.584   7.484   4.440  0.6297  0.4910  0.8691
24219SOL    HW277505   6.613   7.336   4.452  0.0680  0.2379 -0.6503
24220SOL     OW77506   2.883   9.367   0.821  0.4942 -0.4617 -0.0406
24220SOL    HW177507   2.978   9.365   0.806  0.3012 -1.3499 -1.2146
24220SOL    HW277508   2.868   9.454   0.858  1.6863 -0.0732 -0.3929
24221SOL     OW77509   2.185   5.966   7.483  0.1197 -0.1609 -0.4060
24221SOL    HW177510   2.160   6.038   7.424 -1.0400 -0.9307 -0.8962
24221SOL    HW277511   2.140   5.889   7.447  0.7742 -0.9989  0.5114
24222SOL     OW77512   8.644   4.971   0.408 -0.1147  0.2420  0.4114
24222SOL    HW177513   8.652   5.024   0.487 -1.3234 -0.2578  0.8801
24222SOL    HW277514   8.629   4.882   0.439  1.0197 -0.2541 -0.3809
24223SOL     OW77515   4.746   0.759   8.934 -0.0047 -0.2716  0.1132
24223SOL    HW177516   4.691   0.681   8.941  2.1528 -1.9139 -0.3594
24223SOL    HW277517   4.747   0.796   9.023  0.1651 -1.6554  0.7016
24224SOL     OW77518   2.592   2.758   5.429  0.3512  0.3529  0.1120
24224SOL    HW177519   2.642   2.836   5.407 -0.9168  1.9587  2.4975
24224SOL    HW277520   2.579   2.763   5.524 -2.2431 -1.2152 -0.0535
24225SOL     OW77521   8.407   8.171   6.488 -0.0664 -0.0405 -0.4108
24225SOL    HW177522   8.390   8.083   6.456 -1.1159  0.0960 -0.2719
24225SOL    HW277523   8.347   8.226   6.437  0.9325  0.6651 -0.8609
24226SOL     OW77524   4.219   3.131   0.556 -0.0660 -0.0694 -0.2779
24226SOL    HW177525   4.192   3.088   0.475  0.3208  0.7970 -0.8796
24226SOL    HW277526   4.153   3.105   0.620 -2.4097  2.0046 -1.7011
24227SOL     OW77527   3.071   6.228   4.302 -0.1490  0.2422 -0.0599
24227SOL    HW177528   3.096   6.311   4.261  1.1329 -0.3928 -0.6365
24227SOL    HW277529   2.976   6.232   4.310  0.0153  2.5619  1.6994
24228SOL     OW77530   7.459   7.175   8.205  0.1619  0.0049 -0.0545
24228SOL    HW177531   7.483   7.267   8.189  0.3089  0.0549  0.4327
24228SOL    HW277532   7.533   7.125   8.172  1.1037  0.1700  1.6876
24229SOL     OW77533   6.645   8.442   3.710 -0.4715 -0.2892 -0.3697
24229SOL    HW177534   6.673   8.463   3.621 -2.0317 -0.9974 -1.0602
24229SOL    HW277535   6.652   8.347   3.716  0.0560 -0.2098  0.4325
24230SOL     OW77536   4.031   2.744   4.110 -0.4225  0.1254 -0.2209
24230SOL    HW177537   4.048   2.762   4.017 -0.2802 -0.1996 -0.2607
24230SOL    HW277538   4.097   2.679   4.134 -1.2600 -0.7679 -0.2428
24231SOL     OW77539   4.510   3.645   0.049 -0.0366  0.3677  0.6795
24231SOL    HW177540   4.451   3.621  -0.023  0.1050 -4.1232  1.7517
24231SOL    HW277541   4.584   3.688   0.006 -1.6479  1.3339 -1.3127
24232SOL     OW77542   1.744   6.688   6.928  0.0086  0.3571  0.1546
24232SOL    HW177543   1.743   6.731   6.842  1.5828 -0.8946 -0.5442
24232SOL    HW277544   1.662   6.638   6.929 -0.3083  0.8488 -0.3768
24233SOL     OW77545   1.981   4.911   8.760  0.6655 -0.1989  0.4658
24233SOL    HW177546   1.911   4.887   8.820 -0.9746  0.6975 -0.9689
24233SOL    HW277547   1.966   5.004   8.743  0.3522 -0.6447 -2.1369
24234SOL     OW77548   5.487   9.060   4.270  0.0681 -0.2125 -0.2319
24234SOL    HW177549   5.493   8.968   4.297 -0.1328 -0.3506 -0.6455
24234SOL    HW277550   5.468   9.108   4.351 -2.9154 -0.8625 -0.4280
24235SOL     OW77551   0.383   1.381   4.125  0.6793 -0.2039  0.7305
24235SOL    HW177552   0.365   1.307   4.183  1.6386  0.0470  1.3848
24235SOL    HW277553   0.444   1.436   4.175 -1.1367  1.8079  0.8982
24236SOL     OW77554   4.051   7.079   0.744  0.2057  0.2971 -0.0446
24236SOL    HW177555   4.065   7.169   0.716  2.4495 -0.3030 -0.9863
24236SOL    HW277556   4.076   7.025   0.669  2.0162 -1.1934  1.5244
24237SOL     OW77557   6.137   0.362   9.059  0.5166  0.3012 -0.0251
24237SOL    HW177558   6.190   0.399   9.130  0.2025  3.2731 -1.1931
24237SOL    HW277559   6.062   0.422   9.052 -0.1238 -0.6539 -2.0353
24238SOL     OW77560   8.637   1.233   7.886 -0.2809  0.7669  0.6921
24238SOL    HW177561   8.605   1.310   7.933 -0.1535  0.5875  1.0784
24238SOL    HW277562   8.709   1.200   7.941  0.3242  0.9502  0.0265
24239SOL     OW77563   2.786   2.673   7.487 -0.0314 -0.0864 -0.2858
24239SOL    HW177564   2.691   2.664   7.484 -0.0381 -0.5666  0.9225
24239SOL    HW277565   2.807   2.731   7.413 -1.2733  0.1864 -0.4461
24240SOL     OW77566   1.109   1.934   8.389 -0.0297  0.2760  0.6245
24240SOL    HW177567   1.144   1.881   8.317 -0.0553 -0.0630  0.8607
24240SOL    HW277568   1.112   2.024   8.356 -0.4826  0.0786  0.0158
24241SOL     OW77569   2.119   3.649   2.175 -0.1716  0.1436  0.1286
24241SOL    HW177570   2.059   3.716   2.144 -0.5858 -0.7117 -0.9839
24241SOL    HW277571   2.076   3.566   2.155  1.3285 -0.4932 -0.6511
24242SOL     OW77572   2.745   8.684   5.091 -0.0855  0.2904 -0.2150
24242SOL    HW177573   2.722   8.748   5.023 -1.9580 -0.8112 -0.6963
24242SOL    HW277574   2.738   8.599   5.047  0.1739 -0.3555  0.9636
24243SOL     OW77575   0.821   6.646   5.462 -0.6165 -0.1750 -0.7288
24243SOL    HW177576   0.854   6.685   5.542 -1.7101 -2.5634  0.9900
24243SOL    HW277577   0.747   6.701   5.437 -0.6576  0.2358  0.2630
24244SOL     OW77578   4.987   1.155   0.748 -0.5113 -0.1479  0.4631
24244SOL    HW177579   4.909   1.179   0.697 -0.5357  1.0885  1.0462
24244SOL    HW277580   4.967   1.184   0.837  0.7638  0.5607  0.5443
24245SOL     OW77581   0.652   1.582   0.491 -0.1235 -0.3309 -0.0624
24245SOL    HW177582   0.556   1.582   0.495 -0.1424 -0.4755 -0.5196
24245SOL    HW277583   0.679   1.589   0.583 -0.5668 -2.2606  0.2556
24246SOL     OW77584   3.634   7.901   3.669  0.1219  0.0615  0.1301
24246SOL    HW177585   3.700   7.907   3.600 -1.0078  1.6991 -0.8879
24246SOL    HW277586   3.627   7.808   3.687  0.3760 -0.4585 -2.0936
24247SOL     OW77587   6.049   5.851   7.105 -0.5908 -0.3459  0.1647
24247SOL    HW177588   6.039   5.944   7.126  0.2674 -0.2192  0.0488
24247SOL    HW277589   6.093   5.850   7.020  0.5882 -0.8556  0.7665
24248SOL     OW77590   2.187   9.332   7.857 -0.2977 -0.1324 -0.4084
24248SOL    HW177591   2.137   9.342   7.938 -1.6770 -0.9963 -1.1261
24248SOL    HW277592   2.246   9.258   7.875  0.5951  0.7302  0.3485
24249SOL     OW77593   3.032   0.394   8.493 -0.4041 -0.0451 -0.0734
24249SOL    HW177594   2.991   0.396   8.579  1.8890  0.4833  1.0985
24249SOL    HW277595   2.987   0.324   8.447 -0.7020 -1.4111  2.1211
24250SOL     OW77596   3.428   0.522   5.080 -0.4675  0.5112  0.1805
24250SOL    HW177597   3.352   0.478   5.118  1.3668 -1.5644  1.6928
24250SOL    HW277598   3.465   0.572   5.153  1.3879 -1.0990  0.4264
24251SOL     OW77599   5.307   8.520   0.610 -0.1754 -0.0959  0.3503
24251SOL    HW177600   5.321   8.544   0.701 -0.0158 -1.1468  0.6030
24251SOL    HW277601   5.222   8.559   0.588 -1.7268 -2.3878  1.8833
24252SOL     OW77602   6.258   3.702   7.247 -0.0398  0.1439 -0.4561
24252SOL    HW177603   6.165   3.685   7.232  0.0894 -0.0606 -1.0363
24252SOL    HW277604   6.299   3.616   7.247  0.3589  0.3199 -1.6588
24253SOL     OW77605   2.057   9.566   8.565 -0.9275  0.1635 -0.0616
24253SOL    HW177606   2.088   9.593   8.478  0.0757 -0.3324  0.1314
24253SOL    HW277607   2.037   9.649   8.609 -0.6119  0.4620 -0.4665
24254SOL     OW77608   2.142   5.072   9.326  0.3627  0.4676 -0.0329
24254SOL    HW177609   2.057   5.037   9.354 -0.6925  1.2653 -2.0108
24254SOL    HW277610   2.206   5.016   9.369 -1.0879  0.8174  2.8327
24255SOL     OW77611   6.972   9.542   9.642  0.3443  0.2817  0.4198
24255SOL    HW177612   6.927   9.598   9.578 -0.3317 -0.6961  0.0056
24255SOL    HW277613   7.065   9.562   9.630  0.1999  0.4582 -0.5589
24256SOL     OW77614   5.872   0.770   2.075 -0.1508  0.1968 -0.1653
24256SOL    HW177615   5.961   0.740   2.055 -1.4947 -2.3537 -2.8638
24256SOL    HW277616   5.852   0.730   2.160  1.2480  0.9324  0.5568
24257SOL     OW77617   4.975   2.296   5.100 -0.1425 -0.0846 -0.3925
24257SOL    HW177618   4.984   2.232   5.171 -0.6508 -1.5051 -1.5336
24257SOL    HW277619   4.904   2.354   5.128  1.9907  1.6504  1.8078
24258SOL     OW77620   8.465   1.052   0.846 -0.4153  0.0767 -0.8190
24258SOL    HW177621   8.547   1.031   0.891 -0.1504  0.5391 -1.0839
24258SOL    HW277622   8.485   1.040   0.753  0.3210  3.2291 -1.1786
24259SOL     OW77623   0.495   1.046   7.191 -0.9153 -0.0301 -0.3428
24259SOL    HW177624   0.406   1.013   7.200 -1.0532 -0.1904 -2.0794
24259SOL    HW277625   0.514   1.086   7.276 -1.4205 -2.8436  1.2218
24260SOL     OW77626   0.034   2.448   8.121  0.3464  0.1130 -0.3876
24260SOL    HW177627   0.076   2.534   8.123 -1.1259  0.9571 -2.5612
24260SOL    HW277628  -0.046   2.459   8.172  0.0265  0.1020 -0.8888
24261SOL     OW77629   9.735   3.438   6.141 -0.2166 -0.1236  0.2073
24261SOL    HW177630   9.761   3.427   6.049  1.6840 -0.0460  0.7089
24261SOL    HW277631   9.639   3.437   6.138 -0.2246  1.0643 -1.9187
24262SOL     OW77632   2.807   1.559   7.334  0.0264  0.3414  0.4525
24262SOL    HW177633   2.819   1.610   7.414 -1.9911 -0.5887  1.4068
24262SOL    HW277634   2.780   1.473   7.365 -1.1285  0.0601 -1.2415
24263SOL     OW77635   6.540   7.926   5.155  0.1664  0.5291  0.5843
24263SOL    HW177636   6.520   8.010   5.195  1.5705  0.9705  0.3949
24263SOL    HW277637   6.507   7.861   5.217 -0.5201  1.2062  0.9401
24264SOL     OW77638   7.020   0.906   5.769 -0.2382 -0.0211 -0.5857
24264SOL    HW177639   6.940   0.906   5.821 -0.6727  1.0325 -1.2020
24264SOL    HW277640   6.995   0.947   5.686  0.9771  0.5221 -0.7204
24265SOL     OW77641   1.049   2.898   6.763 -0.0481  0.3601  0.3221
24265SOL    HW177642   0.983   2.832   6.743  1.3314 -0.7139 -0.9035
24265SOL    HW277643   1.071   2.937   6.678 -0.2792  1.8833  0.9269
24266SOL     OW77644   8.116   0.654   3.840 -0.4389  0.0777 -0.4633
24266SOL    HW177645   8.039   0.606   3.810 -0.3661 -1.2588  1.3469
24266SOL    HW277646   8.178   0.646   3.767 -2.1816  1.8061 -2.2597
24267SOL     OW77647   9.684   9.354   2.397  0.2683 -0.0887  0.3082
24267SOL    HW177648   9.621   9.297   2.354 -2.2224  1.8959  1.1064
24267SOL    HW277649   9.729   9.399   2.326 -2.1115  1.4039 -0.3563
24268SOL     OW77650   0.973   8.313   6.279 -0.4781 -0.0549  0.4182
24268SOL    HW177651   0.923   8.233   6.260 -0.7290  0.0860  0.4940
24268SOL    HW277652   0.945   8.375   6.212 -1.1246  0.3398  1.0576
24269SOL     OW77653   4.107   7.376   1.265 -0.7032  0.0575  0.1433
24269SOL    HW177654   4.035   7.418   1.219 -0.7392  0.3976  0.5040
24269SOL    HW277655   4.074   7.362   1.354 -0.0950  0.8610  0.5187
24270SOL     OW77656   3.376   1.722   9.200  0.4589 -0.4581 -0.1919
24270SOL    HW177657   3.443   1.785   9.223  0.2955  0.2036 -1.4400
24270SOL    HW277658   3.424   1.645   9.170  0.7071  0.3086 -1.8739
24271SOL     OW77659   8.424   1.156   6.189  0.0971  0.0606 -0.1178
24271SOL    HW177660   8.365   1.229   6.170  1.3438  0.7237 -1.7245
24271SOL    HW277661   8.368   1.079   6.188 -1.5701  1.0427  3.2374
24272SOL     OW77662   5.708   2.659   8.187 -0.0841  0.3578 -0.6124
24272SOL    HW177663   5.772   2.669   8.116  1.4536  1.5637  0.8517
24272SOL    HW277664   5.673   2.747   8.199  0.1653  0.3113  0.5449
24273SOL     OW77665   6.538   1.762   8.948  0.0971 -0.5643  0.3082
24273SOL    HW177666   6.468   1.815   8.987 -0.1920 -0.7788  0.0922
24273SOL    HW277667   6.503   1.673   8.949  1.5471 -1.2296  2.9967
24274SOL     OW77668   0.209   3.854   9.451  0.3823  0.2916  0.5737
24274SOL    HW177669   0.293   3.820   9.418  0.7479 -0.0918  1.8139
24274SOL    HW277670   0.151   3.778   9.449  0.5208  0.1658  1.1572
24275SOL     OW77671   5.277   2.717   7.785  0.1112 -0.7130  0.1683
24275SOL    HW177672   5.315   2.646   7.733 -0.8291 -0.6796 -0.5943
24275SOL    HW277673   5.201   2.745   7.734  1.0691  1.5791 -0.1183
24276SOL     OW77674   3.689   7.582   9.613 -0.0105  0.0296 -0.2356
24276SOL    HW177675   3.636   7.609   9.689  0.6920 -0.0072  0.2782
24276SOL    HW277676   3.774   7.560   9.651 -0.0172 -1.1454 -0.8834
24277SOL     OW77677   4.957   8.156   7.048  0.0913 -0.4346  0.0994
24277SOL    HW177678   4.957   8.246   7.079 -1.0811  0.1743 -1.5260
24277SOL    HW277679   4.910   8.107   7.114 -0.1981  0.3500  0.4790
24278SOL     OW77680   4.205   1.735   2.301  0.3744 -0.3063  0.9261
24278SOL    HW177681   4.239   1.781   2.377  0.2021 -0.9589  1.4087
24278SOL    HW277682   4.263   1.660   2.290 -0.7056 -1.2877  1.5973
24279SOL     OW77683   3.463   9.585   6.467 -0.6581  0.3530  0.0904
24279SOL    HW177684   3.372   9.559   6.453 -0.3226 -0.2157 -1.1264
24279SOL    HW277685   3.475   9.577   6.562 -1.6425 -0.3624  0.1749
24280SOL     OW77686   4.241   1.999   4.895 -0.7826  0.4192 -0.0031
24280SOL    HW177687   4.237   2.064   4.965  0.4423 -0.8868  1.3374
24280SOL    HW277688   4.313   1.941   4.919  0.0149  0.1956 -2.6142
24281SOL     OW77689   6.568   6.207   8.127  0.0121 -0.4681 -0.4147
24281SOL    HW177690   6.658   6.238   8.134 -0.0779 -0.4705  1.1071
24281SOL    HW277691   6.515   6.282   8.153 -0.3524 -0.8591 -0.0014
24282SOL     OW77692   1.043   3.686   7.042 -0.0820 -0.1002  0.5995
24282SOL    HW177693   1.037   3.621   6.973  0.0616  1.2245 -0.7222
24282SOL    HW277694   0.959   3.681   7.087 -0.3821 -0.6433  0.0007
24283SOL     OW77695   4.268   8.160   4.455 -0.2316 -0.1138  0.5465
24283SOL    HW177696   4.356   8.146   4.420 -0.2612  1.0837 -0.0403
24283SOL    HW277697   4.211   8.105   4.401 -0.3393  2.0505 -1.6664
24284SOL     OW77698   5.382   5.864   6.444  0.2027  0.8460  0.8721
24284SOL    HW177699   5.332   5.945   6.439 -0.8897  0.2114  1.2164
24284SOL    HW277700   5.412   5.860   6.535  0.4662  0.9839  0.7917
24285SOL     OW77701   5.958   3.946   4.350  0.3163  0.0951 -0.8938
24285SOL    HW177702   5.984   3.856   4.371 -1.0041  0.0057  0.5144
24285SOL    HW277703   5.863   3.942   4.338  0.3680  1.1350 -1.7844
24286SOL     OW77704   1.013   4.508   4.145  0.3522  0.2968 -0.1102
24286SOL    HW177705   0.986   4.484   4.057 -0.6760  2.9593 -0.6350
24286SOL    HW277706   1.108   4.520   4.138  0.1992  1.1114 -1.0662
24287SOL     OW77707   3.510   4.251   8.320 -0.2096 -0.1664  0.4840
24287SOL    HW177708   3.440   4.312   8.341  0.2996  0.3351  0.7453
24287SOL    HW277709   3.473   4.165   8.340 -0.5978  0.1273  1.0713
24288SOL     OW77710   2.339   8.175   5.591 -0.3009 -0.2147  0.2070
24288SOL    HW177711   2.401   8.135   5.652 -1.3043  1.5789  2.5365
24288SOL    HW277712   2.255   8.136   5.614 -0.4448 -0.9246 -1.3831
24289SOL     OW77713   6.628   8.611   5.104  0.1371  0.5090  0.3109
24289SOL    HW177714   6.707   8.583   5.057 -0.2308 -0.2629  0.1410
24289SOL    HW277715   6.631   8.561   5.186 -0.8928 -0.6088 -0.2971
24290SOL     OW77716   2.904   2.890   9.463  0.8856  0.2476 -0.6703
24290SOL    HW177717   2.880   2.982   9.465  0.2302  0.0699  0.6305
24290SOL    HW277718   2.872   2.859   9.378 -0.9757  0.6960 -0.1795
24291SOL     OW77719   1.669   3.232   3.533  0.3096 -0.0182  0.4754
24291SOL    HW177720   1.755   3.273   3.525  1.6188 -1.8016  3.5824
24291SOL    HW277721   1.687   3.138   3.534 -1.4934 -0.4222  2.2286
24292SOL     OW77722   9.473   7.544   5.847  0.7097 -0.4940  0.1932
24292SOL    HW177723   9.442   7.635   5.843  0.9769 -0.4629 -1.4509
24292SOL    HW277724   9.398   7.496   5.882 -0.3048  0.0077 -1.1871
24293SOL     OW77725   7.007   7.212   8.623 -0.6054  0.0264  0.8222
24293SOL    HW177726   6.944   7.274   8.660 -1.9679 -2.6383  3.3593
24293SOL    HW277727   6.956   7.132   8.607  1.0762 -0.5905 -2.2014
24294SOL     OW77728   6.499   8.176   5.243  0.1990 -0.2151  0.2740
24294SOL    HW177729   6.474   8.244   5.180 -0.4916 -0.8831 -0.1918
24294SOL    HW277730   6.490   8.218   5.328 -0.1320  0.3116 -0.0118
24295SOL     OW77731   8.680   2.344   8.660 -0.5509  0.3582  0.4612
24295SOL    HW177732   8.589   2.364   8.684 -0.7206  0.6841 -0.4187
24295SOL    HW277733   8.674   2.299   8.576  0.0958  0.3376  0.4171
24296SOL     OW77734   3.012   5.074   3.282  0.2236  0.2736  0.1067
24296SOL    HW177735   2.991   5.012   3.212  2.1176 -0.5194  0.1701
24296SOL    HW277736   3.060   5.144   3.237 -1.2783  1.3589  0.1517
24297SOL     OW77737   7.945   6.989   1.140  0.4660 -0.4801 -0.8037
24297SOL    HW177738   7.909   6.964   1.055  1.8263 -2.0401 -0.9765
24297SOL    HW277739   7.900   6.931   1.202  0.1671 -0.0133 -0.5860
24298SOL     OW77740   1.617   7.718   1.975  0.2212 -0.1497 -0.5217
24298SOL    HW177741   1.539   7.761   1.939  0.3547  0.3486 -0.2194
24298SOL    HW277742   1.625   7.636   1.925 -1.0475 -0.6747  0.0972
24299SOL     OW77743   3.745   4.202   0.571 -1.1587  0.1203  0.0312
24299SOL    HW177744   3.816   4.259   0.542 -0.2280 -0.6939  0.6452
24299SOL    HW277745   3.720   4.153   0.492  0.4104 -1.0911  0.2433
24300SOL     OW77746   8.857   0.001   3.665 -0.1781  0.5326 -0.0148
24300SOL    HW177747   8.876   0.058   3.591 -2.1120  0.9074 -0.2637
24300SOL    HW277748   8.780  -0.048   3.639  1.0141 -1.7554  0.4775
24301SOL     OW77749   6.113   5.885   6.848  0.2085  1.0706  0.0775
24301SOL    HW177750   6.108   5.932   6.764 -0.5135 -1.6449 -1.5290
24301SOL    HW277751   6.172   5.811   6.830 -0.1179  0.3126  1.9239
24302SOL     OW77752   7.679   3.704   2.100 -0.1537 -0.3511 -0.1354
24302SOL    HW177753   7.708   3.675   2.014  0.2258 -0.7348  0.1185
24302SOL    HW277754   7.674   3.624   2.152  0.3439 -0.0338  0.4129
24303SOL     OW77755   7.804   1.395   2.598  0.3967 -0.0142 -0.2911
24303SOL    HW177756   7.771   1.316   2.640  2.5590 -0.6079  0.4441
24303SOL    HW277757   7.773   1.390   2.508 -0.0434 -1.3501 -0.0777
24304SOL     OW77758   5.272   2.562   5.483 -0.2392  0.4081  0.3265
24304SOL    HW177759   5.336   2.539   5.416 -0.9243 -0.2505 -0.1178
24304SOL    HW277760   5.197   2.594   5.433 -1.9335 -2.8223  0.5118
24305SOL     OW77761   5.617   1.867   0.149 -0.3364  0.1355  0.2548
24305SOL    HW177762   5.540   1.904   0.106 -0.2777 -1.1093 -0.9894
24305SOL    HW277763   5.616   1.774   0.125  0.3122 -0.3943  2.0840
24306SOL     OW77764   8.679   1.532   4.108  1.1147  0.2825  0.3819
24306SOL    HW177765   8.700   1.450   4.153 -0.1234  0.1311  0.7207
24306SOL    HW277766   8.587   1.548   4.129  0.7041  0.6113 -1.4779
24307SOL     OW77767   5.923   0.087   5.090 -0.1061 -0.3590 -0.1183
24307SOL    HW177768   5.927   0.112   4.998  0.7902 -0.1422 -0.0369
24307SOL    HW277769   5.832   0.063   5.105 -0.0572 -1.4071 -1.3248
24308SOL     OW77770   4.557   4.539   2.425  0.1550  0.1775  0.3036
24308SOL    HW177771   4.560   4.633   2.408  0.2663  0.1912  0.3972
24308SOL    HW277772   4.467   4.522   2.452  0.3883  0.4299  1.2709
24309SOL     OW77773   5.300   4.487   5.326 -0.1982  0.0981  0.3496
24309SOL    HW177774   5.332   4.397   5.339 -0.0846  0.3810  2.2251
24309SOL    HW277775   5.205   4.479   5.327 -0.1889 -0.0218  0.3254
24310SOL     OW77776   0.117   2.238   6.580  0.3286 -0.4173 -0.1078
24310SOL    HW177777   0.147   2.166   6.636 -0.6504 -0.6378  0.1562
24310SOL    HW277778   0.069   2.195   6.509 -0.2472 -0.0289  0.0403
24311SOL     OW77779   9.187   8.881   7.284 -0.5068 -0.2538 -0.4612
24311SOL    HW177780   9.206   8.966   7.324 -0.9556  1.1269 -2.9873
24311SOL    HW277781   9.157   8.902   7.196  0.6581 -3.1265 -1.6595
24312SOL     OW77782   8.841   7.028   1.370 -0.3322 -0.6466  0.2535
24312SOL    HW177783   8.928   7.009   1.337 -0.7502 -0.4471 -0.9994
24312SOL    HW277784   8.785   7.033   1.292 -0.9222  2.2007  0.7314
24313SOL     OW77785   8.634   0.272   0.638  0.3584  0.4449 -0.1400
24313SOL    HW177786   8.679   0.325   0.571  0.4308 -0.9514 -1.2500
24313SOL    HW277787   8.619   0.188   0.595 -2.9713  0.6915  0.3388
24314SOL     OW77788   1.830   2.245   3.372 -0.1754  0.2919 -0.2626
24314SOL    HW177789   1.760   2.309   3.387 -1.1523 -0.3770 -1.7215
24314SOL    HW277790   1.891   2.290   3.314  0.4624  0.7572  0.7411
24315SOL     OW77791   3.888   8.036   2.407 -0.1651  0.5222 -0.1462
24315SOL    HW177792   3.950   7.967   2.430  0.1125  0.7439 -0.2251
24315SOL    HW277793   3.921   8.113   2.452 -0.0853  0.7646 -0.6127
24316SOL     OW77794   1.238   5.719   0.374  0.4254 -0.4227 -0.3823
24316SOL    HW177795   1.235   5.624   0.362  0.5616 -0.1327 -3.6088
24316SOL    HW277796   1.173   5.752   0.312  1.2053  1.6707 -0.1426
24317SOL     OW77797   5.372   5.575   9.325 -0.2848 -0.5515 -0.2884
24317SOL    HW177798   5.414   5.523   9.394  0.9087 -0.8169 -1.1797
24317SOL    HW277799   5.332   5.649   9.371 -0.0238 -1.0457  0.7465
24318SOL     OW77800   3.136   4.172   4.960  0.1041 -0.1781  0.4743
24318SOL    HW177801   3.069   4.237   4.981  0.4863  0.4791 -0.2802
24318SOL    HW277802   3.087   4.092   4.943 -0.4294  0.0972  0.6978
24319SOL     OW77803   0.256   5.427   6.429  0.0681  0.4627 -0.1156
24319SOL    HW177804   0.262   5.359   6.362  0.2520 -1.8701  2.0881
24319SOL    HW277805   0.237   5.379   6.510 -2.0479  3.2589  1.2542
24320SOL     OW77806   5.466   1.160   1.121 -0.3474  0.1449 -0.4789
24320SOL    HW177807   5.373   1.139   1.131  0.1682 -2.2195 -0.0429
24320SOL    HW277808   5.510   1.099   1.180  1.5125  1.0492 -0.8749
24321SOL     OW77809   6.723   5.646   5.359  0.2844  0.5993  0.0867
24321SOL    HW177810   6.664   5.673   5.289 -0.5965  0.8003  0.8913
24321SOL    HW277811   6.666   5.632   5.435  1.0609 -0.7502  0.4668
24322SOL     OW77812   5.672   9.646   6.544 -0.5546  0.1161  0.6591
24322SOL    HW177813   5.689   9.561   6.585 -0.2172  0.0888  0.4654
24322SOL    HW277814   5.753   9.696   6.556  0.6064 -0.8290 -2.2914
24323SOL     OW77815   6.184   8.977   4.158 -0.4087  0.2245 -0.1450
24323SOL    HW177816   6.264   8.982   4.107  0.6665 -1.0639  1.3154
24323SOL    HW277817   6.120   8.937   4.099  1.1975 -2.6351 -0.1573
24324SOL     OW77818   1.618   3.989   0.003  0.9372  0.0831  0.2642
24324SOL    HW177819   1.706   4.013  -0.027  0.1557  2.5295 -0.3459
24324SOL    HW277820   1.561   4.013  -0.070 -0.2378 -1.8176  0.5033
24325SOL     OW77821   0.573   1.493   3.928 -0.1718 -0.0719  0.0957
24325SOL    HW177822   0.665   1.475   3.947 -0.5135  0.0376  1.9778
24325SOL    HW277823   0.530   1.495   4.013 -1.8280  0.4658 -0.7063
24326SOL     OW77824   2.398   5.818   5.752  0.1539 -0.0027  0.3667
24326SOL    HW177825   2.432   5.734   5.723 -0.1941  0.1754 -0.5900
24326SOL    HW277826   2.318   5.797   5.800  0.9971 -0.3387  1.6586
24327SOL     OW77827   9.659   4.961   0.793  0.4728  0.0285 -0.2775
24327SOL    HW177828   9.601   4.998   0.726  0.5774  1.5546  0.4319
24327SOL    HW277829   9.604   4.955   0.871  0.8446 -0.0202 -0.0184
24328SOL     OW77830   7.158   0.308   9.538  0.5818 -0.1582  0.2653
24328SOL    HW177831   7.152   0.367   9.462 -0.1744 -1.3292 -0.6197
24328SOL    HW277832   7.107   0.352   9.606 -0.8181 -0.1982 -0.6914
24329SOL     OW77833   3.084   1.675   5.370  0.0954  0.0360  0.1205
24329SOL    HW177834   3.125   1.658   5.455  1.0530  0.2699 -0.2811
24329SOL    HW277835   2.995   1.703   5.392  0.2868 -0.0344  1.0380
24330SOL     OW77836   3.186   3.719   6.138 -0.3399  0.2699  0.2153
24330SOL    HW177837   3.276   3.720   6.172 -0.3307  1.0532  0.2042
24330SOL    HW277838   3.164   3.627   6.130  0.2470  0.0710  0.8006
24331SOL     OW77839   8.688   0.563   0.679 -0.1598  0.0330 -0.4232
24331SOL    HW177840   8.613   0.616   0.655 -0.0454 -0.2940 -1.5654
24331SOL    HW277841   8.668   0.532   0.768 -0.7193  1.0647 -0.1725
24332SOL     OW77842   2.099   4.461   3.693 -0.0922 -0.2801  0.8675
24332SOL    HW177843   2.159   4.535   3.683 -1.2849  0.6150  0.0020
24332SOL    HW277844   2.029   4.494   3.750 -0.7195 -0.6735  0.3462
24333SOL     OW77845   1.280   4.242   4.723  0.0068 -1.1766  0.1167
24333SOL    HW177846   1.373   4.265   4.722  0.0141 -1.2055 -1.5044
24333SOL    HW277847   1.247   4.269   4.637 -1.2682 -2.0624  0.2954
24334SOL     OW77848   6.507   7.500   9.060 -0.0795  0.1707  0.0050
24334SOL    HW177849   6.473   7.561   8.994 -0.7628  0.0797  0.2667
24334SOL    HW277850   6.602   7.501   9.047 -0.0574  1.4694  0.1466
24335SOL     OW77851   7.469   7.228   1.320 -0.4089 -0.9771 -0.4657
24335SOL    HW177852   7.485   7.303   1.262 -0.0488 -1.7305 -1.3735
24335SOL    HW277853   7.374   7.222   1.327 -0.4633 -0.9801 -1.1339
24336SOL     OW77854   1.836   5.548   4.904  0.2614 -0.8452  0.0631
24336SOL    HW177855   1.806   5.578   4.818  2.1043  0.8279 -0.0591
24336SOL    HW277856   1.815   5.619   4.964 -0.5126 -1.7657  0.9254
24337SOL     OW77857   5.018   5.086   0.198  0.0729 -0.0833  0.2639
24337SOL    HW177858   5.002   5.039   0.116 -0.5339 -0.5150  0.6244
24337SOL    HW277859   5.102   5.053   0.229 -0.0566 -0.4751  0.2011
24338SOL     OW77860   8.228   9.358   6.495 -0.9452 -0.1748 -0.1994
24338SOL    HW177861   8.199   9.449   6.493  0.6659  0.3990  0.4246
24338SOL    HW277862   8.229   9.335   6.588 -2.6188 -1.3076 -0.4182
24339SOL     OW77863   8.864   3.264   1.377 -0.2878 -0.1700  0.2857
24339SOL    HW177864   8.957   3.248   1.368  0.0325 -0.7479  3.5385
24339SOL    HW277865   8.859   3.347   1.425 -1.4006 -0.8076  1.3001
24340SOL     OW77866   8.096   9.052   9.028 -0.5540 -0.6184 -1.2604
24340SOL    HW177867   8.117   9.142   9.005 -0.7669 -0.1798  0.1735
24340SOL    HW277868   8.026   9.028   8.967 -0.9525  0.4217 -1.2414
24341SOL     OW77869   4.871   7.329   6.505  0.5285 -0.2879  0.4957
24341SOL    HW177870   4.805   7.348   6.438  0.2279  0.4444  0.9943
24341SOL    HW277871   4.895   7.414   6.540  0.3761 -0.6830  1.6101
24342SOL     OW77872   6.165   6.247   9.323 -0.1076 -0.3740  1.1592
24342SOL    HW177873   6.129   6.168   9.364 -0.7506 -0.5280  0.3352
24342SOL    HW277874   6.107   6.263   9.248  2.2720 -1.3675 -1.0025
24343SOL     OW77875   4.412   6.142   4.931 -0.2843 -0.0320  0.4406
24343SOL    HW177876   4.323   6.130   4.964 -0.8894  0.2374 -1.0028
24343SOL    HW277877   4.468   6.097   4.994 -1.3965  0.1907  1.6212
24344SOL     OW77878   2.603   0.588   5.516 -0.2963  0.7895  0.0669
24344SOL    HW177879   2.639   0.652   5.578  1.5616 -1.0148  0.9713
24344SOL    HW277880   2.613   0.503   5.561 -2.0038 -0.2401 -1.3689
24345SOL     OW77881   9.585   3.121   2.308  0.0572 -0.6034  0.2769
24345SOL    HW177882   9.576   3.026   2.315 -0.6924 -0.4985  0.8492
24345SOL    HW277883   9.496   3.153   2.297  0.1731  0.1251  1.3050
24346SOL     OW77884   0.876   6.126   7.309  0.3164  0.1512  0.3060
24346SOL    HW177885   0.832   6.207   7.283 -0.2877 -0.2581  0.0198
24346SOL    HW277886   0.848   6.062   7.244  1.1372 -0.1859  0.2791
24347SOL     OW77887   3.635   6.470   3.993 -0.1496 -0.0363 -0.8439
24347SOL    HW177888   3.572   6.513   3.934  0.3872 -0.1644 -1.5296
24347SOL    HW277889   3.660   6.390   3.947 -0.2564 -0.5051 -0.1061
24348SOL     OW77890   8.009   7.919   0.234  0.7191  0.0220 -0.6158
24348SOL    HW177891   7.974   7.851   0.176  1.1703 -0.1822 -0.6539
24348SOL    HW277892   7.966   7.999   0.206 -0.5461 -0.3993  0.0604
24349SOL     OW77893   1.826   0.829   0.637  0.0674 -0.4346 -0.4646
24349SOL    HW177894   1.904   0.863   0.593  0.3289  0.1466  0.4262
24349SOL    HW277895   1.839   0.734   0.639  1.6655 -0.2373  1.3124
24350SOL     OW77896   1.966   1.105   0.641  0.1028 -0.3367  0.0645
24350SOL    HW177897   2.029   1.177   0.649 -1.7839  1.3804  0.1657
24350SOL    HW277898   1.913   1.128   0.565 -1.1600 -1.1037  0.6772
24351SOL     OW77899   9.276   8.480   8.518 -0.0251 -0.8765  0.2978
24351SOL    HW177900   9.275   8.473   8.614 -2.2488 -1.1788  0.3018
24351SOL    HW277901   9.207   8.543   8.498  0.7861 -0.3969 -1.1072
24352SOL     OW77902   0.048   4.018   0.036 -0.2193  0.8117 -0.1071
24352SOL    HW177903   0.018   4.034   0.126 -1.8637 -0.3625 -0.3965
24352SOL    HW277904  -0.032   4.008  -0.015  0.6437 -1.0907 -1.2247
24353SOL     OW77905   2.884   6.203   9.645  0.0472  0.3604  0.0363
24353SOL    HW177906   2.964   6.193   9.697  2.0642 -1.4629 -3.0426
24353SOL    HW277907   2.867   6.115   9.612 -3.2831  0.7236  0.4869
24354SOL     OW77908   2.600   0.072   5.044 -0.3370  1.1004 -0.1764
24354SOL    HW177909   2.589   0.044   4.953  1.6977  1.0911 -0.4619
24354SOL    HW277910   2.559   0.158   5.048 -0.9636  0.8493 -0.9431
24355SOL     OW77911   1.714   2.105   1.336  0.1912  0.0041  0.6171
24355SOL    HW177912   1.750   2.193   1.327  1.5524 -0.6722 -1.2989
24355SOL    HW277913   1.713   2.088   1.430  1.9159  1.2834  0.8986
24356SOL     OW77914   6.074   6.683   1.217  0.1904 -0.1250  0.6040
24356SOL    HW177915   6.118   6.598   1.219  0.4408  0.0091  0.7333
24356SOL    HW277916   6.043   6.697   1.306 -3.5158 -1.9998 -0.1768
24357SOL     OW77917   0.498   6.632   2.853 -0.9573  0.3130  0.2917
24357SOL    HW177918   0.587   6.617   2.884 -0.6631  0.7014 -0.3462
24357SOL    HW277919   0.497   6.724   2.827 -1.5817  0.3424  0.4155
24358SOL     OW77920   5.034   5.625   0.396  0.2014  0.0292 -0.0805
24358SOL    HW177921   4.967   5.571   0.355 -1.0109  1.6549 -0.3326
24358SOL    HW277922   4.991   5.708   0.415  1.8380  0.7427  0.8098
24359SOL     OW77923   4.555   5.434   1.558  0.4340  0.0281  0.3585
24359SOL    HW177924   4.600   5.480   1.486 -0.9015  0.5834 -0.1510
24359SOL    HW277925   4.472   5.407   1.520  0.2377 -0.8023  1.3489
24360SOL     OW77926   0.908   6.374   6.926  0.2663 -0.3679 -0.2125
24360SOL    HW177927   0.855   6.294   6.921  0.1427 -0.2465 -1.1618
24360SOL    HW277928   0.927   6.395   6.834  1.2703  0.0535  0.0800
24361SOL     OW77929   8.754   2.651   1.023  0.3900 -0.5462  0.7353
24361SOL    HW177930   8.823   2.715   1.011  0.6734 -0.8547  0.7165
24361SOL    HW277931   8.680   2.701   1.057 -0.7139  0.5564 -2.7671
24362SOL     OW77932   5.291   2.924   0.282 -0.2717  0.3443  0.7369
24362SOL    HW177933   5.361   2.971   0.235 -0.8530  0.5456  0.0506
24362SOL    HW277934   5.210   2.963   0.250 -0.6986  0.3051  1.7382
24363SOL     OW77935   5.738   9.209   0.260  0.3023  0.5856 -0.2547
24363SOL    HW177936   5.656   9.161   0.262 -0.7611  2.3103  0.2463
24363SOL    HW277937   5.802   9.149   0.297 -0.5177 -1.1118 -1.4406
24364SOL     OW77938   7.795   1.848   7.920  0.3096 -0.0326 -0.1419
24364SOL    HW177939   7.713   1.891   7.944 -0.3390 -1.3662  0.1466
24364SOL    HW277940   7.790   1.762   7.962  2.0118 -0.0296  0.1679
24365SOL     OW77941   4.477   1.184   2.671  0.4825  0.8237  0.4009
24365SOL    HW177942   4.569   1.174   2.646  0.4520  0.3285  0.4842
24365SOL    HW277943   4.476   1.262   2.725  0.8502  0.8537  0.3686
24366SOL     OW77944   5.549   3.011   8.963  0.3462 -0.3431 -0.7355
24366SOL    HW177945   5.492   3.040   8.892  1.3622 -1.4330 -2.0567
24366SOL    HW277946   5.508   2.930   8.995 -1.0263  1.0005  1.1311
24367SOL     OW77947   2.359   9.389   5.214  0.2463  0.7763 -0.0254
24367SOL    HW177948   2.403   9.362   5.295 -1.4668 -0.4755  0.5343
24367SOL    HW277949   2.277   9.340   5.214  0.7700 -0.3357 -3.1986
24368SOL     OW77950   4.804   2.166   1.234  0.0430  0.1467  0.0082
24368SOL    HW177951   4.731   2.105   1.242  0.9070 -1.0994 -1.0015
24368SOL    HW277952   4.797   2.224   1.310 -1.2520 -0.7455  0.5949
24369SOL     OW77953   8.073   1.365   2.844  0.2812  0.0310  0.1568
24369SOL    HW177954   8.107   1.390   2.758 -1.0834 -1.5102 -0.8735
24369SOL    HW277955   8.152   1.357   2.899  1.2830 -0.0751 -1.2452
24370SOL     OW77956   4.128   9.541   2.349  0.6076 -0.0841 -0.0872
24370SOL    HW177957   4.207   9.560   2.401  0.7608  1.0797 -0.7005
24370SOL    HW277958   4.162   9.517   2.263  0.4339 -3.6446  0.6877
24371SOL     OW77959   1.498   6.724   1.195 -0.0779  0.2958 -0.8065
24371SOL    HW177960   1.453   6.676   1.125 -0.2466 -0.2592 -0.3240
24371SOL    HW277961   1.520   6.808   1.155 -0.9853  0.3431 -1.2522
24372SOL     OW77962   7.781   4.701   8.913  0.3005 -0.0444  0.3517
24372SOL    HW177963   7.819   4.700   9.000  0.5997  3.5674  0.4263
24372SOL    HW277964   7.687   4.688   8.928  0.3260  0.6936  1.2687
24373SOL     OW77965   1.900   5.630   1.637 -0.1137 -0.2462  0.2055
24373SOL    HW177966   1.885   5.683   1.559  1.8711 -0.4106 -0.3313
24373SOL    HW277967   1.914   5.541   1.604 -3.7204 -1.3475  1.1088
24374SOL     OW77968   5.410   1.384   7.924 -0.0267  0.2297  0.1351
24374SOL    HW177969   5.375   1.450   7.983  0.7794 -0.3434  1.3088
24374SOL    HW277970   5.403   1.302   7.973  3.3228  0.1422  0.6873
24375SOL     OW77971   3.151   2.185   9.364 -0.5525 -0.2255 -0.0346
24375SOL    HW177972   3.074   2.213   9.414  0.8187  1.0096  1.4534
24375SOL    HW277973   3.217   2.252   9.380  0.4427 -0.5375 -2.3764
24376SOL     OW77974   3.090   4.250   5.677  0.2671  0.4974 -0.1752
24376SOL    HW177975   3.167   4.213   5.719  0.6378  0.5496 -0.7908
24376SOL    HW277976   3.123   4.326   5.629 -0.4885  1.7130  1.1355
24377SOL     OW77977   9.020   2.099   4.820  0.0504 -0.4482 -0.5712
24377SOL    HW177978   8.970   2.120   4.899 -1.2046  1.6837 -1.8366
24377SOL    HW277979   9.060   2.014   4.839 -1.3791 -0.6876  1.7747
24378SOL     OW77980   1.420   7.543   0.766 -0.3086 -0.3979 -0.0378
24378SOL    HW177981   1.414   7.520   0.859  1.6483 -1.5092 -0.1316
24378SOL    HW277982   1.375   7.472   0.720 -1.3888  0.2166  0.0339
24379SOL     OW77983   8.872   1.545   6.895  0.1374 -0.0482 -0.4434
24379SOL    HW177984   8.822   1.622   6.869  0.2097 -0.0503 -0.5946
24379SOL    HW277985   8.903   1.564   6.983 -0.5696 -0.2682 -0.1469
24380SOL     OW77986   6.070   4.560   3.342  0.5089  0.0471  0.1192
24380SOL    HW177987   6.058   4.555   3.436  0.4391 -0.0309  0.1053
24380SOL    HW277988   6.163   4.581   3.331  0.4689  0.2776  0.2112
24381SOL     OW77989   6.436   4.811   9.022  0.4545 -0.3648 -0.4877
24381SOL    HW177990   6.468   4.762   9.097 -1.6519  1.2698  1.6261
24381SOL    HW277991   6.455   4.902   9.043 -0.6376  0.1740 -1.7019
24382SOL     OW77992   5.114   8.552   4.192 -0.1999 -0.0945  0.2658
24382SOL    HW177993   5.023   8.521   4.201 -0.9877  1.5326 -1.4993
24382SOL    HW277994   5.109   8.646   4.208  1.2126  0.0049  0.2120
24383SOL     OW77995   3.083   3.938   3.447 -0.4323 -0.4763 -0.4766
24383SOL    HW177996   3.033   3.975   3.373 -2.9864  1.6014  2.0538
24383SOL    HW277997   3.034   3.859   3.471 -0.3767 -0.4353 -0.2291
24384SOL     OW77998   5.824   3.608   7.878  0.0366  0.4934  0.1646
24384SOL    HW177999   5.763   3.648   7.815  1.4383  3.4123  0.4916
24384SOL    HW278000   5.779   3.616   7.962 -0.4429 -0.3377 -0.0039
24385SOL     OW78001   3.225   0.406   8.198  0.4597  0.0098  0.4901
24385SOL    HW178002   3.302   0.429   8.249  1.5868 -0.2521 -1.0262
24385SOL    HW278003   3.241   0.445   8.112 -0.6913 -0.7960 -0.1148
24386SOL     OW78004   1.780   6.865   2.501  0.3505  0.5195  0.2506
24386SOL    HW178005   1.686   6.848   2.509 -0.1197  0.6138 -3.5381
24386SOL    HW278006   1.820   6.778   2.498  0.0222  0.3960 -0.9766
24387SOL     OW78007   3.362   6.154   6.613 -0.0442 -0.0677  0.0035
24387SOL    HW178008   3.415   6.075   6.600 -0.7435 -0.4313 -0.7702
24387SOL    HW278009   3.277   6.121   6.642 -0.6558  0.3060 -1.2715
24388SOL     OW78010   3.665   9.696   8.681 -0.5245  0.5666 -0.5192
24388SOL    HW178011   3.673   9.789   8.704 -4.8508  1.2903 -0.9620
24388SOL    HW278012   3.628   9.697   8.592 -1.3154 -1.5331 -0.2704
24389SOL     OW78013   2.788   0.597   7.207 -0.1772 -0.6102 -0.1720
24389SOL    HW178014   2.778   0.503   7.191  0.8360 -1.1369  1.9070
24389SOL    HW278015   2.733   0.615   7.283 -0.2038  0.4441 -0.4209
24390SOL     OW78016   1.616   9.651   6.245  0.1150  0.5382 -0.0844
24390SOL    HW178017   1.538   9.704   6.228 -0.2636 -0.2850 -1.0626
24390SOL    HW278018   1.583   9.575   6.294  0.6588  1.2150  1.3551
24391SOL     OW78019   1.899   0.446   2.351 -0.8318 -0.2295 -0.3673
24391SOL    HW178020   1.945   0.523   2.384 -0.7782 -0.6416  0.5528
24391SOL    HW278021   1.809   0.475   2.339 -0.6421  0.1937 -0.8089
24392SOL     OW78022   9.641   6.751   8.441 -0.5890 -0.0210  0.0634
24392SOL    HW178023   9.623   6.760   8.347 -0.8156  0.9989  0.1973
24392SOL    HW278024   9.664   6.839   8.470 -0.7196 -0.2872  1.0144
24393SOL     OW78025   5.680   2.034   4.785 -0.0472  0.1887  0.1535
24393SOL    HW178026   5.607   2.096   4.794 -0.3598 -0.0814 -0.4839
24393SOL    HW278027   5.639   1.953   4.755  0.0197 -1.0665  3.0943
24394SOL     OW78028   1.170   8.034   2.991 -0.0734  0.0281 -0.8825
24394SOL    HW178029   1.103   8.086   3.036 -0.3008 -2.0303  1.3528
24394SOL    HW278030   1.220   7.994   3.062  1.4937 -1.0239 -2.5168
24395SOL     OW78031   5.477   2.719   9.338 -0.5028 -0.4178 -0.0546
24395SOL    HW178032   5.521   2.689   9.418 -0.7720 -2.2643 -0.5575
24395SOL    HW278033   5.523   2.673   9.267  0.0825  1.5987 -1.0513
24396SOL     OW78034   0.025   3.311   5.463  0.1633 -0.0633 -0.1091
24396SOL    HW178035   0.021   3.217   5.478  2.1637 -0.2675 -0.5586
24396SOL    HW278036   0.102   3.340   5.514 -0.4330  1.3273  0.0412
24397SOL     OW78037   6.188   1.777   4.383  0.0526  0.0014  0.4054
24397SOL    HW178038   6.094   1.797   4.378 -0.3471 -1.7839  0.1030
24397SOL    HW278039   6.191   1.683   4.402  1.7786 -0.4039 -1.5685
24398SOL     OW78040   4.482   0.208   8.665  0.0367  0.2960  0.2424
24398SOL    HW178041   4.529   0.286   8.692  0.1363  0.7566 -1.1546
24398SOL    HW278042   4.445   0.231   8.579 -2.1672 -0.2680  0.9628
24399SOL     OW78043   8.967   7.475   0.995  0.5901  0.7188 -0.2176
24399SOL    HW178044   9.043   7.446   1.045  0.1120 -0.0195  0.0902
24399SOL    HW278045   8.976   7.432   0.910 -0.4053 -0.8510  0.4205
24400SOL     OW78046   6.164   9.032   0.540  0.4037 -0.2061 -0.0402
24400SOL    HW178047   6.214   9.040   0.458 -2.6198 -0.7810 -2.0822
24400SOL    HW278048   6.194   8.949   0.578  3.9056  1.3874  1.0884
24401SOL     OW78049   2.783   5.396   3.937 -0.1449 -0.0200 -0.1923
24401SOL    HW178050   2.864   5.382   3.986  0.7864 -1.1863 -1.9783
24401SOL    HW278051   2.812   5.429   3.852 -1.6661  1.0989 -0.3233
24402SOL     OW78052   9.703   5.252   3.866 -0.5433 -0.2148  0.3483
24402SOL    HW178053   9.631   5.284   3.811  0.1590  0.3236 -0.2825
24402SOL    HW278054   9.713   5.160   3.841 -0.4473 -0.0603 -0.1925
24403SOL     OW78055   1.799   2.674   9.727 -0.6826 -0.5346 -0.2333
24403SOL    HW178056   1.710   2.649   9.751 -1.7866  1.5013 -1.8346
24403SOL    HW278057   1.792   2.767   9.704  1.5511 -0.6653 -1.7586
24404SOL     OW78058   7.191   5.364   7.573  0.4704 -0.0162 -0.1901
24404SOL    HW178059   7.186   5.290   7.512  1.7233 -0.4355  0.1784
24404SOL    HW278060   7.275   5.405   7.554  1.0071 -0.3149  1.4118
24405SOL     OW78061   4.389   4.094   8.097 -0.0563 -0.4808 -0.1090
24405SOL    HW178062   4.301   4.126   8.075 -0.5590 -1.9353 -0.3200
24405SOL    HW278063   4.446   4.170   8.084 -1.0320  0.0301 -1.7307
24406SOL     OW78064   5.342   0.786   1.990  0.1580 -0.3483 -0.5340
24406SOL    HW178065   5.432   0.798   2.020 -0.2177 -0.9799  0.9371
24406SOL    HW278066   5.319   0.697   2.017 -1.4025  0.3330  0.5227
24407SOL     OW78067   7.426   8.786   2.787 -0.1134  0.2071 -0.3263
24407SOL    HW178068   7.361   8.718   2.803 -0.9603  0.7133 -1.5226
24407SOL    HW278069   7.376   8.861   2.756  0.8254  1.3433  0.7749
24408SOL     OW78070   5.464   0.654   1.374  0.1627 -0.1874 -0.2644
24408SOL    HW178071   5.406   0.616   1.308 -0.0436 -0.1354 -0.1129
24408SOL    HW278072   5.504   0.578   1.416  0.9700 -0.2118 -1.0405
24409SOL     OW78073   9.156   0.571   5.680 -0.0955 -0.3265 -0.0835
24409SOL    HW178074   9.197   0.512   5.744 -0.1303  2.5010  2.8433
24409SOL    HW278075   9.225   0.590   5.617  0.2680 -2.4563 -0.3964
24410SOL     OW78076   6.572   6.761   2.715 -0.0662  0.0503  0.7213
24410SOL    HW178077   6.579   6.666   2.704 -0.0115 -0.1055  1.9332
24410SOL    HW278078   6.482   6.775   2.745 -0.3808  0.4977 -0.3765
24411SOL     OW78079   8.216   1.570   0.442  0.2701 -0.1285 -0.0654
24411SOL    HW178080   8.189   1.534   0.358 -1.0057 -4.0984  1.7845
24411SOL    HW278081   8.152   1.638   0.461  0.4363  0.6685 -2.1133
24412SOL     OW78082   3.322   7.319   6.506  0.4161  0.3482  0.6084
24412SOL    HW178083   3.231   7.346   6.497 -0.0986 -1.2857  0.4954
24412SOL    HW278084   3.344   7.281   6.421  0.7375 -0.5063  1.0588
24413SOL     OW78085   2.590   0.871   4.107 -0.3723 -0.7977 -0.3820
24413SOL    HW178086   2.510   0.819   4.099 -0.6392 -0.5471  0.5046
24413SOL    HW278087   2.560   0.954   4.145  0.2106 -0.4419 -0.6958
24414SOL     OW78088   0.626   2.824   8.466 -0.0703 -0.3342 -0.2140
24414SOL    HW178089   0.673   2.850   8.546  0.8031  0.0826 -0.8498
24414SOL    HW278090   0.643   2.895   8.404 -2.1943  0.2210 -0.2268
24415SOL     OW78091   5.572   8.423   8.369  0.0548 -0.6049  0.4327
24415SOL    HW178092   5.477   8.418   8.354  0.1210 -0.6918  0.0213
24415SOL    HW278093   5.581   8.453   8.459 -0.3654 -2.9465  1.3349
24416SOL     OW78094   6.204   4.458   4.700  0.3078  0.3987  0.6961
24416SOL    HW178095   6.271   4.497   4.645 -1.1438 -0.6237 -1.9963
24416SOL    HW278096   6.123   4.468   4.650 -1.3036  0.2403  3.1221
24417SOL     OW78097   9.744   4.388   1.862  0.0648 -0.4390  0.2839
24417SOL    HW178098   9.667   4.440   1.840  0.6238  0.0665 -0.5503
24417SOL    HW278099   9.779   4.429   1.941  1.4600  1.6026 -1.2731
24418SOL     OW78100   9.418   7.372   1.996 -0.4227 -0.3361  0.0669
24418SOL    HW178101   9.482   7.419   1.942  0.0104  0.1181  0.9331
24418SOL    HW278102   9.333   7.394   1.958 -0.1495  0.2229 -0.2434
24419SOL     OW78103   0.607   9.585   7.724  0.4313  0.4623 -0.0270
24419SOL    HW178104   0.586   9.534   7.802  0.2146  2.0434  1.0129
24419SOL    HW278105   0.608   9.522   7.652  1.6399 -1.2336  1.3982
24420SOL     OW78106   3.582   8.618   2.733  0.3652 -0.6496  0.2764
24420SOL    HW178107   3.541   8.542   2.774 -0.0675  0.1437  1.3666
24420SOL    HW278108   3.556   8.692   2.788  2.3727  0.0494  0.3762
24421SOL     OW78109   4.116   7.147   6.474  0.6385  0.0168  0.5185
24421SOL    HW178110   4.111   7.224   6.417  2.1227  0.2462  0.6374
24421SOL    HW278111   4.103   7.073   6.416  4.0351  0.1253 -0.6055
24422SOL     OW78112   9.416   7.176   1.716 -0.0538 -0.6580  0.9623
24422SOL    HW178113   9.344   7.197   1.775 -0.3876  1.5933 -0.1557
24422SOL    HW278114   9.491   7.222   1.751 -0.0939  0.1378  0.0526
24423SOL     OW78115   3.776   7.824   5.249  0.2098  0.0773 -0.3642
24423SOL    HW178116   3.785   7.756   5.181  2.6864 -1.4822  1.3716
24423SOL    HW278117   3.705   7.792   5.305 -1.7150  1.2770 -1.9264
24424SOL     OW78118   8.437   2.957   2.640  0.5014  0.2130 -0.6950
24424SOL    HW178119   8.396   2.872   2.655 -0.0632  0.3932 -1.1642
24424SOL    HW278120   8.477   2.949   2.553 -0.6466  0.8229 -1.3075
24425SOL     OW78121   6.043   0.789   8.673 -0.0278  0.1036 -0.5843
24425SOL    HW178122   5.958   0.778   8.716 -0.2250 -0.6726 -1.1368
24425SOL    HW278123   6.082   0.701   8.674  1.3858  0.7022  0.8828
24426SOL     OW78124   9.008   1.277   6.546  0.1454  0.1253 -0.1048
24426SOL    HW178125   8.924   1.314   6.573 -0.8843 -2.5347  0.6430
24426SOL    HW278126   9.042   1.339   6.482 -1.5548  2.1463  0.8385
24427SOL     OW78127   5.728   0.976   9.143 -0.0034 -0.0315 -0.2058
24427SOL    HW178128   5.811   0.984   9.095  1.1185  0.2338  1.6836
24427SOL    HW278129   5.709   1.065   9.171  1.2625 -0.6027  2.7934
24428SOL     OW78130   4.451   8.107   4.695  0.5342 -0.4963 -0.0673
24428SOL    HW178131   4.451   8.184   4.638  0.4942  0.1373  0.7758
24428SOL    HW278132   4.542   8.097   4.721  0.4499 -0.4211  0.2508
24429SOL     OW78133   0.828   1.744   8.118 -0.3935  0.3142  0.1652
24429SOL    HW178134   0.897   1.750   8.053 -0.0815  1.2657  0.5699
24429SOL    HW278135   0.774   1.822   8.103 -0.8609  0.0467  0.4352
24430SOL     OW78136   4.617   9.109   3.855 -0.2476 -0.6885  0.0369
24430SOL    HW178137   4.609   9.146   3.767 -2.2977 -2.7730 -0.7776
24430SOL    HW278138   4.659   9.178   3.906  1.3149  0.4936 -2.6122
24431SOL     OW78139   8.968   0.529   2.289  0.0262 -0.3259  0.4640
24431SOL    HW178140   8.884   0.573   2.285  0.9045  1.3509 -1.7983
24431SOL    HW278141   8.993   0.516   2.197  3.3582  1.6347  0.9153
24432SOL     OW78142   3.472   6.917   5.989  0.0583  0.2142 -0.1412
24432SOL    HW178143   3.493   6.905   6.082  1.4950 -0.0591 -0.4783
24432SOL    HW278144   3.465   6.828   5.955 -0.6601  0.3140 -0.2586
24433SOL     OW78145   5.245   8.910   7.962 -0.0723  0.3731 -0.1999
24433SOL    HW178146   5.252   8.815   7.975 -0.3002  0.6858  3.0917
24433SOL    HW278147   5.305   8.929   7.890  0.0323 -2.2446 -0.9024
24434SOL     OW78148   7.317   3.622   6.298 -0.4382  0.3457  0.0882
24434SOL    HW178149   7.399   3.632   6.347 -0.8908  2.9438  0.4655
24434SOL    HW278150   7.336   3.660   6.212 -0.7255 -0.7608 -0.4721
24435SOL     OW78151   4.995   7.630   7.699  0.5854  0.3475 -0.1944
24435SOL    HW178152   4.907   7.615   7.734  0.6689  0.0361 -0.1154
24435SOL    HW278153   5.034   7.695   7.757 -0.3566  2.1481 -1.4668
24436SOL     OW78154   6.219   8.881   5.186  0.2499  0.0349  0.1539
24436SOL    HW178155   6.278   8.850   5.117  1.8018  1.4329  0.7980
24436SOL    HW278156   6.151   8.813   5.191  0.7234 -0.6740 -1.9285
24437SOL     OW78157   0.860   3.798   9.059  0.1791  0.4442 -0.2408
24437SOL    HW178158   0.883   3.705   9.058  0.2115  0.4196  0.9282
24437SOL    HW278159   0.765   3.800   9.050  0.0986  0.2491  0.5116
24438SOL     OW78160   0.771   9.300   2.279  0.1802  0.1011  0.0760
24438SOL    HW178161   0.852   9.250   2.294 -0.2451 -0.8404 -0.6883
24438SOL    HW278162   0.744   9.327   2.367  0.6523 -0.6477  0.4688
24439SOL     OW78163   6.581   4.880   3.816  0.0731  0.0713 -0.0322
24439SOL    HW178164   6.502   4.899   3.866  0.2730 -0.2206  0.4004
24439SOL    HW278165   6.573   4.788   3.793  0.8127 -0.2652  0.9839
24440SOL     OW78166   5.209   5.491   9.602  0.1743 -0.7269  0.1653
24440SOL    HW178167   5.169   5.455   9.681 -0.8205 -1.0194 -0.4523
24440SOL    HW278168   5.147   5.470   9.532 -0.2473  1.7746 -0.2969
24441SOL     OW78169   7.828   6.721   4.763  0.1144  0.0730 -0.2257
24441SOL    HW178170   7.810   6.643   4.816 -1.1115  0.0780 -0.5990
24441SOL    HW278171   7.918   6.709   4.732 -0.0150 -1.1381 -0.1706
24442SOL     OW78172   1.893   7.827   9.637  0.3469  0.8158  0.0895
24442SOL    HW178173   1.844   7.903   9.606 -1.0875 -0.1808 -0.1988
24442SOL    HW278174   1.883   7.829   9.732  1.8199  1.9362  0.2612
24443SOL     OW78175   1.753   0.972   5.514  0.3864  0.0104  0.4335
24443SOL    HW178176   1.718   0.976   5.425  0.9855 -1.2675  0.1140
24443SOL    HW278177   1.796   1.056   5.527  0.4237  0.1514 -0.5539
24444SOL     OW78178   8.759   8.852   5.027  0.5598 -0.4645  1.1591
24444SOL    HW178179   8.853   8.833   5.026  0.7212  0.2379 -0.6160
24444SOL    HW278180   8.718   8.773   4.992  0.4928 -0.7327  1.8382
24445SOL     OW78181   6.797   2.698   8.910 -0.4549  0.1031 -0.3116
24445SOL    HW178182   6.868   2.756   8.883  0.4610  0.4061  2.3936
24445SOL    HW278183   6.841   2.625   8.953 -1.6645  0.9306  2.6416
24446SOL     OW78184   1.122   5.137   0.398 -0.3242  0.0188  0.6728
24446SOL    HW178185   1.097   5.187   0.321  0.5251  0.5937  0.7692
24446SOL    HW278186   1.148   5.051   0.364 -1.1884 -0.1707  0.4561
24447SOL     OW78187   8.699   9.237   8.740 -0.5579 -0.0598  0.1049
24447SOL    HW178188   8.766   9.207   8.679 -0.1438  1.7461 -0.3983
24447SOL    HW278189   8.630   9.171   8.735  0.0622 -0.6408 -1.3054
24448SOL     OW78190   9.704   7.569   8.231  0.3071  0.0600  0.0675
24448SOL    HW178191   9.631   7.515   8.201  0.6216 -0.0973 -0.4281
24448SOL    HW278192   9.666   7.627   8.296  0.3561 -2.1434  2.1948
24449SOL     OW78193   0.458   3.263   3.538 -0.2200 -0.2092 -0.1583
24449SOL    HW178194   0.410   3.222   3.466 -0.1471  2.8331 -2.1222
24449SOL    HW278195   0.548   3.269   3.507 -0.3725  2.0253 -0.3688
24450SOL     OW78196   6.135   9.494   9.095  0.3551 -0.1394 -0.1000
24450SOL    HW178197   6.102   9.427   9.035 -2.8928  0.5573  0.7613
24450SOL    HW278198   6.100   9.470   9.180  1.8166  0.9318  0.8529
24451SOL     OW78199   0.307   3.166   2.070 -0.1361  0.3897  0.3029
24451SOL    HW178200   0.342   3.083   2.103 -1.1975 -0.0698  0.3352
24451SOL    HW278201   0.245   3.139   2.002 -1.5135  1.0811  1.2506
24452SOL     OW78202   1.618   4.439   4.052 -0.4545  0.5542  0.2358
24452SOL    HW178203   1.617   4.504   3.982 -1.5730 -1.7963 -2.1108
24452SOL    HW278204   1.704   4.397   4.045 -0.1887  0.9708  0.9482
24453SOL     OW78205   1.668   7.069   6.225 -0.4466  0.3539 -0.5380
24453SOL    HW178206   1.730   7.110   6.285  0.9149 -0.7777 -1.1205
24453SOL    HW278207   1.590   7.052   6.278  0.6070 -0.3338  0.8356
24454SOL     OW78208   2.306   7.357   8.105  0.2732  0.4410 -0.0665
24454SOL    HW178209   2.276   7.311   8.026 -1.8318 -0.1256  0.9933
24454SOL    HW278210   2.325   7.446   8.075  0.8178 -0.1042 -1.4458
24455SOL     OW78211   6.914   2.948   9.507 -0.3370 -0.4443 -0.0086
24455SOL    HW178212   6.927   2.876   9.446 -0.0911  0.3659 -0.9216
24455SOL    HW278213   6.991   3.004   9.496 -0.4271 -0.1336  0.8348
24456SOL     OW78214   7.996   9.451   4.625  0.0288  0.1057 -0.3649
24456SOL    HW178215   7.975   9.511   4.553 -2.1118 -2.4432 -2.0572
24456SOL    HW278216   8.083   9.477   4.653 -0.7570  3.9931 -0.8925
24457SOL     OW78217   4.844   7.529   4.713 -0.7963 -0.4893 -0.1153
24457SOL    HW178218   4.897   7.450   4.723 -1.1711 -0.6677  0.5708
24457SOL    HW278219   4.777   7.505   4.650 -1.2153 -0.8924  0.4747
24458SOL     OW78220   3.627   3.507   5.747  0.0757 -0.4484 -0.4237
24458SOL    HW178221   3.682   3.532   5.822 -1.9196 -0.3855  1.1103
24458SOL    HW278222   3.544   3.551   5.764  0.3917  2.0599 -4.2618
24459SOL     OW78223   1.709   7.579   9.194  0.0755 -0.2879 -0.2274
24459SOL    HW178224   1.714   7.586   9.289 -1.9741  1.1304 -0.1469
24459SOL    HW278225   1.719   7.669   9.163  0.7500 -0.7352 -1.3666
24460SOL     OW78226   0.696   6.197   8.471  0.4916 -0.1781  0.0306
24460SOL    HW178227   0.611   6.158   8.492  1.0087 -1.7709 -0.7410
24460SOL    HW278228   0.709   6.263   8.539 -1.9159  0.9761 -0.5237
24461SOL     OW78229   1.886   2.403   0.294  0.1036 -0.1524 -0.0606
24461SOL    HW178230   1.946   2.400   0.368 -0.6181  1.9778  0.6729
24461SOL    HW278231   1.799   2.406   0.333 -0.2628  1.8799 -0.9129
24462SOL     OW78232   6.007   0.796   9.582 -0.2649 -1.1605  0.2369
24462SOL    HW178233   6.095   0.781   9.616  1.2490 -0.0015 -2.7399
24462SOL    HW278234   5.967   0.710   9.579  1.3864 -1.9731  0.2366
24463SOL     OW78235   1.287   6.147   4.193 -0.0104 -0.0714  0.1051
24463SOL    HW178236   1.274   6.170   4.285 -2.7944  1.8260 -0.6352
24463SOL    HW278237   1.374   6.182   4.172 -0.7236  2.5739  1.1930
24464SOL     OW78238   8.384   5.364   5.817  0.1510 -0.4906 -0.1042
24464SOL    HW178239   8.420   5.328   5.735  0.3562 -1.4212  0.3754
24464SOL    HW278240   8.406   5.457   5.814 -0.9826 -0.2303 -1.6994
24465SOL     OW78241   9.260   4.021   6.831  0.0373 -0.4648 -0.3841
24465SOL    HW178242   9.338   3.997   6.881  0.1187 -3.7090 -1.7957
24465SOL    HW278243   9.188   4.016   6.895  0.7199  0.5072  0.4795
24466SOL     OW78244   1.846   0.039   9.282 -0.0053 -0.1611  0.8373
24466SOL    HW178245   1.769  -0.017   9.275  0.2548 -0.3308 -1.5447
24466SOL    HW278246   1.813   0.127   9.267 -0.1206  0.1257  2.6263
24467SOL     OW78247   9.715   6.553   4.432 -0.1272  0.3056 -0.3529
24467SOL    HW178248   9.677   6.607   4.363 -0.0864  1.3914  0.4386
24467SOL    HW278249   9.774   6.613   4.478  0.0878 -0.4899  0.4207
24468SOL     OW78250   1.219   2.239   6.403  0.2311 -0.1040 -0.1337
24468SOL    HW178251   1.208   2.292   6.482  2.9208  1.5934 -0.7615
24468SOL    HW278252   1.208   2.301   6.331  1.7087 -0.7259 -0.9487
24469SOL     OW78253   3.132   0.412   5.770 -0.4182  0.1532  0.4497
24469SOL    HW178254   3.177   0.460   5.700 -1.1144 -0.5658 -0.5162
24469SOL    HW278255   3.056   0.466   5.790 -0.1033  0.4688  0.8239
24470SOL     OW78256   5.656   7.217   5.684  0.5893  0.8761 -0.0798
24470SOL    HW178257   5.601   7.182   5.754  0.9003  1.6795  0.5897
24470SOL    HW278258   5.620   7.303   5.666 -0.0037  0.3466 -1.5227
24471SOL     OW78259   7.211   4.858   3.158 -0.4162 -0.0414  0.5320
24471SOL    HW178260   7.255   4.879   3.076 -0.1376 -0.7948  0.4903
24471SOL    HW278261   7.198   4.763   3.156  1.8503 -0.4775  2.4728
24472SOL     OW78262   9.376   6.228   5.328 -0.3082 -0.1365 -0.3992
24472SOL    HW178263   9.426   6.193   5.254 -0.2076 -0.2025 -0.2988
24472SOL    HW278264   9.396   6.322   5.327 -0.2025 -0.1584 -0.3745
24473SOL     OW78265   4.424   0.862   6.398  0.6113 -0.3907  0.1565
24473SOL    HW178266   4.359   0.932   6.408 -0.1934 -1.1287  0.2559
24473SOL    HW278267   4.394   0.813   6.321  2.0135  0.2484 -0.8377
24474SOL     OW78268   7.601   8.749   1.629  0.4386 -0.2430 -0.1592
24474SOL    HW178269   7.556   8.748   1.714 -0.6427  0.8658 -0.6894
24474SOL    HW278270   7.666   8.679   1.636  1.0332  0.4457  1.9269
24475SOL     OW78271   9.524   7.741   0.961  0.6331  0.7661  0.5522
24475SOL    HW178272   9.499   7.652   0.937  2.5319  0.3850 -0.1564
24475SOL    HW278273   9.540   7.785   0.878  2.1253  1.0234  0.9564
24476SOL     OW78274   5.402   2.099   8.692  0.0330  0.3518  0.5266
24476SOL    HW178275   5.392   2.028   8.629  0.3817  1.1453 -0.4601
24476SOL    HW278276   5.318   2.144   8.691  0.6540  1.5764 -0.9371
24477SOL     OW78277   2.216   8.392   1.893  0.0917 -0.6392 -0.4043
24477SOL    HW178278   2.283   8.458   1.915  1.0288 -0.9462 -2.1655
24477SOL    HW278279   2.166   8.432   1.822 -0.1318 -1.3389 -0.6428
24478SOL     OW78280   5.252   5.014   9.264 -0.2429  0.3046  0.2062
24478SOL    HW178281   5.285   4.978   9.181  0.8155  1.1698  0.2316
24478SOL    HW278282   5.243   5.107   9.247 -0.2347  0.4541  1.0062
24479SOL     OW78283   0.984   7.296   4.094  0.7054  0.9072 -0.3618
24479SOL    HW178284   1.029   7.220   4.130 -0.5110  0.6878  0.7520
24479SOL    HW278285   1.053   7.359   4.076  1.4048  0.8885  2.0375
24480SOL     OW78286   4.596   8.192   7.552  0.1498 -0.4409 -0.0469
24480SOL    HW178287   4.507   8.159   7.537  0.2224 -0.2745 -0.9025
24480SOL    HW278288   4.584   8.286   7.564  0.1759 -0.4659  0.1723
24481SOL     OW78289   4.856   8.891   2.506 -0.4133 -0.3197 -0.0310
24481SOL    HW178290   4.843   8.941   2.587  1.8715  0.4960 -0.1170
24481SOL    HW278291   4.782   8.830   2.504 -0.3024 -0.7070  2.9259
24482SOL     OW78292   3.821   0.941   4.165  0.5066  0.1952  0.0951
24482SOL    HW178293   3.890   1.001   4.192  1.4557  0.6564 -3.0177
24482SOL    HW278294   3.811   0.881   4.239  2.8464  1.3087  1.4104
24483SOL     OW78295   9.109   4.865   0.197  0.2875  0.0136  0.3203
24483SOL    HW178296   9.179   4.875   0.132  0.8449 -1.1774  0.7127
24483SOL    HW278297   9.086   4.955   0.221  1.8129  0.4347  0.3128
24484SOL     OW78298   5.344   5.596   2.818 -0.7166 -0.2517  0.1098
24484SOL    HW178299   5.283   5.665   2.846 -0.1711  0.2668  0.0454
24484SOL    HW278300   5.379   5.562   2.900  0.3383  0.7719  0.1068
24485SOL     OW78301   9.731   6.718   6.291  0.2228  0.3374  0.2652
24485SOL    HW178302   9.730   6.642   6.349  1.2901 -0.6797 -0.9875
24485SOL    HW278303   9.823   6.729   6.267 -0.0731  1.2985 -0.5028
24486SOL     OW78304   3.413   4.411   3.559 -0.5207 -0.4472 -0.7012
24486SOL    HW178305   3.475   4.480   3.536 -0.1433 -0.5847 -0.1473
24486SOL    HW278306   3.332   4.457   3.582 -0.0582 -0.1209  0.3667
24487SOL     OW78307   4.026   5.054   2.384 -0.2992 -0.4387  0.4584
24487SOL    HW178308   3.977   5.014   2.312  0.5541  0.0369 -0.4129
24487SOL    HW278309   3.960   5.103   2.434 -0.7250  0.2799 -0.7576
24488SOL     OW78310   2.408   8.167   0.605  0.0671 -0.5753 -0.6020
24488SOL    HW178311   2.488   8.126   0.638  0.6282  0.6621 -0.3311
24488SOL    HW278312   2.367   8.101   0.549  1.1821 -1.2944 -0.5884
24489SOL     OW78313   5.733   6.338   4.763  0.2540 -0.0690 -0.1367
24489SOL    HW178314   5.683   6.304   4.838  0.4523  1.7009  0.8495
24489SOL    HW278315   5.810   6.379   4.802  3.3123 -3.7178 -1.6491
24490SOL     OW78316   5.969   6.812   2.703  0.5642 -0.1152 -0.7723
24490SOL    HW178317   5.940   6.722   2.715  3.4107 -0.9252  0.8841
24490SOL    HW278318   6.005   6.837   2.788  0.8591  2.2172 -1.5185
24491SOL     OW78319   6.023   5.982   0.057 -0.3977  0.1624  0.3659
24491SOL    HW178320   6.102   5.972   0.109  0.6861  0.1608 -1.1869
24491SOL    HW278321   6.055   6.000  -0.032 -2.1201 -0.7618 -0.5037
24492SOL     OW78322   9.577   7.138   8.787 -0.0358 -0.2509  0.1816
24492SOL    HW178323   9.645   7.123   8.722 -1.0618 -2.4477 -0.4814
24492SOL    HW278324   9.621   7.129   8.872  1.3857  2.9843 -0.0929
24493SOL     OW78325   0.727   0.757   1.348  0.7125 -0.0929 -0.0290
24493SOL    HW178326   0.757   0.672   1.381  0.3376 -0.5771 -0.9042
24493SOL    HW278327   0.794   0.784   1.286  2.3925  1.7155  2.3953
24494SOL     OW78328   1.241   4.638   3.993  0.0179  0.7613 -0.4448
24494SOL    HW178329   1.306   4.663   3.927  0.1564  3.0782  0.4642
24494SOL    HW278330   1.166   4.608   3.942  1.1482 -0.3548 -1.5511
24495SOL     OW78331   3.202   1.783   3.349  0.3622  0.1012  0.4792
24495SOL    HW178332   3.149   1.741   3.281  1.0086  1.5980 -1.0155
24495SOL    HW278333   3.281   1.729   3.354  0.0451 -0.3673  0.4927
24496SOL     OW78334   2.647   2.583   8.974 -0.1001 -0.3180 -0.1769
24496SOL    HW178335   2.682   2.505   9.017 -0.6311 -1.5145 -1.8063
24496SOL    HW278336   2.563   2.599   9.017  1.2928  1.1826  2.1681
24497SOL     OW78337   6.136   0.180   5.842 -0.1308 -0.4062  0.4540
24497SOL    HW178338   6.118   0.233   5.919  1.6356  0.8481  0.0595
24497SOL    HW278339   6.231   0.179   5.835 -0.2186 -1.4235 -1.0864
24498SOL     OW78340   3.769   8.435   6.844  0.1363 -0.4337 -0.2279
24498SOL    HW178341   3.719   8.464   6.768 -1.4830  0.4358  1.0994
24498SOL    HW278342   3.724   8.356   6.874 -0.8956  0.6938  1.3371
24499SOL     OW78343   9.464   1.330   7.575 -0.4202 -0.0177  0.3665
24499SOL    HW178344   9.462   1.241   7.609 -1.0295  0.2674  1.0938
24499SOL    HW278345   9.537   1.372   7.620 -0.8986  0.2036  0.9527
24500SOL     OW78346   8.548   2.840   5.856  0.0552 -0.1806 -0.0281
24500SOL    HW178347   8.502   2.760   5.882 -0.0858  0.3542  1.4636
24500SOL    HW278348   8.637   2.812   5.838 -0.3034 -0.8730 -0.7760
24501SOL     OW78349   3.152   1.997   4.469 -0.7697 -0.1585  0.2105
24501SOL    HW178350   3.135   2.090   4.453 -0.1472  0.1605  1.3290
24501SOL    HW278351   3.065   1.957   4.477 -1.0279  0.5062  0.7262
24502SOL     OW78352   2.392   8.861   2.860 -0.1271 -0.2190  0.3043
24502SOL    HW178353   2.316   8.903   2.820 -0.1054  0.2284  0.7283
24502SOL    HW278354   2.372   8.858   2.953  0.0761 -0.7337  0.3357
24503SOL     OW78355   0.207   0.798   8.493 -0.6308 -0.7969  0.3924
24503SOL    HW178356   0.225   0.716   8.540  0.4873 -1.2286 -0.7354
24503SOL    HW278357   0.266   0.796   8.418  0.4011  1.6681  1.0344
24504SOL     OW78358   4.406   2.014   6.839  0.7907 -0.6046 -0.0192
24504SOL    HW178359   4.421   1.926   6.876 -1.5961 -0.6282  1.0599
24504SOL    HW278360   4.342   2.000   6.769  0.2194  0.3053  0.3131
24505SOL     OW78361   5.677   6.818   0.998  0.2973  0.0021 -0.2140
24505SOL    HW178362   5.652   6.775   1.080  0.5842 -0.1521 -0.2049
24505SOL    HW278363   5.771   6.804   0.991  0.3403  0.3562 -0.3752
24506SOL     OW78364   0.267   0.938   7.230  0.0073  0.6294  0.1850
24506SOL    HW178365   0.264   0.869   7.297  1.8519  0.1579 -0.1661
24506SOL    HW278366   0.208   0.906   7.161 -0.3159  0.1358  0.6786
24507SOL     OW78367   0.863   6.768   0.312 -0.0652  0.1170 -0.3896
24507SOL    HW178368   0.772   6.750   0.287 -1.1746  1.1989  2.3577
24507SOL    HW278369   0.902   6.682   0.325 -1.3771 -0.3954  0.3912
24508SOL     OW78370   0.435   2.533   2.437  0.2683 -0.2257  0.1830
24508SOL    HW178371   0.356   2.480   2.428 -0.7607  0.8186  2.3101
24508SOL    HW278372   0.414   2.615   2.392  0.9675 -0.7057 -1.0595
24509SOL     OW78373   3.527   5.957   4.713 -0.0815 -0.8772  0.1884
24509SOL    HW178374   3.572   6.029   4.756  1.4199 -2.1374  0.8236
24509SOL    HW278375   3.496   5.994   4.630  1.6498  0.2200 -0.0170
24510SOL     OW78376   8.323   3.141   1.885  0.3835  0.2684  0.5877
24510SOL    HW178377   8.414   3.112   1.887  0.3335  0.1132  0.5990
24510SOL    HW278378   8.295   3.140   1.977  0.0495 -0.6972  0.4878
24511SOL     OW78379   0.819   3.944   6.706 -0.4160 -0.2209  0.0738
24511SOL    HW178380   0.865   4.027   6.712 -0.2287 -0.1584 -1.5994
24511SOL    HW278381   0.729   3.969   6.682 -0.6166 -0.4559  0.5800
24512SOL     OW78382   2.302   3.455   1.266  0.0434  0.3373  0.2295
24512SOL    HW178383   2.392   3.488   1.261 -0.5397  2.0897  0.7745
24512SOL    HW278384   2.297   3.389   1.196  1.1539  1.7012 -1.2150
24513SOL     OW78385   4.434   8.224   6.461  0.1690  0.3963 -0.5543
24513SOL    HW178386   4.341   8.229   6.480 -0.2252  0.2928 -2.2603
24513SOL    HW278387   4.441   8.154   6.395  1.2733  1.2324 -1.3659
24514SOL     OW78388   1.385   8.987   0.684 -0.2349  0.2449 -0.2751
24514SOL    HW178389   1.344   8.901   0.676  0.4236 -0.0257 -0.9190
24514SOL    HW278390   1.320   9.048   0.649 -1.0809  0.1426  1.0434
24515SOL     OW78391   5.795   9.049   8.080 -0.3068 -0.4449 -0.0434
24515SOL    HW178392   5.800   8.959   8.049  1.5907 -0.2752 -0.3443
24515SOL    HW278393   5.767   9.100   8.004 -1.5554 -0.7847  0.1748
24516SOL     OW78394   5.192   7.619   3.379  0.3264  0.7682 -0.1988
24516SOL    HW178395   5.268   7.593   3.430 -0.5848 -1.1571  0.2733
24516SOL    HW278396   5.151   7.689   3.431  1.1576  1.0809  0.0592
24517SOL     OW78397   0.320   7.563   0.894  0.0915 -0.1360 -0.0268
24517SOL    HW178398   0.290   7.649   0.863  0.5421 -0.4587 -1.4149
24517SOL    HW278399   0.415   7.571   0.895  0.1072  0.2067  2.3831
24518SOL     OW78400   6.283   8.100   2.363 -0.5699 -0.2649  0.4566
24518SOL    HW178401   6.239   8.106   2.278  0.7388 -0.5835 -0.2884
24518SOL    HW278402   6.352   8.034   2.349  1.2966  1.4599  1.0044
24519SOL     OW78403   0.735   1.340   2.972 -0.3151 -0.6893  0.6806
24519SOL    HW178404   0.677   1.291   3.030 -1.0446 -2.2633 -1.2645
24519SOL    HW278405   0.803   1.276   2.947  1.0501  0.4928  1.2226
24520SOL     OW78406   0.155   4.503   2.094  0.3130 -0.5438 -0.3048
24520SOL    HW178407   0.194   4.524   2.179 -0.7970 -0.0563  0.0968
24520SOL    HW278408   0.201   4.560   2.032  1.2179 -0.9945 -0.0681
24521SOL     OW78409   6.508   1.476   3.348  0.2408  0.3726 -0.4189
24521SOL    HW178410   6.554   1.393   3.332 -0.2292 -0.4396  1.9941
24521SOL    HW278411   6.554   1.515   3.422 -0.4866  1.5584 -0.5654
24522SOL     OW78412   9.155   0.830   7.001 -0.0518  0.2691  0.6213
24522SOL    HW178413   9.228   0.777   7.032 -0.5183 -0.7299  0.0549
24522SOL    HW278414   9.194   0.914   6.978  0.5623  0.5489  2.4471
24523SOL     OW78415   4.961   9.082   9.474 -0.6430  0.1212  0.4399
24523SOL    HW178416   5.038   9.111   9.523 -1.5400  0.5899  1.6208
24523SOL    HW278417   4.936   9.158   9.421  1.1780 -0.8335 -1.9469
24524SOL     OW78418   0.237   0.083   5.328  0.5565  0.3208  0.1908
24524SOL    HW178419   0.147   0.058   5.309  0.1557  1.2122  0.8759
24524SOL    HW278420   0.269   0.016   5.388  0.8948 -0.8886 -1.2533
24525SOL     OW78421   6.809   7.142   3.881 -0.5632 -0.1269 -0.2173
24525SOL    HW178422   6.745   7.139   3.810  0.1329  1.3297 -0.9517
24525SOL    HW278423   6.811   7.234   3.907 -0.5212 -0.5705  1.4448
24526SOL     OW78424   7.903   5.508   6.057 -0.7323 -0.2396  0.1642
24526SOL    HW178425   7.932   5.467   5.976  0.3204 -1.3746  1.0774
24526SOL    HW278426   7.939   5.596   6.055 -0.0347 -0.5292 -0.2501
24527SOL     OW78427   0.363   2.604   5.521  0.1966 -0.1858 -0.1448
24527SOL    HW178428   0.312   2.652   5.586 -3.4306 -1.2179 -1.9789
24527SOL    HW278429   0.354   2.655   5.440  1.8264 -0.6308 -0.6629
24528SOL     OW78430   3.474   1.174   1.989 -0.1006  0.5077  0.9036
24528SOL    HW178431   3.412   1.221   1.933 -0.4259 -1.9907 -1.0380
24528SOL    HW278432   3.556   1.174   1.939  0.6256  1.1467  2.0462
24529SOL     OW78433   2.029   3.405   0.380 -0.3006  0.0570  0.1192
24529SOL    HW178434   2.016   3.441   0.293 -0.8916  0.4272  0.3541
24529SOL    HW278435   1.947   3.422   0.426 -0.4232 -1.2052  0.3811
24530SOL     OW78436   4.875   9.279   9.306  0.7054 -0.0330 -0.3738
24530SOL    HW178437   4.867   9.246   9.217 -0.2034 -0.1367 -0.2689
24530SOL    HW278438   4.789   9.318   9.325  1.3735  1.3577 -0.0851
24531SOL     OW78439   4.222   8.601   8.046 -0.4565  0.1100 -0.0381
24531SOL    HW178440   4.268   8.679   8.078  0.6664 -0.3419 -0.5075
24531SOL    HW278441   4.227   8.539   8.119 -0.3331  0.0649 -0.0849
24532SOL     OW78442   9.639   6.855   3.198 -0.3917 -0.2072  0.0708
24532SOL    HW178443   9.618   6.932   3.252 -1.2249 -1.3346  1.4111
24532SOL    HW278444   9.720   6.879   3.154  0.6922  0.5558  2.2994
24533SOL     OW78445   9.213   8.666   2.984  0.7896  0.4431 -0.3309
24533SOL    HW178446   9.274   8.592   2.977  2.0356  1.4286 -0.1956
24533SOL    HW278447   9.168   8.652   3.067 -2.4895 -2.6858 -2.3463
24534SOL     OW78448   2.847   4.297   3.631  0.3068 -0.2757  0.0230
24534SOL    HW178449   2.890   4.374   3.669 -1.1342  1.0598 -0.9448
24534SOL    HW278450   2.831   4.321   3.540  0.5010 -2.0423 -0.5169
24535SOL     OW78451   2.082   4.653   5.151 -0.1373  0.1256 -0.3196
24535SOL    HW178452   2.117   4.742   5.143  0.1575  0.0434  0.0487
24535SOL    HW278453   2.153   4.603   5.191  0.1616 -0.5599 -1.6624
24536SOL     OW78454   0.431   1.123   3.600 -0.4736 -0.6076 -0.2660
24536SOL    HW178455   0.387   1.089   3.678  0.3176 -0.3122  0.3200
24536SOL    HW278456   0.415   1.057   3.533 -0.3828 -1.3259  0.4001
24537SOL     OW78457   0.458   8.150   2.069 -0.3147  0.1452 -0.1838
24537SOL    HW178458   0.442   8.193   1.985 -0.9127  0.4420  0.0718
24537SOL    HW278459   0.370   8.140   2.107 -0.2326 -1.6140 -0.3881
24538SOL     OW78460   1.269   0.673   0.759  0.2536 -0.3502  0.0910
24538SOL    HW178461   1.361   0.697   0.749  0.3609 -0.8068 -0.0371
24538SOL    HW278462   1.259   0.652   0.851  0.2186 -0.0707  0.1531
24539SOL     OW78463   8.126   5.146   8.513  0.2911  0.1869  0.0673
24539SOL    HW178464   8.078   5.099   8.580 -0.8452  0.4121 -0.5559
24539SOL    HW278465   8.188   5.082   8.478  0.9794  0.1041  1.3772
24540SOL     OW78466   8.140   7.166   5.246  0.1090  0.4072  0.0410
24540SOL    HW178467   8.219   7.112   5.245  0.5826  0.8844  2.8387
24540SOL    HW278468   8.069   7.105   5.226  1.1227  0.0714 -3.0849
24541SOL     OW78469   1.407   9.126   5.035  0.8466  0.1789 -0.0090
24541SOL    HW178470   1.369   9.145   4.949  2.0356  0.8230 -0.4145
24541SOL    HW278471   1.428   9.033   5.032  0.0958  0.0040 -0.0863
24542SOL     OW78472   3.462   1.406   2.934 -0.0993 -0.2657  0.2265
24542SOL    HW178473   3.401   1.420   2.862  0.5032  2.0899  0.0988
24542SOL    HW278474   3.545   1.383   2.893 -0.0416 -0.0628  0.2299
24543SOL     OW78475   4.379   5.697   8.488 -0.0797  0.3159  0.4534
24543SOL    HW178476   4.468   5.665   8.472 -0.2815  0.7735 -2.0554
24543SOL    HW278477   4.381   5.787   8.454 -1.4245  0.4164  0.6180
24544SOL     OW78478   2.140   6.709   7.584  0.0011 -0.7975  0.2476
24544SOL    HW178479   2.203   6.715   7.655  0.0022 -3.3724  0.5490
24544SOL    HW278480   2.097   6.795   7.582  0.4148 -0.4584  2.9610
24545SOL     OW78481   7.685   1.450   5.149 -0.3892 -0.3352 -0.6285
24545SOL    HW178482   7.615   1.384   5.145 -0.0822 -0.8328  1.3237
24545SOL    HW278483   7.672   1.494   5.232  0.8909  0.4210 -0.8042
24546SOL     OW78484   1.447   6.639   4.594 -0.1669  0.0369 -0.0691
24546SOL    HW178485   1.512   6.572   4.572 -0.5927  0.3982 -2.7070
24546SOL    HW278486   1.467   6.712   4.535 -1.5869  1.0396  0.6428
24547SOL     OW78487   6.263   7.749   5.720  0.7729 -0.1380  0.0553
24547SOL    HW178488   6.355   7.764   5.742 -0.1186  2.1299  2.8795
24547SOL    HW278489   6.234   7.831   5.681 -0.5482  0.0846  1.3938
24548SOL     OW78490   9.688   6.185   8.273 -0.2017 -0.4837  0.3674
24548SOL    HW178491   9.697   6.277   8.298 -1.5716 -0.9568  3.0140
24548SOL    HW278492   9.593   6.171   8.267 -0.2109 -2.2743  2.8340
24549SOL     OW78493   4.005   8.341   3.270  0.2441  0.1045 -0.2229
24549SOL    HW178494   3.945   8.415   3.259  0.0356  0.0069  0.2329
24549SOL    HW278495   3.948   8.264   3.278  0.4719 -0.1594 -1.0562
24550SOL     OW78496   0.222   5.360   2.164 -0.1081 -0.1935  0.0364
24550SOL    HW178497   0.143   5.391   2.120 -0.4287  1.4964  1.6502
24550SOL    HW278498   0.289   5.424   2.142  0.5752 -1.0866 -0.5404
24551SOL     OW78499   6.917   5.951   8.333  0.3505  0.4441  0.1124
24551SOL    HW178500   6.926   6.046   8.343  0.0543  0.4977 -0.1095
24551SOL    HW278501   6.956   5.932   8.248  1.2662  0.2331  0.5697
24552SOL     OW78502   9.599   2.547   6.416 -0.3274  0.3702  0.2814
24552SOL    HW178503   9.667   2.495   6.372 -0.4856 -0.4606  1.0103
24552SOL    HW278504   9.517   2.504   6.393 -0.4015 -0.1840  1.5171
24553SOL     OW78505   7.320   7.369   8.422  0.2083 -0.0896  0.5623
24553SOL    HW178506   7.294   7.418   8.345 -1.5894  0.3717  1.4027
24553SOL    HW278507   7.340   7.436   8.488 -0.8582 -0.4430  1.2782
24554SOL     OW78508   6.926   7.557   6.453  0.1000  0.0125  0.2907
24554SOL    HW178509   6.887   7.603   6.528  1.5893 -0.7878  1.6276
24554SOL    HW278510   6.988   7.619   6.416 -1.2381  0.7220 -0.8777
24555SOL     OW78511   9.624   2.947   8.757 -0.5868 -0.2550 -0.4213
24555SOL    HW178512   9.624   2.877   8.692 -0.6216 -0.3606 -0.3087
24555SOL    HW278513   9.709   2.941   8.800  0.1011  0.8480 -1.5549
24556SOL     OW78514   6.346   0.523   8.078 -0.5184  0.0248  0.6148
24556SOL    HW178515   6.396   0.449   8.114 -1.9470 -0.5633  1.4709
24556SOL    HW278516   6.380   0.599   8.125 -0.0853 -0.2832  0.8170
24557SOL     OW78517   7.515   7.901   6.710 -0.4097 -0.2614 -0.2345
24557SOL    HW178518   7.606   7.872   6.715 -0.5437 -0.5252  0.9206
24557SOL    HW278519   7.468   7.827   6.673 -0.2557 -0.3702 -0.2143
24558SOL     OW78520   8.382   2.832   8.212  0.7427 -0.1815  0.4100
24558SOL    HW178521   8.399   2.917   8.173  2.1937 -1.2885 -1.6011
24558SOL    HW278522   8.467   2.804   8.247  0.7380 -1.4974 -0.5317
24559SOL     OW78523   4.116   6.711   3.287 -0.3276  0.1674 -0.2096
24559SOL    HW178524   4.060   6.722   3.210  0.0549  3.3274 -0.1702
24559SOL    HW278525   4.199   6.751   3.262  0.7357 -1.2584  0.9374
24560SOL     OW78526   0.489   1.321   8.093 -0.1906  0.6128  0.0969
24560SOL    HW178527   0.514   1.391   8.154 -0.6726 -0.8106  2.0411
24560SOL    HW278528   0.558   1.256   8.103 -1.5990 -0.8060  1.1855
24561SOL     OW78529   4.352   0.248   2.819 -0.1146 -0.9320  0.0380
24561SOL    HW178530   4.332   0.160   2.851 -2.9593 -0.1795  0.6028
24561SOL    HW278531   4.357   0.238   2.724  1.5016 -1.9810  0.1906
24562SOL     OW78532   1.570   4.053   2.729 -0.4251 -0.0288  0.1141
24562SOL    HW178533   1.486   4.046   2.683 -1.5021 -0.9244  2.0949
24562SOL    HW278534   1.602   4.141   2.707 -0.7588 -0.4592 -2.4279
24563SOL     OW78535   0.748   3.672   1.321  0.1831 -0.3764  0.0900
24563SOL    HW178536   0.747   3.700   1.230 -0.8522  0.4530  0.3251
24563SOL    HW278537   0.746   3.576   1.318 -0.9103 -0.3396 -0.7649
24564SOL     OW78538   4.552   5.145   1.347  0.6866  0.3807 -0.3261
24564SOL    HW178539   4.577   5.058   1.379 -0.6306 -0.6264 -1.8079
24564SOL    HW278540   4.466   5.160   1.386 -0.0674 -0.0033 -1.7654
24565SOL     OW78541   4.738   3.666   2.792 -0.0040 -0.0989 -0.3850
24565SOL    HW178542   4.694   3.751   2.798 -0.0411 -0.0886 -0.7929
24565SOL    HW278543   4.691   3.619   2.723 -0.4106 -0.7081  0.2941
24566SOL     OW78544   6.139   5.477   9.587  0.2977 -0.6132 -0.1443
24566SOL    HW178545   6.121   5.571   9.583  1.8558 -0.3433 -1.7954
24566SOL    HW278546   6.099   5.441   9.507 -0.2199 -1.3624  0.4331
24567SOL     OW78547   3.603   3.302   1.845 -0.5644  0.6145 -0.0618
24567SOL    HW178548   3.685   3.322   1.800  0.7725 -1.5338  1.1880
24567SOL    HW278549   3.629   3.241   1.914 -3.1774  0.2157  0.6672
24568SOL     OW78550   4.670   9.254   2.672  0.1410 -0.4721  0.4470
24568SOL    HW178551   4.585   9.224   2.640  0.1367  1.3081 -1.3910
24568SOL    HW278552   4.652   9.341   2.709  0.7963 -1.0235  2.1729
24569SOL     OW78553   7.185   3.182   7.983 -0.6915  0.0438 -0.3251
24569SOL    HW178554   7.139   3.265   7.991  0.6240  1.0200 -2.1294
24569SOL    HW278555   7.278   3.206   7.989 -0.2441 -1.8755  3.5654
24570SOL     OW78556   4.523   1.149   8.767 -0.3264 -0.0195 -0.0998
24570SOL    HW178557   4.604   1.107   8.797  0.0908 -0.3001 -1.5596
24570SOL    HW278558   4.482   1.181   8.848  2.3823  2.2346  0.5485
24571SOL     OW78559   8.374   3.490   8.138  0.0608 -0.1494 -0.3371
24571SOL    HW178560   8.315   3.558   8.107 -0.1736 -0.9378 -1.7040
24571SOL    HW278561   8.406   3.523   8.222 -0.2928  1.4852 -0.8001
24572SOL     OW78562   2.141   5.662   5.241 -0.2605 -0.2268  0.2852
24572SOL    HW178563   2.141   5.670   5.145  1.7717 -1.7978  0.0835
24572SOL    HW278564   2.182   5.577   5.258 -0.1775  0.2117  2.5765
24573SOL     OW78565   2.912   0.690   4.319 -0.3065 -0.0237 -0.1437
24573SOL    HW178566   2.824   0.675   4.284 -0.3742 -1.5005  0.5524
24573SOL    HW278567   2.964   0.618   4.283  0.2776  0.0585  0.5254
24574SOL     OW78568   0.084   8.611   5.349 -0.1556  0.0159  0.0908
24574SOL    HW178569   0.131   8.672   5.292 -0.3417 -1.0367 -1.2578
24574SOL    HW278570   0.134   8.529   5.342 -1.3517 -0.7075 -0.2226
24575SOL     OW78571   1.556   7.150   1.614  0.5900  0.3729 -0.3000
24575SOL    HW178572   1.643   7.164   1.652 -0.4692  0.7047  2.2400
24575SOL    HW278573   1.498   7.206   1.666 -1.5909 -2.1718  0.2112
24576SOL     OW78574   1.379   8.207   0.481  0.2134  0.1216 -0.0453
24576SOL    HW178575   1.457   8.205   0.537 -1.1335  0.4789  1.9208
24576SOL    HW278576   1.376   8.297   0.447  1.9738 -0.5420 -2.1754
24577SOL     OW78577   5.625   8.345   6.806  0.1987  0.2864  0.4310
24577SOL    HW178578   5.661   8.361   6.894  2.1743 -3.0224  0.3950
24577SOL    HW278579   5.555   8.281   6.821  0.4115 -0.1417 -0.3774
24578SOL     OW78580   5.505   8.833   3.786 -0.3950 -0.4528 -0.4282
24578SOL    HW178581   5.594   8.818   3.753  0.4031  0.4139  1.2404
24578SOL    HW278582   5.458   8.752   3.765  1.2151 -1.5592  0.0288
24579SOL     OW78583   3.273   8.330   1.820  0.2317  0.0679  0.1476
24579SOL    HW178584   3.310   8.244   1.803 -0.3812 -0.0827 -0.4437
24579SOL    HW278585   3.257   8.331   1.914 -0.1108 -0.6041  0.1011
24580SOL     OW78586   7.421   9.135   9.140  0.4246  0.2537  0.1000
24580SOL    HW178587   7.459   9.217   9.107  2.4953 -0.9952 -0.8891
24580SOL    HW278588   7.406   9.083   9.061 -1.4743 -0.1229  0.6616
24581SOL     OW78589   3.599   4.136   5.787  0.1828  0.1030 -0.0065
24581SOL    HW178590   3.654   4.208   5.758 -0.3868  0.4743 -0.1722
24581SOL    HW278591   3.540   4.119   5.714  1.0532 -1.2920 -0.4189
24582SOL     OW78592   3.677   4.464   7.037 -0.0557  0.0830 -0.7834
24582SOL    HW178593   3.716   4.468   7.124 -1.3729 -0.6698 -0.1321
24582SOL    HW278594   3.635   4.549   7.025 -1.7305 -0.5477  0.2551
24583SOL     OW78595   2.038   9.291   7.630 -0.8348 -0.3090  0.1691
24583SOL    HW178596   2.046   9.316   7.723 -2.9663  0.1253  0.2899
24583SOL    HW278597   2.085   9.208   7.624 -1.4249 -0.8232  1.8690
24584SOL     OW78598   1.751   8.160   8.844 -0.4799 -0.2769 -0.2220
24584SOL    HW178599   1.680   8.179   8.905  0.3757  2.0088  0.1774
24584SOL    HW278600   1.723   8.201   8.762  0.7823  1.7234  0.2553
24585SOL     OW78601   3.752   3.811   1.039  0.4608  0.3129  0.4906
24585SOL    HW178602   3.751   3.768   1.125 -1.6733 -1.1129 -0.1513
24585SOL    HW278603   3.704   3.893   1.052 -0.2266 -0.0951  0.6171
24586SOL     OW78604   0.152   7.993   8.119  0.1905  0.0878  0.3741
24586SOL    HW178605   0.068   8.037   8.134  0.5358  0.5344  1.0186
24586SOL    HW278606   0.165   7.998   8.025 -0.2950  0.4135  0.3206
24587SOL     OW78607   8.490   8.909   6.919 -0.1780  0.9230 -0.4761
24587SOL    HW178608   8.454   8.879   6.836 -0.9419 -0.6676  0.3796
24587SOL    HW278609   8.580   8.935   6.899 -0.1862  0.0680 -1.6877
24588SOL     OW78610   7.952   4.695   4.486  0.1189  1.1448  0.3492
24588SOL    HW178611   7.959   4.731   4.575  1.3273  0.6175  0.4935
24588SOL    HW278612   7.989   4.607   4.493  0.5772  1.2303 -0.7534
24589SOL     OW78613   4.777   9.350   0.255 -0.7380 -0.5699  0.2619
24589SOL    HW178614   4.715   9.324   0.323  0.1129 -1.5171  0.7022
24589SOL    HW278615   4.853   9.383   0.303 -1.8472  3.1344 -0.2711
24590SOL     OW78616   8.832   0.028   9.232  0.0647 -0.2094  0.1572
24590SOL    HW178617   8.903   0.092   9.220  0.0967 -0.1088  0.8524
24590SOL    HW278618   8.873  -0.045   9.278 -0.4131  0.0996  1.0880
24591SOL     OW78619   6.919   2.770   6.063  0.2913  0.0292  0.0200
24591SOL    HW178620   6.963   2.735   6.141  0.5520  1.1116  0.3804
24591SOL    HW278621   6.899   2.693   6.010  2.6565 -0.5402 -0.1872
24592SOL     OW78622   7.375   2.143   4.498  0.0432 -0.0714  0.2694
24592SOL    HW178623   7.346   2.212   4.557 -0.3720 -0.4137  0.4714
24592SOL    HW278624   7.298   2.088   4.485  0.2811 -0.3200 -0.1427
24593SOL     OW78625   2.861   5.624   6.079  0.6659  0.0982 -0.4903
24593SOL    HW178626   2.772   5.652   6.054 -0.2362  0.1845  2.4017
24593SOL    HW278627   2.865   5.532   6.054 -0.7779 -0.2631  0.4153
24594SOL     OW78628   8.710   2.268   5.856 -0.4149 -0.1962 -0.0454
24594SOL    HW178629   8.732   2.177   5.840 -1.5312 -0.7867  1.5058
24594SOL    HW278630   8.666   2.268   5.941  0.5555  1.9389  0.5539
24595SOL     OW78631   0.370   3.201   2.396 -0.3640 -0.3267  0.0959
24595SOL    HW178632   0.432   3.131   2.414  0.6775 -0.5189 -3.5334
24595SOL    HW278633   0.425   3.277   2.377 -1.2582 -0.0330 -1.4734
24596SOL     OW78634   7.516   9.651   6.142 -0.2570  0.2234  0.6756
24596SOL    HW178635   7.602   9.678   6.175 -0.7218  2.3708  0.2929
24596SOL    HW278636   7.520   9.671   6.048 -1.1551  0.3232  0.6520
24597SOL     OW78637   3.628   5.214   7.630  0.2770 -0.4087 -0.1586
24597SOL    HW178638   3.615   5.299   7.672  1.5428  0.0791 -0.7025
24597SOL    HW278639   3.595   5.151   7.694  2.6391  0.2577  1.8540
24598SOL     OW78640   1.052   0.830   3.766 -0.1080 -0.3542 -0.5040
24598SOL    HW178641   1.053   0.867   3.854 -0.9725 -2.5187  0.5072
24598SOL    HW278642   1.125   0.768   3.764  0.9148  0.8110 -1.9198
24599SOL     OW78643   0.645   9.004   5.775 -0.3069 -0.1338  0.1520
24599SOL    HW178644   0.613   8.939   5.838 -2.4714  2.1719  1.6435
24599SOL    HW278645   0.673   9.078   5.829  0.9892  0.6582 -1.5136
24600SOL     OW78646   8.358   8.901   7.290 -0.0435 -0.8388  0.1050
24600SOL    HW178647   8.341   8.870   7.201 -1.2200 -0.4703  0.1851
24600SOL    HW278648   8.445   8.867   7.311 -0.3564 -2.1696 -0.6349
24601SOL     OW78649   7.646   1.297   7.490 -0.6287 -0.1594  0.1740
24601SOL    HW178650   7.711   1.235   7.523 -1.0877 -1.3787 -1.1053
24601SOL    HW278651   7.617   1.259   7.407 -2.0947  0.9856  0.1263
24602SOL     OW78652   6.521   6.709   1.681  0.3516  0.0746  0.2624
24602SOL    HW178653   6.562   6.679   1.762  0.4457 -1.2656 -0.2521
24602SOL    HW278654   6.560   6.795   1.664  3.4563 -1.3588 -0.5020
24603SOL     OW78655   6.059   9.445   9.382  0.5868  0.2368 -0.3558
24603SOL    HW178656   5.982   9.452   9.439 -1.1643 -0.2539 -2.5031
24603SOL    HW278657   6.133   9.433   9.442 -1.1175 -0.2008  1.7825
24604SOL     OW78658   9.701   3.463   0.142 -0.5763  0.7341  0.1718
24604SOL    HW178659   9.654   3.409   0.206  0.3617  1.6325  1.6805
24604SOL    HW278660   9.736   3.536   0.194  1.3259  0.7999 -1.1301
24605SOL     OW78661   7.792   7.121   6.660  0.1281 -0.2130  0.2951
24605SOL    HW178662   7.765   7.031   6.641  0.4097 -0.4395  0.9425
24605SOL    HW278663   7.862   7.138   6.597  0.0367 -0.4251  0.1311
24606SOL     OW78664   9.519   7.992   9.501  0.3657  0.6426  0.3322
24606SOL    HW178665   9.568   7.954   9.574 -0.6612  0.5776  1.0207
24606SOL    HW278666   9.459   7.922   9.474 -0.0587  1.0496  0.1980
24607SOL     OW78667   9.218   9.596   0.242 -0.1828 -0.6881 -0.4814
24607SOL    HW178668   9.287   9.571   0.181 -0.1801  0.0994 -0.8204
24607SOL    HW278669   9.259   9.662   0.299 -0.9322  0.5942 -1.3773
24608SOL     OW78670   8.725   9.748   2.911 -0.1333  0.4989  0.3499
24608SOL    HW178671   8.764   9.827   2.874 -1.2808  1.4174  1.0362
24608SOL    HW278672   8.713   9.689   2.837 -0.0311  1.2910 -0.2995
24609SOL     OW78673   2.538   0.250   8.472 -0.6454 -0.0378  0.1302
24609SOL    HW178674   2.554   0.324   8.531  0.4214 -1.5270  1.8141
24609SOL    HW278675   2.598   0.181   8.503 -1.8772 -1.7490 -1.1051
24610SOL     OW78676   0.465   6.784   8.713 -0.1391  0.1003  0.5421
24610SOL    HW178677   0.451   6.876   8.736 -1.3291 -0.3462  1.7831
24610SOL    HW278678   0.411   6.771   8.635  1.2678  0.8133 -0.5813
24611SOL     OW78679   1.722   3.364   1.062 -0.4034  0.3726 -0.2337
24611SOL    HW178680   1.798   3.307   1.075 -0.6290  0.3284  1.0160
24611SOL    HW278681   1.700   3.353   0.969 -0.9392 -2.2234  0.1159
24612SOL     OW78682   8.952   0.196   7.254 -0.1436 -0.2050 -0.1222
24612SOL    HW178683   9.042   0.163   7.253 -0.1589 -0.2393 -0.5862
24612SOL    HW278684   8.956   0.277   7.203 -0.5930 -0.7955 -1.1196
24613SOL     OW78685   4.495   0.570   8.540 -0.3471 -0.4067 -0.3396
24613SOL    HW178686   4.477   0.485   8.500 -1.1983 -0.2476 -0.3078
24613SOL    HW278687   4.538   0.548   8.623  0.0065 -0.7818 -0.6189
24614SOL     OW78688   0.591   8.370   5.401 -0.3145  0.1836  0.3259
24614SOL    HW178689   0.685   8.388   5.400 -0.1385 -0.6133  1.1770
24614SOL    HW278690   0.584   8.277   5.425 -1.3031  0.0998 -0.2238
24615SOL     OW78691   9.399   7.890   2.740  0.5230  0.5305 -0.3813
24615SOL    HW178692   9.375   7.801   2.768 -1.0446  0.7422 -0.9458
24615SOL    HW278693   9.324   7.920   2.689  0.3263  2.7748  1.0889
24616SOL     OW78694   0.451   8.448   0.480 -0.1870  0.2177  0.1077
24616SOL    HW178695   0.496   8.533   0.472 -1.2191  0.6235 -1.9925
24616SOL    HW278696   0.362   8.465   0.451 -0.2947 -1.6900 -0.8145
24617SOL     OW78697   0.629   3.501   3.855 -0.1197  0.0111  0.2466
24617SOL    HW178698   0.645   3.414   3.818 -0.8623  0.8700 -2.3418
24617SOL    HW278699   0.713   3.526   3.894  0.8110 -0.9528 -1.0420
24618SOL     OW78700   7.579   0.043   7.483 -0.0359 -0.8426  0.0588
24618SOL    HW178701   7.534   0.100   7.422  1.7903  1.0836  0.3908
24618SOL    HW278702   7.596   0.097   7.560  0.9998 -2.0797  0.7600
24619SOL     OW78703   5.084   9.061   0.539 -0.0797 -0.4451  0.2527
24619SOL    HW178704   4.998   9.068   0.499 -1.7339 -2.5638  3.0622
24619SOL    HW278705   5.114   8.972   0.518  0.1525 -0.6813  1.4702
24620SOL     OW78706   0.893   9.539   5.458  0.1373  0.3116 -0.0014
24620SOL    HW178707   0.882   9.587   5.540  1.5909 -0.4354  0.6649
24620SOL    HW278708   0.897   9.607   5.391  0.9976  1.0794  0.7970
24621SOL     OW78709   1.309   1.965   6.089 -0.2789 -0.3811 -0.1230
24621SOL    HW178710   1.218   1.948   6.114  0.1046 -0.1520  1.5635
24621SOL    HW278711   1.342   1.880   6.061 -0.8059 -0.6254 -0.0214
24622SOL     OW78712   3.097   0.015   9.320 -0.5904 -0.0176  0.0007
24622SOL    HW178713   3.065   0.104   9.338 -0.0160  0.0950  0.5071
24622SOL    HW278714   3.182   0.028   9.279  0.5541 -0.3201  2.1112
24623SOL     OW78715   3.009   4.552   0.945  0.0820  0.0180  0.7562
24623SOL    HW178716   2.981   4.464   0.970 -0.1915 -0.2034 -0.3046
24623SOL    HW278717   2.960   4.610   1.003  0.0555 -0.5101  1.2748
24624SOL     OW78718   8.897   0.476   7.940  0.4055  0.2117 -0.1624
24624SOL    HW178719   8.933   0.527   7.868  2.0851  1.4609  1.4512
24624SOL    HW278720   8.871   0.541   8.005  2.8956 -0.8160  2.1082
24625SOL     OW78721   7.513   4.644   8.329 -0.2373  0.1817  0.5179
24625SOL    HW178722   7.465   4.681   8.255 -2.4575  0.2697  1.9076
24625SOL    HW278723   7.506   4.549   8.317 -0.9147  0.1925  0.7904
24626SOL     OW78724   7.286   4.656   7.011 -0.9584 -0.5074 -0.0670
24626SOL    HW178725   7.260   4.715   7.082 -0.6726  0.1610 -0.5125
24626SOL    HW278726   7.379   4.671   7.000 -1.3643  1.0455 -2.0599
24627SOL     OW78727   1.847   1.436   7.770 -0.0766  0.0256 -0.8405
24627SOL    HW178728   1.920   1.375   7.762  0.4738  0.6305 -0.5758
24627SOL    HW278729   1.889   1.523   7.772 -0.6383  0.2913  1.4689
24628SOL     OW78730   1.512   9.432   1.103 -0.3202 -0.0521  0.0271
24628SOL    HW178731   1.519   9.432   1.008  0.2075  3.5311 -0.0793
24628SOL    HW278732   1.418   9.439   1.121 -0.5890 -2.4343 -0.0615
24629SOL     OW78733   8.647   3.970   4.565  0.0780 -0.6263  0.6072
24629SOL    HW178734   8.553   3.991   4.565  0.1220 -0.3316 -0.9932
24629SOL    HW278735   8.653   3.890   4.513  0.7594 -0.4338  0.3893
24630SOL     OW78736   2.181   0.241   9.439  0.3714  0.6258  0.1115
24630SOL    HW178737   2.148   0.160   9.478 -0.1027 -0.4763 -2.3510
24630SOL    HW278738   2.224   0.287   9.511  0.9282 -1.9484  1.5469
24631SOL     OW78739   4.482   3.658   4.465  0.4289  0.0769  0.1839
24631SOL    HW178740   4.494   3.639   4.372  1.7900 -2.5153  0.8112
24631SOL    HW278741   4.565   3.634   4.506 -0.3910  0.4317  2.1848
24632SOL     OW78742   7.001   5.834   3.410  0.4639 -0.5365 -0.0345
24632SOL    HW178743   7.032   5.856   3.498  3.3192  0.3882 -1.1559
24632SOL    HW278744   7.015   5.740   3.403 -0.6896 -0.7981  0.7594
24633SOL     OW78745   7.019   7.033   1.132  0.0714 -0.4136 -0.1287
24633SOL    HW178746   7.061   6.991   1.207  3.9445  0.4000 -1.6411
24633SOL    HW278747   6.989   6.961   1.077  1.0573 -1.0949  0.2072
24634SOL     OW78748   5.480   3.195   6.506 -0.0026 -0.2932 -0.5594
24634SOL    HW178749   5.402   3.238   6.541  0.6602  0.1974  0.3620
24634SOL    HW278750   5.482   3.220   6.414 -1.0210 -0.4519 -0.6407
24635SOL     OW78751   0.326   1.018   3.831 -0.1472  0.3597 -0.1095
24635SOL    HW178752   0.407   1.028   3.881 -0.6747  1.7075  0.5325
24635SOL    HW278753   0.257   1.022   3.898 -0.7483 -1.1815 -0.5951
24636SOL     OW78754   5.185   0.342   5.633  0.1289 -0.2605  0.0263
24636SOL    HW178755   5.099   0.382   5.622 -0.3840 -1.1663  0.5913
24636SOL    HW278756   5.180   0.296   5.717  1.4179  0.2917  0.4290
24637SOL     OW78757   7.402   9.536   6.491 -0.5918  0.5773  0.0286
24637SOL    HW178758   7.334   9.531   6.558 -0.1323  1.4497  0.5873
24637SOL    HW278759   7.482   9.553   6.540 -0.0261 -0.0386 -0.6504
24638SOL     OW78760   3.967   2.104   1.385  0.4411  0.0876  0.1776
24638SOL    HW178761   3.929   2.020   1.359 -1.0506  0.7394  0.1519
24638SOL    HW278762   3.981   2.151   1.303 -2.3353  1.3320  0.3230
24639SOL     OW78763   4.949   7.175   6.164  0.1931  0.2731  0.3946
24639SOL    HW178764   4.868   7.220   6.186 -0.4450 -0.1764 -0.9378
24639SOL    HW278765   4.937   7.085   6.195 -0.1521  0.0021 -0.4884
24640SOL     OW78766   2.302   1.176   9.633  0.1772 -0.2507 -0.2410
24640SOL    HW178767   2.291   1.109   9.700  0.3778 -0.0844 -0.0387
24640SOL    HW278768   2.221   1.228   9.637  0.1596 -0.2833 -0.1742
24641SOL     OW78769   4.307   6.242   0.556  0.3520  0.3725  0.2195
24641SOL    HW178770   4.271   6.314   0.607 -1.5447 -1.0892  1.0967
24641SOL    HW278771   4.290   6.164   0.610  2.9870 -0.6973 -0.3213
24642SOL     OW78772   3.031   5.078   3.596  0.0393 -0.6348  0.7078
24642SOL    HW178773   3.067   5.163   3.569  0.6226 -1.7332 -2.3017
24642SOL    HW278774   3.063   5.067   3.686  0.0626  2.2271  1.1546
24643SOL     OW78775   0.138   0.838   5.037 -0.2233 -0.1424  0.6349
24643SOL    HW178776   0.086   0.883   4.970 -2.8522 -1.4014  1.6895
24643SOL    HW278777   0.183   0.908   5.084 -0.5880  0.9703 -0.6018
24644SOL     OW78778   1.054   3.550   1.914 -0.3994  0.6518 -0.1165
24644SOL    HW178779   1.067   3.468   1.867 -0.0115 -0.9930  2.6777
24644SOL    HW278780   1.126   3.607   1.885 -0.5263 -0.0365 -1.8873
24645SOL     OW78781   5.338   4.500   7.700 -0.4008  0.1316  0.3278
24645SOL    HW178782   5.283   4.561   7.650  0.1975 -0.1338 -0.6814
24645SOL    HW278783   5.288   4.418   7.700 -0.5220  0.2054  0.3863
24646SOL     OW78784   1.155   8.813   9.579  0.4431  0.0860  0.0040
24646SOL    HW178785   1.129   8.864   9.656  1.2642 -1.8176  1.6151
24646SOL    HW278786   1.114   8.728   9.591  1.0488 -0.4478 -1.4028
24647SOL     OW78787   9.509   2.313   8.157  0.0968  0.0399  0.0161
24647SOL    HW178788   9.588   2.260   8.163 -1.5679 -2.6762 -0.2565
24647SOL    HW278789   9.483   2.328   8.248  0.0411 -0.5013  0.0915
24648SOL     OW78790   5.488   8.770   5.353 -0.6326  0.1089  0.0337
24648SOL    HW178791   5.532   8.853   5.372 -1.5657  0.7320 -0.4511
24648SOL    HW278792   5.514   8.712   5.425 -1.6399  1.4601  1.5634
24649SOL     OW78793   6.132   2.917   0.905  0.1191 -0.2892 -0.5834
24649SOL    HW178794   6.173   2.928   0.991 -0.6205  0.5474 -0.3108
24649SOL    HW278795   6.196   2.953   0.843  0.4101 -0.3471 -0.3184
24650SOL     OW78796   4.999   1.389   4.554 -0.0426  0.2104  0.1958
24650SOL    HW178797   4.941   1.314   4.544  0.7262 -0.4883  0.7796
24650SOL    HW278798   5.021   1.415   4.465 -0.2256 -0.3406 -0.0132
24651SOL     OW78799   8.177   6.309   1.321 -0.0788  0.3288 -0.5195
24651SOL    HW178800   8.215   6.395   1.304  1.5379 -0.5004 -1.3163
24651SOL    HW278801   8.086   6.327   1.343  0.4008  2.2830  0.0025
24652SOL     OW78802   7.709   6.373   4.249 -0.1305 -0.1286 -0.3231
24652SOL    HW178803   7.656   6.453   4.256  0.5983  0.3437 -0.0086
24652SOL    HW278804   7.647   6.305   4.226 -0.9304  0.3437  0.3782
24653SOL     OW78805   6.140   1.405   6.445  0.2004  0.3583  0.2746
24653SOL    HW178806   6.232   1.425   6.460  0.2812 -0.0392  0.3188
24653SOL    HW278807   6.094   1.445   6.520  0.2878  0.9208  0.0329
24654SOL     OW78808   4.418   3.398   9.418 -0.1073 -0.7419  0.3248
24654SOL    HW178809   4.346   3.339   9.396 -0.6200  0.5114 -1.5381
24654SOL    HW278810   4.497   3.344   9.412 -0.5748 -1.2823 -1.1940
24655SOL     OW78811   2.780   5.895   8.599  0.1217 -0.0843 -0.0605
24655SOL    HW178812   2.837   5.822   8.575 -1.1678 -1.3078  0.4588
24655SOL    HW278813   2.804   5.916   8.689  0.4763  0.1391 -0.2034
24656SOL     OW78814   4.518   7.416   1.759 -0.9672  0.3147 -1.1185
24656SOL    HW178815   4.495   7.476   1.830 -1.2212  0.4024 -1.2735
24656SOL    HW278816   4.445   7.355   1.755  0.2404 -1.3200  0.4390
24657SOL     OW78817   4.768   6.723   0.925 -0.4784  0.2989  0.1283
24657SOL    HW178818   4.721   6.696   1.004 -1.7257  1.2808 -0.2438
24657SOL    HW278819   4.861   6.713   0.948 -0.8232 -1.7134  0.8795
24658SOL     OW78820   3.936   8.343   4.484  0.7719  0.0830 -0.2849
24658SOL    HW178821   3.865   8.387   4.438  1.0691  0.5372 -0.3167
24658SOL    HW278822   3.892   8.284   4.545  0.3032  1.9727  1.3258
24659SOL     OW78823   1.106   6.256   2.311 -0.1025 -0.5450  0.0102
24659SOL    HW178824   1.140   6.216   2.391  1.0915 -1.3994 -0.8779
24659SOL    HW278825   1.020   6.218   2.299  0.2368 -1.3906  0.2154
24660SOL     OW78826   0.217   8.853   3.724  0.0579 -0.0233 -0.3619
24660SOL    HW178827   0.291   8.845   3.784 -0.2564 -0.6023 -0.0464
24660SOL    HW278828   0.212   8.768   3.681 -0.1766  0.1481 -0.6775
24661SOL     OW78829   6.215   1.705   9.601 -0.0151  0.8590 -0.4735
24661SOL    HW178830   6.277   1.747   9.542 -0.9030  0.3672 -1.8231
24661SOL    HW278831   6.129   1.733   9.568 -0.5399  0.2074  0.3066
24662SOL     OW78832   2.612   9.432   5.595  0.9249  0.1807  0.6596
24662SOL    HW178833   2.688   9.487   5.576  0.6693  0.2334 -0.2767
24662SOL    HW278834   2.624   9.404   5.685  1.4051  1.2235  0.9316
24663SOL     OW78835   5.508   1.633   5.999  0.1518  0.2793 -0.0016
24663SOL    HW178836   5.506   1.608   6.091 -0.6233 -0.7085 -0.2726
24663SOL    HW278837   5.423   1.606   5.964  0.5118  0.4425 -1.0615
24664SOL     OW78838   4.825   4.943   3.696 -0.0442  0.3886  0.1426
24664SOL    HW178839   4.807   5.031   3.661 -1.8547 -0.7703 -2.1993
24664SOL    HW278840   4.886   4.904   3.633  2.3320  0.5197  2.2024
24665SOL     OW78841   3.867   6.281   7.198  0.3879  0.3532  0.3507
24665SOL    HW178842   3.955   6.249   7.216  1.3230  3.0872  1.1352
24665SOL    HW278843   3.853   6.261   7.105  2.0090  0.2428  0.0967
24666SOL     OW78844   6.604   8.750   8.291 -0.4466  0.0583 -0.4822
24666SOL    HW178845   6.549   8.678   8.321 -1.4451  0.9058 -0.2344
24666SOL    HW278846   6.665   8.765   8.363 -0.8158  0.0434 -0.1644
24667SOL     OW78847   9.108   2.985   5.847  0.4976 -0.1433 -0.1522
24667SOL    HW178848   9.195   2.974   5.886  0.2201 -0.0327  0.5024
24667SOL    HW278849   9.104   3.077   5.823 -0.2452  0.3728  1.8024
24668SOL     OW78850   3.851   5.512   4.298 -0.5020  0.1105  0.4394
24668SOL    HW178851   3.884   5.503   4.388  0.4268  1.6076  0.2907
24668SOL    HW278852   3.856   5.606   4.280 -0.1252 -0.2111 -1.3751
24669SOL     OW78853   3.077   2.831   9.726 -0.2164 -0.9692 -0.0307
24669SOL    HW178854   3.040   2.849   9.640  0.5335  1.6576  0.1200
24669SOL    HW278855   3.003   2.796   9.776 -1.1203 -0.7963 -1.1960
24670SOL     OW78856   9.177   2.584   2.741  0.2295 -0.0623  0.1680
24670SOL    HW178857   9.236   2.643   2.787  1.8306 -0.0737 -1.7267
24670SOL    HW278858   9.234   2.515   2.706 -0.6307  0.5318 -2.7221
24671SOL     OW78859   1.079   5.080   1.692  0.2348 -0.6961  0.0757
24671SOL    HW178860   1.043   5.081   1.603  2.8129 -2.4191 -1.1118
24671SOL    HW278861   1.172   5.101   1.680  0.9220 -2.2423  2.1932
24672SOL     OW78862   8.689   1.329   5.389 -0.3619  0.3546  0.4785
24672SOL    HW178863   8.723   1.379   5.462 -0.7277  1.6841 -0.2305
24672SOL    HW278864   8.628   1.388   5.345  0.1019 -0.2776 -1.1029
24673SOL     OW78865   2.988   2.911   1.509 -0.2783 -0.2474  0.4421
24673SOL    HW178866   2.909   2.931   1.458  0.3228  0.9066 -0.0714
24673SOL    HW278867   3.026   2.835   1.464 -0.5470 -0.1674  0.0748
24674SOL     OW78868   5.357   4.914   8.433  0.5900  0.8768  0.2579
24674SOL    HW178869   5.302   4.946   8.504  0.2954 -0.8199  0.8474
24674SOL    HW278870   5.446   4.937   8.460  0.5150 -0.0325  1.3752
24675SOL     OW78871   1.317   2.917   3.575 -0.3594  0.5219  0.1548
24675SOL    HW178872   1.237   2.966   3.595 -0.9782 -0.4359  0.0697
24675SOL    HW278873   1.286   2.835   3.536  0.5663 -0.7955  2.0361
24676SOL     OW78874   0.440   9.355   3.343  0.1753 -0.0900 -0.1094
24676SOL    HW178875   0.493   9.296   3.289  0.3226  0.0922 -0.1640
24676SOL    HW278876   0.350   9.337   3.315  0.2261 -0.2212 -0.1925
24677SOL     OW78877   5.622   2.677   2.522 -0.0500 -0.3907 -0.3970
24677SOL    HW178878   5.582   2.591   2.536  0.7741 -0.6955  0.1532
24677SOL    HW278879   5.550   2.738   2.535 -0.8947 -1.0311 -1.8696
24678SOL     OW78880   8.017   9.592   1.636  0.2656  0.0933  0.5262
24678SOL    HW178881   8.017   9.580   1.731  1.7078 -1.6990  0.3542
24678SOL    HW278882   8.068   9.518   1.602 -1.0652  0.1020 -1.7197
24679SOL     OW78883   4.506   0.703   3.305  0.1161  0.1179 -0.2815
24679SOL    HW178884   4.431   0.661   3.347  0.3156 -0.1256 -0.1624
24679SOL    HW278885   4.485   0.702   3.212  0.3097 -0.6509 -0.3307
24680SOL     OW78886   5.870   9.468   7.598 -0.1530  0.2379 -0.0085
24680SOL    HW178887   5.916   9.552   7.602 -1.0861  0.8056 -0.7202
24680SOL    HW278888   5.938   9.403   7.618  0.9308  1.0469 -0.8857
24681SOL     OW78889   5.248   2.692   3.842  0.4912 -0.2248 -1.2227
24681SOL    HW178890   5.199   2.729   3.915 -0.0251 -1.6220 -0.8337
24681SOL    HW278891   5.336   2.677   3.876  0.4064 -0.3428 -1.0547
24682SOL     OW78892   2.501   9.541   4.732  0.0779 -0.2295 -0.4867
24682SOL    HW178893   2.479   9.543   4.825  0.2012 -1.4512 -0.4158
24682SOL    HW278894   2.593   9.565   4.729 -0.2008  0.9332 -0.4181
24683SOL     OW78895   5.385   3.444   1.948 -0.0537  0.2700  0.2023
24683SOL    HW178896   5.421   3.531   1.929 -0.8028  0.5851  0.1935
24683SOL    HW278897   5.291   3.459   1.959 -0.0316 -0.3555  1.3931
24684SOL     OW78898   1.729   3.386   3.257 -0.3816  0.2731  0.1635
24684SOL    HW178899   1.798   3.405   3.194  0.9788 -1.3207  1.0935
24684SOL    HW278900   1.666   3.332   3.209 -0.7018  1.2319 -0.5217
24685SOL     OW78901   1.620   4.934   0.780 -0.1918  0.3739 -0.0836
24685SOL    HW178902   1.571   4.925   0.861  1.0730  0.0882  0.6749
24685SOL    HW278903   1.602   4.853   0.732  3.1718 -2.1142  2.2971
24686SOL     OW78904   5.292   2.353   1.146  0.4076  0.1683 -0.2671
24686SOL    HW178905   5.211   2.304   1.157  0.5007  0.2065  0.6598
24686SOL    HW278906   5.289   2.419   1.215  1.6467 -0.3956  0.3473
24687SOL     OW78907   2.715   7.029   1.763 -0.2987 -0.3038 -0.2247
24687SOL    HW178908   2.636   7.064   1.806 -0.4241 -0.0013 -0.6897
24687SOL    HW278909   2.741   6.955   1.818  0.1207  0.6705  0.9302
24688SOL     OW78910   5.720   3.763   0.740  0.4249 -0.0240  0.1496
24688SOL    HW178911   5.634   3.722   0.732 -1.8124  4.0495  0.4220
24688SOL    HW278912   5.744   3.788   0.651  0.6054  0.1759  0.2523
24689SOL     OW78913   3.836   3.848   2.348  0.8994  0.2313 -0.1939
24689SOL    HW178914   3.828   3.810   2.435  2.1300  0.3600 -0.0045
24689SOL    HW278915   3.917   3.899   2.351  1.2843 -0.2437 -1.5777
24690SOL     OW78916   5.558   8.190   4.340 -0.2463  0.4133  0.3510
24690SOL    HW178917   5.472   8.224   4.314 -1.0900 -1.7448  0.1712
24690SOL    HW278918   5.567   8.217   4.432 -1.2167  0.4904  0.4320
24691SOL     OW78919   6.080   3.112   6.299  0.3035 -0.1143  0.3457
24691SOL    HW178920   6.075   3.040   6.361 -0.8663 -0.5275 -0.1944
24691SOL    HW278921   6.126   3.075   6.223 -0.3537 -0.3190  0.0433
24692SOL     OW78922   5.384   3.462   9.709  0.4648 -0.5537 -0.2502
24692SOL    HW178923   5.433   3.444   9.790  1.7815  0.8473 -0.6844
24692SOL    HW278924   5.301   3.497   9.739  0.4731 -1.1504  0.5067
24693SOL     OW78925   1.512   6.397   5.061  0.2786 -0.6433  0.4597
24693SOL    HW178926   1.517   6.426   5.152 -1.7131 -0.8865  0.6815
24693SOL    HW278927   1.425   6.358   5.052  0.2854 -0.3098 -1.6447
24694SOL     OW78928   2.901   4.153   4.312 -0.0697  0.0981  0.5348
24694SOL    HW178929   2.996   4.161   4.306  0.3056 -2.6730  1.1872
24694SOL    HW278930   2.872   4.151   4.221  0.3847  1.6395  0.3346
24695SOL     OW78931   6.731   3.987   1.906  0.2699  0.5701  0.3258
24695SOL    HW178932   6.642   4.021   1.916  0.1867  0.4129  0.1198
24695SOL    HW278933   6.741   3.972   1.812  0.4081  0.3001  0.3820
24696SOL     OW78934   5.256   0.962   8.821  0.5021  0.0033 -0.0410
24696SOL    HW178935   5.318   0.962   8.894 -1.2988 -0.1057  1.5985
24696SOL    HW278936   5.175   0.927   8.860  0.0636 -2.2549 -2.6565
24697SOL     OW78937   1.046   3.602   4.121 -0.4259  0.2029  0.3179
24697SOL    HW178938   1.115   3.661   4.092 -1.4133  0.3726 -1.9430
24697SOL    HW278939   1.091   3.536   4.173  1.2442  0.9705 -0.0809
24698SOL     OW78940   0.066   0.401   7.130  0.1868 -0.6546 -0.0099
24698SOL    HW178941   0.054   0.486   7.172  0.6102 -0.1140 -0.9523
24698SOL    HW278942   0.002   0.399   7.060 -0.5367 -1.5637  0.6468
24699SOL     OW78943   3.853   9.482   2.263 -0.1886 -0.1038  0.0914
24699SOL    HW178944   3.835   9.390   2.284 -0.5553  0.3972  2.2370
24699SOL    HW278945   3.939   9.499   2.302 -1.2331  1.0786  2.1081
24700SOL     OW78946   1.917   6.826   4.268 -0.0033  0.3254 -0.4146
24700SOL    HW178947   1.937   6.907   4.221 -1.0353  0.6415 -0.3271
24700SOL    HW278948   1.887   6.765   4.200 -1.3087  0.7213 -0.2227
24701SOL     OW78949   9.131   3.967   0.989 -0.5932  0.1975 -0.4922
24701SOL    HW178950   9.190   3.936   1.058  1.2946  1.2651 -1.5771
24701SOL    HW278951   9.077   3.890   0.969  1.4534 -1.3170 -0.5306
24702SOL     OW78952   6.781   7.856   8.436 -0.1050 -0.0200 -0.4596
24702SOL    HW178953   6.872   7.868   8.462  0.0128  1.6041 -1.4542
24702SOL    HW278954   6.732   7.919   8.489 -0.3242  0.6823 -1.4500
24703SOL     OW78955   6.230   6.904   7.644  0.1668  0.5686  0.0310
24703SOL    HW178956   6.147   6.904   7.597  0.5071  1.5743 -0.5900
24703SOL    HW278957   6.285   6.842   7.595 -0.4143 -0.6559  0.8594
24704SOL     OW78958   8.231   7.614   5.484  0.4087 -0.3921 -0.2510
24704SOL    HW178959   8.198   7.548   5.545  1.9772  0.2466  1.3811
24704SOL    HW278960   8.213   7.577   5.398 -2.2277 -1.1663  0.5252
24705SOL     OW78961   1.960   2.556   6.250  0.3042  0.0349 -0.4801
24705SOL    HW178962   1.999   2.534   6.335  0.2740  2.0866  0.1271
24705SOL    HW278963   1.871   2.583   6.271 -0.1294 -0.6753 -1.3481
24706SOL     OW78964   0.078   4.024   8.081  0.4033 -0.2174 -0.2229
24706SOL    HW178965   0.164   3.984   8.079  1.6489  2.0028  2.2639
24706SOL    HW278966   0.095   4.118   8.072 -1.6600  0.3344  0.9056
24707SOL     OW78967   7.273   0.464   8.468  0.5437 -0.1856 -0.7020
24707SOL    HW178968   7.278   0.512   8.550  1.9033  0.0411 -0.9033
24707SOL    HW278969   7.358   0.421   8.459 -0.1863 -1.6245 -1.1564
24708SOL     OW78970   6.033   4.485   3.610  0.0752  0.5211  0.0414
24708SOL    HW178971   5.948   4.494   3.652 -0.3413 -2.1059 -0.1050
24708SOL    HW278972   6.083   4.428   3.669  0.8625  0.0160 -1.0910
24709SOL     OW78973   1.394   3.134   1.533  0.0756 -0.2351  0.4928
24709SOL    HW178974   1.486   3.121   1.552  0.4252  0.2521 -0.7292
24709SOL    HW278975   1.389   3.225   1.501 -0.5675 -0.6936 -0.7939
24710SOL     OW78976   0.980   4.138   4.300  0.4506  0.8141 -0.0893
24710SOL    HW178977   0.981   4.085   4.380  1.9088  0.9994  0.0346
24710SOL    HW278978   0.954   4.225   4.329 -0.1867  0.6050 -0.0140
24711SOL     OW78979   6.336   7.970   3.808 -0.0791  0.0162 -0.3370
24711SOL    HW178980   6.378   7.937   3.729  0.0124  2.1326 -1.2385
24711SOL    HW278981   6.328   7.893   3.865  0.6843 -1.3728 -2.0183
24712SOL     OW78982   8.204   6.400   0.240  0.9201  0.7372 -0.3681
24712SOL    HW178983   8.245   6.428   0.322  0.9974 -2.5451  0.8503
24712SOL    HW278984   8.276   6.397   0.177  1.6290 -0.2728  0.4622
24713SOL     OW78985   6.488   2.361   1.875 -0.1764 -0.2239 -0.3302
24713SOL    HW178986   6.408   2.326   1.915  1.4799 -0.9943  2.5876
24713SOL    HW278987   6.524   2.287   1.826 -0.9623  0.0074 -1.3094
24714SOL     OW78988   4.737   7.011   3.780 -0.4446 -0.9674  0.1572
24714SOL    HW178989   4.654   7.051   3.802 -0.6624 -0.7040 -1.0701
24714SOL    HW278990   4.763   7.051   3.697  0.4575 -1.6998  0.0556
24715SOL     OW78991   3.247   2.326   7.111 -0.4399 -0.0887 -0.7567
24715SOL    HW178992   3.254   2.255   7.174 -0.4033 -1.4711 -2.2658
24715SOL    HW278993   3.156   2.326   7.084 -0.8644  1.6083  0.4683
24716SOL     OW78994   0.099   2.568   0.257  1.0518 -0.2567 -0.2331
24716SOL    HW178995   0.041   2.541   0.186  1.5891 -0.7544 -0.4933
24716SOL    HW278996   0.148   2.489   0.279  0.3343 -0.3341  1.2547
24717SOL     OW78997   8.554   3.943   7.300 -0.1550  0.2590  0.6336
24717SOL    HW178998   8.558   3.854   7.264  0.8321  0.3074  0.6089
24717SOL    HW278999   8.464   3.951   7.334  0.0022 -1.0619  1.4384
24718SOL     OW79000   7.908   4.632   4.050  0.1763  0.6868  0.0581
24718SOL    HW179001   7.988   4.590   4.020  0.6111  0.8274  0.9918
24718SOL    HW279002   7.838   4.584   4.005  0.7379  0.0001 -0.1025
24719SOL     OW79003   8.667   8.228   6.919  0.1750 -0.2603  0.3757
24719SOL    HW179004   8.660   8.152   6.977  0.2898 -0.8348 -0.3485
24719SOL    HW279005   8.752   8.219   6.878  0.8013  1.0238  1.2997
24720SOL     OW79006   7.252   7.631   6.057 -0.1406  0.4278  0.3048
24720SOL    HW179007   7.280   7.668   5.973 -0.9524  0.1230 -0.1091
24720SOL    HW279008   7.333   7.601   6.098  0.3217  1.0515 -0.1398
24721SOL     OW79009   0.369   2.893   6.956 -0.0468  0.3867  0.0250
24721SOL    HW179010   0.285   2.861   6.988  0.5897 -1.3819  0.0151
24721SOL    HW279011   0.353   2.916   6.864 -0.1337 -1.6376 -0.5055
24722SOL     OW79012   7.454   9.602   4.985 -0.3169  0.2075  0.3442
24722SOL    HW179013   7.512   9.642   5.049 -0.6367  0.9446  0.1794
24722SOL    HW279014   7.501   9.524   4.955  0.4111  0.5880  0.4919
24723SOL     OW79015   3.237   4.389   9.674 -0.1040 -0.1088  0.0658
24723SOL    HW179016   3.171   4.319   9.670  1.1325 -1.2767 -1.1439
24723SOL    HW279017   3.283   4.382   9.590  2.4198 -0.2239  1.3749
24724SOL     OW79018   9.593   8.848   7.531  0.2208  0.4828  0.9845
24724SOL    HW179019   9.589   8.925   7.474 -2.0205  1.8996  2.8733
24724SOL    HW279020   9.517   8.796   7.506  0.4468  0.0264  1.2355
24725SOL     OW79021   5.373   0.518   5.053  0.0986 -0.3028  0.5837
24725SOL    HW179022   5.358   0.576   4.979 -0.2101  1.7502  2.1565
24725SOL    HW279023   5.465   0.493   5.045  0.5815  1.3476  0.4380
24726SOL     OW79024   8.836   0.872   2.150  0.3332  0.6969  0.1148
24726SOL    HW179025   8.915   0.855   2.099  1.3433  0.1967  1.7559
24726SOL    HW279026   8.797   0.786   2.165  1.7451  0.4073  2.7008
24727SOL     OW79027   8.166   9.178   8.343 -0.1652 -0.3516  0.1799
24727SOL    HW179028   8.119   9.260   8.330 -0.2873 -0.4455  0.0257
24727SOL    HW279029   8.257   9.205   8.356 -0.2091 -0.1915  0.1600
24728SOL     OW79030   2.744   2.469   7.143 -0.5345  0.1130  0.0762
24728SOL    HW179031   2.727   2.383   7.105 -0.7683 -0.6285  1.7565
24728SOL    HW279032   2.657   2.502   7.166 -0.6939  1.8743 -2.6150
24729SOL     OW79033   0.656   0.998   1.511  0.3191  0.0540 -0.6376
24729SOL    HW179034   0.675   1.078   1.463 -1.0400  0.7118 -0.1362
24729SOL    HW279035   0.681   0.928   1.452  1.4080  0.8389 -1.1388
24730SOL     OW79036   1.711   8.952   5.344 -0.6513 -0.3749  0.7999
24730SOL    HW179037   1.642   8.886   5.351 -0.6698 -1.1841 -3.8862
24730SOL    HW279038   1.668   9.028   5.305  0.6935 -0.2530 -0.5478
24731SOL     OW79039   8.610   8.622   7.876  0.1196  0.4615 -0.9290
24731SOL    HW179040   8.590   8.534   7.907  1.6747  0.1815 -0.6102
24731SOL    HW279041   8.528   8.655   7.841 -1.0850 -0.1942  1.1358
24732SOL     OW79042   2.559   1.358   0.626  0.4429  0.1141  0.0795
24732SOL    HW179043   2.473   1.395   0.646  0.5863  0.3484  0.2680
24732SOL    HW279044   2.553   1.267   0.654 -0.2898 -0.3394 -1.4369
24733SOL     OW79045   4.571   4.720   5.573  0.0174  0.1184 -0.0279
24733SOL    HW179046   4.559   4.778   5.499 -3.3025 -2.4056 -1.7762
24733SOL    HW279047   4.491   4.731   5.626  0.3080 -1.2387  0.7575
24734SOL     OW79048   3.078   7.898   6.261 -0.0731 -0.9722  0.2720
24734SOL    HW179049   3.023   7.941   6.327  0.6334 -1.7979  1.4383
24734SOL    HW279050   3.072   7.805   6.281 -0.5088 -1.3272 -1.3808
24735SOL     OW79051   7.878   9.047   6.975 -0.1899 -0.1375 -0.1752
24735SOL    HW179052   7.805   9.093   6.935 -0.0932  0.6538  0.5136
24735SOL    HW279053   7.893   9.094   7.058  2.4590  1.1346 -1.2546
24736SOL     OW79054   4.641   7.963   7.735  0.6027  0.0218  0.0736
24736SOL    HW179055   4.724   7.917   7.750  1.5336  1.3905 -0.6334
24736SOL    HW279056   4.651   8.046   7.782 -1.0615 -0.4484  1.3733
24737SOL     OW79057   1.463   8.668   6.230  0.0781  0.2659 -0.1235
24737SOL    HW179058   1.489   8.618   6.152  0.0727  0.8551 -0.5128
24737SOL    HW279059   1.395   8.615   6.271  0.5159 -0.3539 -0.1755
24738SOL     OW79060   2.324   3.044   3.588  0.1552  0.1185 -0.3495
24738SOL    HW179061   2.403   3.085   3.552  0.4372  0.7865  0.9576
24738SOL    HW279062   2.288   2.993   3.515  1.3438  0.4498 -1.2044
24739SOL     OW79063   1.472   2.167   9.504 -0.1476  0.5056 -0.6491
24739SOL    HW179064   1.509   2.148   9.591  1.8275 -1.8349 -1.8592
24739SOL    HW279065   1.378   2.153   9.515 -0.1475  1.6278  1.3964
24740SOL     OW79066   3.162   4.764   1.772 -0.2234 -1.1790  0.1383
24740SOL    HW179067   3.129   4.832   1.830  0.3746 -0.7115 -0.0525
24740SOL    HW279068   3.191   4.694   1.831  0.8963 -0.4789  0.4533
24741SOL     OW79069   1.701   7.335   5.138 -0.1760 -0.5805 -0.5627
24741SOL    HW179070   1.667   7.247   5.118  1.0596 -1.0512 -0.7022
24741SOL    HW279071   1.705   7.338   5.233  1.5288 -1.4163 -0.5663
24742SOL     OW79072   5.867   7.066   0.093  0.2241 -0.2702  0.5219
24742SOL    HW179073   5.876   7.131   0.024  0.0846  0.2931  1.0180
24742SOL    HW279074   5.837   7.116   0.169  1.2043 -0.7290  1.2337
24743SOL     OW79075   4.571   2.090   4.494 -0.0175 -0.2950 -0.1460
24743SOL    HW179076   4.562   2.020   4.559 -0.0546  0.9489  1.2453
24743SOL    HW279077   4.513   2.160   4.525  3.3726  2.2083  1.1332
24744SOL     OW79078   9.144   6.630   2.513  0.2050 -0.0539 -0.0947
24744SOL    HW179079   9.192   6.670   2.440 -0.8452  0.0587 -0.7357
24744SOL    HW279080   9.143   6.699   2.580 -0.8139  0.7144 -0.8567
24745SOL     OW79081   9.372   0.190   2.189  0.1265  0.1720  0.1631
24745SOL    HW179082   9.387   0.276   2.228 -0.8285  1.0975 -1.4264
24745SOL    HW279083   9.277   0.183   2.180  0.1522 -1.2841  0.7300
24746SOL     OW79084   6.992   4.668   6.270 -0.8433 -0.0390  0.0233
24746SOL    HW179085   6.943   4.750   6.269  0.2716  0.6463 -0.1838
24746SOL    HW279086   7.046   4.673   6.349  0.0103 -0.0869 -0.5445
24747SOL     OW79087   0.121   8.904   5.300 -0.3643  0.0598 -0.7870
24747SOL    HW179088   0.160   8.991   5.286  2.4212 -1.0402 -0.4672
24747SOL    HW279089   0.033   8.911   5.263  0.0194  2.8042 -1.4031
24748SOL     OW79090   1.090   9.045   5.666  0.3205 -0.3883  0.4013
24748SOL    HW179091   1.099   9.135   5.697  1.7075 -0.7522  1.1221
24748SOL    HW279092   1.168   9.030   5.613  0.2508 -1.2574  0.5320
24749SOL     OW79093   3.996   3.978   9.422  0.1811 -0.0656  0.1274
24749SOL    HW179094   3.905   3.971   9.450  0.4276 -0.6080  0.8226
24749SOL    HW279095   3.995   3.952   9.330 -0.1227 -1.7603  0.5808
24750SOL     OW79096   3.849   6.875   2.585 -0.3629 -0.0655 -0.4798
24750SOL    HW179097   3.763   6.857   2.546 -0.7564 -0.0065  0.3383
24750SOL    HW279098   3.851   6.821   2.663  1.0128 -1.2976 -1.3142
24751SOL     OW79099   2.121   2.937   5.229  0.2445  0.2328  0.9145
24751SOL    HW179100   2.082   2.908   5.147  1.4032 -1.3918  0.8895
24751SOL    HW279101   2.080   3.022   5.247 -2.5741 -0.9210  0.4565
24752SOL     OW79102   3.924   5.816   7.783 -0.0362  0.1133  0.0790
24752SOL    HW179103   4.011   5.807   7.743 -0.0547 -0.8747  0.2355
24752SOL    HW279104   3.867   5.763   7.727 -0.3411 -0.0750  0.5708
24753SOL     OW79105   2.156   3.812   0.754  0.2635 -0.0751 -0.3184
24753SOL    HW179106   2.083   3.786   0.697  1.9703 -3.2139 -1.3087
24753SOL    HW279107   2.141   3.766   0.836  1.1717 -0.8811 -0.5873
24754SOL     OW79108   4.436   2.691   0.045  0.2715  0.1120  0.5108
24754SOL    HW179109   4.362   2.630   0.050  0.6583 -0.5094 -0.7232
24754SOL    HW279110   4.403   2.772   0.084 -0.9810 -0.2228  0.2125
24755SOL     OW79111   4.284   2.101   0.050  0.2345  0.3437  0.6162
24755SOL    HW179112   4.380   2.104   0.054  0.3119 -1.1864  0.4430
24755SOL    HW279113   4.256   2.110   0.141  0.5257  0.8780  0.6601
24756SOL     OW79114   8.691   2.510   1.309  0.0519  0.0734 -0.4169
24756SOL    HW179115   8.637   2.573   1.356 -0.1350 -1.1576  1.0989
24756SOL    HW279116   8.698   2.545   1.220  0.0582  2.2640  0.3982
24757SOL     OW79117   6.495   5.732   0.343 -0.0404  0.4226 -0.1191
24757SOL    HW179118   6.412   5.769   0.374 -0.3012 -0.2743  0.0202
24757SOL    HW279119   6.562   5.783   0.389 -0.4122 -0.0576  0.9801
24758SOL     OW79120   4.231   0.598   1.522 -0.4715 -0.0865  0.3159
24758SOL    HW179121   4.256   0.506   1.523 -0.0494  0.0307  0.8238
24758SOL    HW279122   4.235   0.625   1.614  2.0330  1.1368 -0.0920
24759SOL     OW79123   4.210   6.630   5.463  0.2896  0.1122  0.2282
24759SOL    HW179124   4.212   6.716   5.421 -0.6089 -0.1159 -0.3186
24759SOL    HW279125   4.194   6.649   5.555  1.0067  0.5695  0.2594
24760SOL     OW79126   3.552   5.346   9.050 -0.1299  0.1930 -0.0276
24760SOL    HW179127   3.619   5.367   9.115 -0.2039 -1.5924  0.7071
24760SOL    HW279128   3.473   5.329   9.103 -0.6139  0.2660 -0.7124
24761SOL     OW79129   5.971   7.685   9.424  0.0688  0.4360 -0.3995
24761SOL    HW179130   5.892   7.652   9.383 -0.5630 -0.3017  1.3025
24761SOL    HW279131   6.020   7.607   9.449  1.1178  0.8785 -1.0190
24762SOL     OW79132   0.642   4.651   4.995 -0.2241 -0.1943 -0.1760
24762SOL    HW179133   0.687   4.577   5.037 -1.6537 -1.1787 -0.3217
24762SOL    HW279134   0.610   4.616   4.912 -4.4454 -0.7346  1.4259
24763SOL     OW79135   3.168   0.241   0.860 -0.4086 -0.2165 -0.7402
24763SOL    HW179136   3.080   0.236   0.898  0.5785 -0.7087  1.6460
24763SOL    HW279137   3.227   0.221   0.932  1.7009  0.0871 -2.2730
24764SOL     OW79138   3.370   6.015   7.879  0.0652  0.4597 -0.0642
24764SOL    HW179139   3.381   6.110   7.869 -0.3107  0.9228  2.9377
24764SOL    HW279140   3.442   5.988   7.936 -0.4268 -0.8845 -0.0353
24765SOL     OW79141   5.512   6.577   3.558 -0.2747  0.5443  0.3987
24765SOL    HW179142   5.417   6.577   3.568 -0.3279 -0.5934  0.0579
24765SOL    HW279143   5.546   6.556   3.645 -0.3092  1.3941  0.6239
24766SOL     OW79144   6.072   7.845   9.215 -0.0179 -0.1906  0.2947
24766SOL    HW179145   6.054   7.829   9.307  1.6211 -0.0158  0.6841
24766SOL    HW279146   6.158   7.804   9.200  0.8809  1.8293 -0.5264
24767SOL     OW79147   0.973   4.013   5.065 -0.1439  0.4280 -0.1797
24767SOL    HW179148   1.001   4.027   4.975  1.4983  1.7418  0.4869
24767SOL    HW279149   0.891   4.062   5.073 -0.9455 -0.6772 -1.2431
24768SOL     OW79150   4.744   6.626   0.123  0.0050  0.0458  0.4475
24768SOL    HW179151   4.671   6.589   0.173 -0.2599 -1.6984 -1.1154
24768SOL    HW279152   4.703   6.686   0.061 -0.0113 -0.1737  0.2428
24769SOL     OW79153   4.257   2.679   3.230 -0.2293 -0.2191 -0.3463
24769SOL    HW179154   4.180   2.689   3.285  0.1430  2.9260 -0.2168
24769SOL    HW279155   4.324   2.644   3.289 -0.8735 -0.6261  0.1583
24770SOL     OW79156   8.087   9.188   1.830 -0.0782  0.4291  0.2620
24770SOL    HW179157   8.123   9.120   1.887 -0.7091 -0.2373 -0.1225
24770SOL    HW279158   8.081   9.147   1.744  0.3833  1.2633 -0.1836
24771SOL     OW79159   8.673   3.820   2.655  0.4011 -0.3318 -0.5343
24771SOL    HW179160   8.603   3.800   2.717 -0.3621  0.9901 -0.9152
24771SOL    HW279161   8.736   3.749   2.664  0.7701  0.2576  2.4096
24772SOL     OW79162   5.532   0.635   1.084 -0.4505  0.2394  0.1897
24772SOL    HW179163   5.579   0.684   1.017 -3.4980  1.1810 -1.4648
24772SOL    HW279164   5.556   0.544   1.068  1.5383  0.7168  0.1463
24773SOL     OW79165   5.723   7.121   7.508 -0.2484  0.6143 -0.0818
24773SOL    HW179166   5.656   7.082   7.452 -0.5876  0.9067  0.1153
24773SOL    HW279167   5.684   7.203   7.538 -0.2505  0.2474  0.9428
24774SOL     OW79168   7.904   0.756   4.551 -0.7205 -0.0865 -0.5866
24774SOL    HW179169   7.819   0.722   4.523 -0.5703 -2.1325  1.2220
24774SOL    HW279170   7.967   0.717   4.490 -0.9409  0.4737 -1.1866
24775SOL     OW79171   1.072   2.910   8.509 -0.3176 -0.2726  0.0330
24775SOL    HW179172   0.994   2.918   8.453 -0.2911 -0.5702 -0.0457
24775SOL    HW279173   1.042   2.861   8.585 -0.1133 -0.7280 -0.1777
24776SOL     OW79174   5.123   1.329   7.251 -0.6230 -0.0335 -0.3865
24776SOL    HW179175   5.144   1.397   7.315  0.6544  0.0125 -0.8239
24776SOL    HW279176   5.038   1.295   7.279 -1.0567  1.3924  0.1298
24777SOL     OW79177   7.974   3.114   3.275 -0.2433 -0.3216  0.1621
24777SOL    HW179178   7.890   3.102   3.232 -1.2181  0.1961  1.7970
24777SOL    HW279179   7.976   3.207   3.298  0.3951 -0.4991  0.8780
24778SOL     OW79180   1.429   7.975   6.827  0.8989 -0.3193  0.1268
24778SOL    HW179181   1.502   8.009   6.776  0.3146 -1.8014 -1.7986
24778SOL    HW279182   1.357   8.036   6.809  1.0478 -0.1098  0.2351
24779SOL     OW79183   2.667   4.269   0.639 -0.2367  0.0504  0.3955
24779SOL    HW179184   2.599   4.222   0.591  1.4894 -1.2730 -0.8915
24779SOL    HW279185   2.724   4.306   0.572  0.5734  0.7495  1.4239
24780SOL     OW79186   0.333   0.301   0.070 -0.4929 -0.2792 -0.2883
24780SOL    HW179187   0.275   0.360   0.022 -0.6945 -0.5826 -0.4196
24780SOL    HW279188   0.290   0.289   0.155  0.3259  0.9961  0.3328
24781SOL     OW79189   3.519   9.082   8.228  0.2764  0.3270  0.1121
24781SOL    HW179190   3.579   9.022   8.183 -0.3558  0.0002 -0.3069
24781SOL    HW279191   3.576   9.147   8.268  0.8645  0.6120 -1.1428
24782SOL     OW79192   4.518   0.889   1.910  0.2378 -0.3527  0.6258
24782SOL    HW179193   4.425   0.911   1.909 -0.2537 -2.1809  1.5182
24782SOL    HW279194   4.551   0.919   1.825 -0.8944  1.3104  0.7247
24783SOL     OW79195   9.752   8.519   2.419 -0.1439  0.0932 -0.3559
24783SOL    HW179196   9.771   8.426   2.403  0.9809  0.5071 -1.6082
24783SOL    HW279197   9.836   8.563   2.409 -0.2543  1.0509  2.1881
24784SOL     OW79198   7.768   7.207   1.164 -0.3110  0.3104  0.6087
24784SOL    HW179199   7.772   7.171   1.253 -2.8009  0.0749  0.6755
24784SOL    HW279200   7.740   7.133   1.110  1.1019  0.4805 -0.3956
24785SOL     OW79201   1.468   6.959   3.972 -0.1514  0.0498  0.7015
24785SOL    HW179202   1.390   6.908   3.949 -0.0076 -0.2651  0.9042
24785SOL    HW279203   1.529   6.944   3.901 -1.0066  1.9346 -0.5220
24786SOL     OW79204   0.040   2.707   8.677 -0.3149 -1.1958  0.1100
24786SOL    HW179205   0.019   2.626   8.724 -2.7430 -1.3998 -1.1535
24786SOL    HW279206   0.079   2.677   8.594  0.6576 -0.9780  0.4822
24787SOL     OW79207   3.905   1.160   8.853  0.3165 -0.3288 -0.2627
24787SOL    HW179208   3.815   1.137   8.828 -0.3628  0.2564  1.5444
24787SOL    HW279209   3.913   1.132   8.944  1.3828  1.2343  0.1615
24788SOL     OW79210   2.189   9.251   2.539 -0.0757 -0.0255 -0.7394
24788SOL    HW179211   2.116   9.194   2.564  0.5085 -1.3042 -1.7898
24788SOL    HW279212   2.198   9.238   2.444  1.0369  0.6714 -0.7471
24789SOL     OW79213   0.110   6.464   6.825 -0.0372 -0.6206  0.2418
24789SOL    HW179214   0.151   6.387   6.786 -2.9971 -1.5049 -1.4215
24789SOL    HW279215   0.082   6.436   6.911  1.3279 -0.4850  0.7572
24790SOL     OW79216   4.020   6.911   6.394  0.1934 -0.0539 -0.1029
24790SOL    HW179217   4.080   6.843   6.364 -2.0086 -1.0296 -2.6175
24790SOL    HW279218   3.979   6.873   6.472  1.0555 -0.3365  0.2355
24791SOL     OW79219   8.447   1.937   0.114  0.0183 -0.7262 -0.2280
24791SOL    HW179220   8.410   1.920   0.200 -1.1213  1.9420 -0.0846
24791SOL    HW279221   8.371   1.952   0.057  0.7845 -0.5582 -1.2396
24792SOL     OW79222   6.700   4.136   8.423  0.3344  0.2030  0.0954
24792SOL    HW179223   6.717   4.205   8.360 -0.0188  1.4763  1.3360
24792SOL    HW279224   6.624   4.167   8.473 -0.8442 -1.8135 -0.3327
24793SOL     OW79225   8.928   8.401   5.009  0.3643  0.3186  0.4516
24793SOL    HW179226   8.872   8.364   5.077  0.6646 -1.9947 -0.4829
24793SOL    HW279227   8.868   8.422   4.937  0.3101  0.8394  0.6452
24794SOL     OW79228   8.935   9.139   8.578 -0.3888  0.8053 -0.2995
24794SOL    HW179229   8.971   9.213   8.626  1.3103 -0.8227  1.0885
24794SOL    HW279230   9.010   9.105   8.528  0.1208 -2.4537  2.3623
24795SOL     OW79231   0.763   8.132   6.187  0.0907 -0.6447  0.2306
24795SOL    HW179232   0.729   8.112   6.100 -0.1958 -1.3441  0.4981
24795SOL    HW279233   0.691   8.112   6.247  0.5116 -0.8180  0.6855
24796SOL     OW79234   5.404   9.067   4.800 -0.1405  0.3904  0.5065
24796SOL    HW179235   5.322   9.082   4.846 -0.2071  1.2136  0.1397
24796SOL    HW279236   5.434   9.154   4.774  1.6098  0.2647  1.8855
24797SOL     OW79237   5.080   7.832   1.565 -0.0162 -0.2932  0.4225
24797SOL    HW179238   5.075   7.810   1.658 -0.1660 -0.1709  0.4437
24797SOL    HW279239   5.135   7.763   1.527  0.3937 -0.1009  0.6725
24798SOL     OW79240   4.682   2.700   9.160  0.5145 -0.7198  0.2690
24798SOL    HW179241   4.760   2.734   9.204  0.0024 -0.3190  0.8852
24798SOL    HW279242   4.615   2.766   9.177  0.0847 -0.9788 -0.4020
24799SOL     OW79243   9.606   8.745   2.093 -0.2428 -0.8952  0.4890
24799SOL    HW179244   9.534   8.698   2.135 -1.4312  0.4668  0.0400
24799SOL    HW279245   9.615   8.826   2.144  0.3445 -0.6215 -0.0341
24800SOL     OW79246   0.600   0.825   3.212 -0.7380  0.6117  0.7503
24800SOL    HW179247   0.628   0.737   3.185 -3.4462 -0.2144  0.4071
24800SOL    HW279248   0.681   0.876   3.215  0.5771 -1.1522 -1.7702
24801SOL     OW79249   6.212   2.283   0.552 -0.0476 -1.0164  0.2124
24801SOL    HW179250   6.290   2.323   0.513 -1.3474  1.3347 -0.1776
24801SOL    HW279251   6.217   2.191   0.527  2.0947 -0.7392 -0.6028
24802SOL     OW79252   6.456   9.086   4.152  0.5263 -0.4892 -0.1452
24802SOL    HW179253   6.447   9.138   4.073 -0.6664 -1.6048 -0.7677
24802SOL    HW279254   6.456   9.151   4.223 -1.9609  0.3472 -0.8163
24803SOL     OW79255   4.512   7.077   2.532  1.2642 -0.1151 -0.0474
24803SOL    HW179256   4.518   7.172   2.517  2.6583 -0.2130 -0.2703
24803SOL    HW279257   4.592   7.042   2.492 -0.3055 -1.6587 -2.0341
24804SOL     OW79258   9.678   2.825   8.275 -0.1060  0.1630  0.7059
24804SOL    HW179259   9.763   2.792   8.245 -0.5991  0.8284 -1.6280
24804SOL    HW279260   9.699   2.886   8.345  1.3237  0.0544  0.3961
24805SOL     OW79261   1.350   5.110   9.588  0.4119  0.2011 -0.0713
24805SOL    HW179262   1.357   5.204   9.573  0.5280  0.3380  0.8063
24805SOL    HW279263   1.256   5.092   9.585  0.4738 -0.0488 -2.4486
24806SOL     OW79264   0.058   3.279   4.411  0.0278  0.2819 -0.0363
24806SOL    HW179265   0.152   3.282   4.397  0.3584  0.0620  1.8281
24806SOL    HW279266   0.047   3.222   4.487 -1.5953  0.4660 -0.0952
24807SOL     OW79267   6.110   5.606   5.984 -0.2826 -0.1297  0.2912
24807SOL    HW179268   6.122   5.655   5.903 -0.7176  0.3650  0.5269
24807SOL    HW279269   6.200   5.586   6.012 -0.1378 -1.1433 -0.8041
24808SOL     OW79270   4.446   1.458   1.522 -0.0018  0.5437  0.1422
24808SOL    HW179271   4.491   1.541   1.508  1.1124 -0.2689 -1.5277
24808SOL    HW279272   4.431   1.424   1.434  0.9097 -1.6902  0.7775
24809SOL     OW79273   7.131   3.964   8.567 -0.2879  0.4003  0.1487
24809SOL    HW179274   7.150   3.959   8.473  0.5236  1.1294  0.2580
24809SOL    HW279275   7.036   3.975   8.572 -0.3424  0.3079 -0.5841
24810SOL     OW79276   5.654   0.591   6.529 -0.0279 -0.4065  0.4087
24810SOL    HW179277   5.697   0.518   6.574  3.1336 -0.0588 -1.7677
24810SOL    HW279278   5.679   0.581   6.438 -0.5026  2.7443 -0.1618
24811SOL     OW79279   1.103   7.550   5.046  0.2968  0.1277  0.6115
24811SOL    HW179280   1.069   7.493   5.115 -0.5858  1.8458  1.6957
24811SOL    HW279281   1.092   7.500   4.965  1.6794 -2.0900  1.7030
24812SOL     OW79282   4.125   1.537   1.148 -0.1085  0.0060  0.2651
24812SOL    HW179283   4.031   1.519   1.154 -0.6174  2.2976  0.0063
24812SOL    HW279284   4.163   1.452   1.126 -1.9901 -1.1884  1.2410
24813SOL     OW79285   6.160   7.108   9.610  0.2640  0.0470 -0.2368
24813SOL    HW179286   6.134   7.063   9.530  0.7077  0.3106 -0.5343
24813SOL    HW279287   6.244   7.149   9.588 -0.3687  1.4368 -0.1260
24814SOL     OW79288   5.155   2.660   1.943 -0.5799  0.1846 -0.4038
24814SOL    HW179289   5.160   2.568   1.917 -0.7032  0.1460 -0.2949
24814SOL    HW279290   5.245   2.692   1.937 -0.7466  0.4264 -1.7631
24815SOL     OW79291   1.133   7.326   8.111 -0.0229 -0.4200  0.2740
24815SOL    HW179292   1.167   7.315   8.023  1.3110  2.5646  0.3087
24815SOL    HW279293   1.052   7.376   8.100 -0.1251 -0.4838  0.7049
24816SOL     OW79294   0.544   4.687   0.143  0.4078 -0.5127 -0.6993
24816SOL    HW179295   0.451   4.709   0.138  1.0275  2.2947 -1.4762
24816SOL    HW279296   0.567   4.703   0.235  0.3203 -0.2913 -0.7155
24817SOL     OW79297   3.439   3.572   4.463 -0.2853  0.1204 -0.2105
24817SOL    HW179298   3.430   3.562   4.557 -0.2199  0.6453 -0.1466
24817SOL    HW279299   3.400   3.492   4.427  2.4069 -1.5530  0.3402
24818SOL     OW79300   3.316   5.574   6.929  0.2689  0.6609 -0.2703
24818SOL    HW179301   3.396   5.526   6.904  0.2700  1.1609 -1.2792
24818SOL    HW279302   3.303   5.637   6.858 -2.2795 -0.8884 -1.3299
24819SOL     OW79303   1.189   5.170   3.282 -0.4453 -0.3130  0.2250
24819SOL    HW179304   1.259   5.107   3.299 -0.6325 -0.6023 -0.0711
24819SOL    HW279305   1.135   5.168   3.361  0.2334  0.3849  0.7198
24820SOL     OW79306   2.806   9.329   2.390 -0.2422  0.1645  0.1279
24820SOL    HW179307   2.841   9.388   2.323 -2.0894  3.6713  1.9258
24820SOL    HW279308   2.868   9.336   2.462  0.0093 -0.9089  0.0257
24821SOL     OW79309   1.092   7.634   1.012 -0.2480 -0.3825  0.5573
24821SOL    HW179310   1.012   7.586   1.032  0.4589 -1.8873 -0.1573
24821SOL    HW279311   1.163   7.572   1.028  0.8100  0.9141  1.1616
24822SOL     OW79312   2.600   1.145   8.910  0.4287 -0.2281  0.0353
24822SOL    HW179313   2.519   1.197   8.913  1.3803  1.2577  1.0718
24822SOL    HW279314   2.653   1.180   8.981  2.0193 -1.1433 -0.6721
24823SOL     OW79315   4.930   3.143   3.501  0.3104  0.4624 -0.0463
24823SOL    HW179316   4.936   3.229   3.542 -1.1539  0.8120 -0.5082
24823SOL    HW279317   5.005   3.139   3.442 -0.2815  1.9565 -0.9531
24824SOL     OW79318   3.212   5.825   0.872  0.2365 -0.2172 -0.4154
24824SOL    HW179319   3.261   5.852   0.794 -0.0835 -3.0099 -1.6871
24824SOL    HW279320   3.120   5.838   0.848  0.1683  0.2253  0.0617
24825SOL     OW79321   0.365   1.467   1.902 -0.3324 -0.5853 -0.4907
24825SOL    HW179322   0.359   1.421   1.986 -1.4225  1.4722  0.6189
24825SOL    HW279323   0.275   1.492   1.881  0.2458  1.4377 -0.7795
24826SOL     OW79324   4.088   3.081   1.077 -0.0316 -0.1452  0.4051
24826SOL    HW179325   4.021   3.018   1.104 -0.0106  0.1924  1.2712
24826SOL    HW279326   4.040   3.160   1.054 -0.0964 -0.5913 -1.1248
24827SOL     OW79327   0.424   5.693   0.180  0.3920  0.4803  0.0689
24827SOL    HW179328   0.498   5.750   0.202  1.3072 -0.7873  0.4161
24827SOL    HW279329   0.414   5.701   0.086 -1.4320  3.4503  0.3743
24828SOL     OW79330   9.435   0.739   3.384 -0.6787  0.8257  0.2719
24828SOL    HW179331   9.381   0.801   3.433 -0.4771  0.0760  1.4949
24828SOL    HW279332   9.481   0.793   3.319 -1.2365  1.8000  0.6634
24829SOL     OW79333   6.235   1.097   0.086  0.0707 -0.2143 -0.2403
24829SOL    HW179334   6.169   1.038   0.051 -1.1019  1.3843 -0.8726
24829SOL    HW279335   6.249   1.161   0.016  0.6037  0.7903  0.7498
24830SOL     OW79336   7.535   6.372   3.005 -0.5024 -0.2033 -0.0272
24830SOL    HW179337   7.453   6.403   2.966 -0.3063  0.3944  0.0423
24830SOL    HW279338   7.524   6.387   3.099  0.1263  0.9157 -0.1188
24831SOL     OW79339   8.140   4.144   2.080 -0.0101  0.1795 -0.0837
24831SOL    HW179340   8.209   4.120   2.018  0.0102 -1.3432  0.4916
24831SOL    HW279341   8.117   4.234   2.056  1.6381  0.4534 -0.7703
24832SOL     OW79342   3.200   1.730   5.066  0.2422  0.7503 -0.0717
24832SOL    HW179343   3.156   1.811   5.039 -0.2600  0.1994 -0.9714
24832SOL    HW279344   3.172   1.716   5.156 -0.2917  1.1715 -0.1670
24833SOL     OW79345   0.191   4.990   4.883 -0.2115  0.1791 -0.4856
24833SOL    HW179346   0.233   5.061   4.835 -0.8182 -0.1840 -1.5732
24833SOL    HW279347   0.237   4.987   4.967  1.2274  0.4613 -1.2406
24834SOL     OW79348   4.484   2.461   2.190  0.0512 -0.0661 -0.0101
24834SOL    HW179349   4.434   2.541   2.203  2.6357  1.5739  0.4761
24834SOL    HW279350   4.489   2.421   2.277 -0.8889 -0.5991 -0.1801
24835SOL     OW79351   6.093   3.319   8.682 -0.3239 -0.1786  0.4677
24835SOL    HW179352   6.116   3.271   8.603  0.6675 -3.6162  2.6314
24835SOL    HW279353   6.134   3.405   8.671 -2.0534  0.3721 -3.5575
24836SOL     OW79354   2.020   1.666   7.772 -0.5775  0.4152 -0.2195
24836SOL    HW179355   2.112   1.639   7.777 -0.7025  0.2304  2.8445
24836SOL    HW279356   2.009   1.697   7.682  1.9596 -1.2989 -1.2380
24837SOL     OW79357   9.415   7.076   6.589  0.4970  0.3214  0.5918
24837SOL    HW179358   9.356   7.105   6.658 -0.1164  1.1123 -0.2570
24837SOL    HW279359   9.417   6.980   6.599 -1.1222  0.2451  0.4891
24838SOL     OW79360   1.054   5.703   1.032 -0.0023  0.0422  0.0894
24838SOL    HW179361   0.975   5.649   1.026  0.4561 -0.5750 -0.4050
24838SOL    HW279362   1.089   5.705   0.942  1.3213 -0.8554  0.5640
24839SOL     OW79363   8.643   2.184   1.965 -0.0086 -0.0744 -0.2358
24839SOL    HW179364   8.673   2.203   2.053 -1.0165  2.3321 -0.3335
24839SOL    HW279365   8.695   2.241   1.908 -1.5582  0.8631 -0.8126
24840SOL     OW79366   5.051   5.071   4.981  0.4350  0.2111 -0.1286
24840SOL    HW179367   5.140   5.106   4.974  0.1063  1.1477  0.2571
24840SOL    HW279368   5.052   5.018   5.061  0.6662  0.1319 -0.1830
24841SOL     OW79369   7.781   3.778   3.034  0.1385  0.1646  0.1142
24841SOL    HW179370   7.823   3.754   2.951 -1.9769 -1.9213 -0.4563
24841SOL    HW279371   7.824   3.724   3.100  0.6057  0.5278  0.1187
24842SOL     OW79372   0.226   4.423   4.375  0.2469 -0.0543 -0.2919
24842SOL    HW179373   0.293   4.368   4.417  0.2425  0.5798  0.5729
24842SOL    HW279374   0.162   4.361   4.340  0.0196 -0.6028  1.0407
24843SOL     OW79375   1.505   0.918   5.784  0.2126 -0.5966 -0.0020
24843SOL    HW179376   1.441   0.929   5.854  0.6831 -0.8838  0.4816
24843SOL    HW279377   1.582   0.967   5.814  0.6629 -1.2967  0.0118
24844SOL     OW79378   5.190   5.122   7.590  0.5171  0.7040  0.1852
24844SOL    HW179379   5.208   5.166   7.673  0.2922  0.2731  0.4669
24844SOL    HW279380   5.169   5.032   7.615 -0.0768  0.7017 -0.2879
24845SOL     OW79381   6.960   9.142   6.079 -0.3664  0.7035 -0.3052
24845SOL    HW179382   6.874   9.156   6.039 -0.2487  1.8800 -0.1783
24845SOL    HW279383   6.953   9.181   6.166 -0.2147 -0.7094  0.3696
24846SOL     OW79384   9.280   4.843   2.443  0.1444  0.6178  0.5352
24846SOL    HW179385   9.315   4.757   2.467 -0.1888  0.7639  1.5829
24846SOL    HW279386   9.217   4.863   2.512 -1.8696  0.4616 -1.1446
24847SOL     OW79387   1.827   6.811   5.664 -0.0716  0.3141  0.2269
24847SOL    HW179388   1.882   6.782   5.737 -1.8268 -0.8147  1.1999
24847SOL    HW279389   1.814   6.904   5.679  3.0056  1.0636 -1.0843
24848SOL     OW79390   5.199   8.763   1.506  0.2611 -0.3143 -0.4307
24848SOL    HW179391   5.213   8.852   1.538  1.1970  0.3515 -2.5073
24848SOL    HW279392   5.109   8.742   1.531 -0.1528  1.4104 -0.3476
24849SOL     OW79393   4.139   6.345   5.683  0.0833  0.3225 -0.4203
24849SOL    HW179394   4.203   6.369   5.616  4.0939  1.4681  3.3490
24849SOL    HW279395   4.168   6.259   5.714 -2.1416 -0.5368 -0.5484
24850SOL     OW79396   6.161   3.382   9.733 -0.7733 -0.4543 -0.1350
24850SOL    HW179397   6.067   3.386   9.716 -0.4921 -1.0436 -2.0743
24850SOL    HW279398   6.187   3.473   9.747 -1.4845 -0.1855 -0.5017
24851SOL     OW79399   7.084   8.113   1.405  0.0291 -0.2685  0.1446
24851SOL    HW179400   7.116   8.023   1.401 -1.3598 -0.7810 -0.0681
24851SOL    HW279401   7.083   8.141   1.313  0.3833 -0.0601  0.2035
24852SOL     OW79402   6.491   2.504   6.465  0.1424  0.2610  0.5839
24852SOL    HW179403   6.433   2.464   6.400  1.1799 -1.4089  0.6209
24852SOL    HW279404   6.510   2.433   6.527  2.9731  0.4009  0.0317
24853SOL     OW79405   8.387   1.998   2.319 -0.2161 -0.0956 -0.2640
24853SOL    HW179406   8.425   2.086   2.313  3.1239 -1.3234  0.7202
24853SOL    HW279407   8.462   1.940   2.330 -2.3476 -3.0249  0.0141
24854SOL     OW79408   0.401   8.650   1.230 -0.2653 -0.0059  0.0221
24854SOL    HW179409   0.439   8.565   1.207  1.4773  0.5766  0.5903
24854SOL    HW279410   0.438   8.670   1.315 -1.2570  0.9947  0.2353
24855SOL     OW79411   2.008   6.241   6.333 -0.0743  0.5041  0.4878
24855SOL    HW179412   2.078   6.259   6.396 -0.1926 -0.0642  0.7850
24855SOL    HW279413   1.938   6.204   6.386 -0.0319 -0.3406 -0.0400
24856SOL     OW79414   8.309   2.779   2.134 -0.4721  0.6067  0.0988
24856SOL    HW179415   8.222   2.780   2.094 -0.5784  1.3390  0.3451
24856SOL    HW279416   8.322   2.868   2.167  0.5403  0.6251 -0.2956
24857SOL     OW79417   8.296   2.478   4.007 -0.2008  0.4070 -0.3357
24857SOL    HW179418   8.201   2.487   3.992 -0.9082 -1.0438  2.5992
24857SOL    HW279419   8.319   2.556   4.058 -0.5788 -0.7605  1.7248
24858SOL     OW79420   4.392   6.026   9.579 -0.2633 -0.6100 -0.0854
24858SOL    HW179421   4.454   6.014   9.507  1.0956  0.7331  0.7838
24858SOL    HW279422   4.306   6.022   9.538  0.4364 -1.0265 -1.5818
24859SOL     OW79423   4.998   5.266   6.288 -0.1084  0.1717  0.3390
24859SOL    HW179424   4.961   5.182   6.259 -1.2500  1.1552 -1.2172
24859SOL    HW279425   4.925   5.309   6.333  0.1562  0.7649  0.1988
24860SOL     OW79426   0.729   6.462   3.280 -0.2363  0.3231 -0.0238
24860SOL    HW179427   0.740   6.371   3.254  0.3592  0.0753  1.0419
24860SOL    HW279428   0.634   6.474   3.286 -0.3101 -0.4922  0.6872
24861SOL     OW79429   1.493   3.462   6.756  0.5378  0.4478 -0.4856
24861SOL    HW179430   1.485   3.523   6.830  1.9100  0.1111 -0.0255
24861SOL    HW279431   1.443   3.385   6.783 -0.0586  0.8268 -0.4828
24862SOL     OW79432   5.607   5.899   5.720  0.1568  0.3336 -0.5375
24862SOL    HW179433   5.665   5.879   5.794  0.4777  3.2324  0.1422
24862SOL    HW279434   5.521   5.911   5.760  0.2734  1.6284 -0.6286
24863SOL     OW79435   8.552   4.822   1.530 -0.3703 -0.1629 -0.2422
24863SOL    HW179436   8.563   4.773   1.611  0.0230 -1.6326 -1.1356
24863SOL    HW279437   8.620   4.889   1.531  0.8097 -1.3393 -0.1750
24864SOL     OW79438   9.405   0.070   4.757  0.6945  0.5999  0.2439
24864SOL    HW179439   9.441   0.099   4.841  0.4417 -0.3754  0.7092
24864SOL    HW279440   9.313   0.049   4.777  1.4809 -3.1582  0.6841
24865SOL     OW79441   1.058   1.712   3.634  1.1798 -0.1630  0.3855
24865SOL    HW179442   1.017   1.671   3.710  2.5373 -0.9538  0.7351
24865SOL    HW279443   1.010   1.679   3.559  0.6463 -0.3918  0.8208
24866SOL     OW79444   5.939   4.705   2.887  0.2550  0.0536  0.6577
24866SOL    HW179445   5.935   4.639   2.818  1.6331 -0.7229  1.2937
24866SOL    HW279446   5.915   4.786   2.843 -0.4279 -0.6737 -0.3759
24867SOL     OW79447   6.723   2.323   3.434  0.0493  0.0015 -0.0744
24867SOL    HW179448   6.631   2.304   3.414 -0.5618  1.1113  1.4669
24867SOL    HW279449   6.760   2.238   3.458 -0.5572 -0.4645 -0.7336
24868SOL     OW79450   3.154   1.825   0.518  0.8298 -0.2449 -0.6456
24868SOL    HW179451   3.164   1.912   0.556 -0.3614 -0.8917  1.2417
24868SOL    HW279452   3.239   1.783   0.533  1.3998  0.5527 -1.5408
24869SOL     OW79453   0.793   7.002   0.706 -0.1219 -0.5830 -0.2663
24869SOL    HW179454   0.751   6.941   0.766  1.0103  0.8813  2.1649
24869SOL    HW279455   0.734   7.078   0.704  1.4888  0.8520  1.9695
24870SOL     OW79456   4.755   2.304   5.763  0.3406 -0.0636 -0.5228
24870SOL    HW179457   4.826   2.356   5.799  0.3996 -0.5008 -0.0063
24870SOL    HW279458   4.743   2.338   5.674  0.7828  0.4193 -0.3988
24871SOL     OW79459   1.541   4.352   1.131  0.1598 -0.4102 -0.9122
24871SOL    HW179460   1.545   4.436   1.085 -1.3888 -0.5235 -1.3145
24871SOL    HW279461   1.525   4.375   1.222  0.8601 -0.2543 -0.8209
24872SOL     OW79462   1.110   6.181   8.803 -0.3067 -0.4218 -0.3310
24872SOL    HW179463   1.138   6.257   8.753 -0.6308  0.0235  0.1470
24872SOL    HW279464   1.022   6.204   8.835 -0.5376 -1.1183 -0.4372
24873SOL     OW79465   7.269   0.011   6.971  0.0244 -0.5107 -0.5204
24873SOL    HW179466   7.363  -0.007   6.967  0.4736  1.3731  0.6678
24873SOL    HW279467   7.230  -0.054   6.912  2.2290 -0.1375 -2.5215
24874SOL     OW79468   0.519   4.986   4.714  0.6710  0.4426  0.0485
24874SOL    HW179469   0.533   4.919   4.646 -0.0886 -1.5297  1.7266
24874SOL    HW279470   0.591   4.972   4.776 -0.3378  0.1280  1.1885
24875SOL     OW79471   2.660   3.732   3.542  0.0172  0.6354 -0.1754
24875SOL    HW179472   2.679   3.646   3.579 -0.8883 -0.0390 -1.2169
24875SOL    HW279473   2.566   3.743   3.553  0.0496  1.2824 -0.4881
24876SOL     OW79474   9.631   9.653   0.026  0.6943  0.0552 -0.1482
24876SOL    HW179475   9.584   9.695   0.098  2.6894  0.1345  1.1967
24876SOL    HW279476   9.626   9.716  -0.046  1.2107  1.3724  0.9258
24877SOL     OW79477   0.112   7.415   7.767  0.6819  0.3708 -0.1541
24877SOL    HW179478   0.174   7.426   7.838  0.5974  1.0144 -0.1750
24877SOL    HW279479   0.033   7.461   7.795  0.2321 -0.3742 -0.1607
24878SOL     OW79480   2.116   7.520   5.062 -0.0773  0.0515 -0.1683
24878SOL    HW179481   2.127   7.557   5.149  1.5531  0.1108 -0.3701
24878SOL    HW279482   2.205   7.511   5.028 -0.6721  0.0258 -1.8267
24879SOL     OW79483   5.640   9.296   3.026  0.4280  0.0594 -0.1387
24879SOL    HW179484   5.693   9.292   2.947 -1.3145 -0.5289 -1.3533
24879SOL    HW279485   5.578   9.367   3.010  0.1092 -0.0033  0.7484
24880SOL     OW79486   1.637   2.888   6.449 -0.5942 -0.1221 -0.5272
24880SOL    HW179487   1.693   2.881   6.527  1.0139  0.1721 -1.5884
24880SOL    HW279488   1.635   2.799   6.414 -1.4435 -0.2847 -0.0761
24881SOL     OW79489   2.993   1.021   2.766  0.4374 -0.2604  0.0862
24881SOL    HW179490   2.947   0.981   2.840  0.1896 -1.4556 -0.6834
24881SOL    HW279491   2.973   0.964   2.692 -0.3389  1.6010 -1.1990
24882SOL     OW79492   1.767   8.671   4.533 -0.3484 -0.3549 -0.3312
24882SOL    HW179493   1.833   8.603   4.521  0.5425  0.4039  0.1924
24882SOL    HW279494   1.782   8.703   4.622 -0.0417  1.2722 -0.9503
24883SOL     OW79495   0.404   9.402   1.577 -0.3343 -0.3002  0.5929
24883SOL    HW179496   0.386   9.319   1.621 -0.0377 -1.4737 -1.3774
24883SOL    HW279497   0.443   9.457   1.644 -0.4403 -1.7954  1.9293
24884SOL     OW79498   5.747   9.184   9.181 -0.2173 -0.0332 -0.8600
24884SOL    HW179499   5.760   9.277   9.199  0.2673 -0.3647  0.6759
24884SOL    HW279500   5.821   9.158   9.127  0.3159  0.2199 -0.2629
24885SOL     OW79501   2.561   9.347   1.683 -0.6929 -0.0173 -0.3109
24885SOL    HW179502   2.485   9.337   1.626  0.1263 -0.9487 -1.2846
24885SOL    HW279503   2.551   9.434   1.721 -2.8025 -0.5282  0.4373
24886SOL     OW79504   0.462   2.567   0.627  0.1169 -0.2124 -0.2371
24886SOL    HW179505   0.520   2.590   0.700  0.0079 -0.5549 -0.0395
24886SOL    HW279506   0.502   2.609   0.551  0.0858  0.3720  0.0614
24887SOL     OW79507   6.142   3.773   2.334  0.3136  0.3253 -0.1739
24887SOL    HW179508   6.218   3.744   2.284 -0.3431 -2.0937  0.1068
24887SOL    HW279509   6.167   3.858   2.369  2.6378 -0.1374 -0.5817
24888SOL     OW79510   7.909   2.371   7.635 -0.2869  0.0131 -0.1779
24888SOL    HW179511   7.822   2.344   7.664 -0.4648 -0.0595 -0.7653
24888SOL    HW279512   7.969   2.320   7.689 -0.6146 -1.7728 -1.4173
24889SOL     OW79513   3.717   6.940   4.914  0.0829  0.5362 -0.6055
24889SOL    HW179514   3.733   6.957   5.007 -1.2669  0.3957 -0.3334
24889SOL    HW279515   3.795   6.974   4.870  2.2279 -2.1849  0.7868
24890SOL     OW79516   4.358   0.674   9.236 -0.4160  0.1391 -0.0618
24890SOL    HW179517   4.266   0.671   9.210 -0.7249  1.0501  0.8808
24890SOL    HW279518   4.400   0.728   9.169 -0.7931  0.6798  0.1321
24891SOL     OW79519   9.179   3.330   6.094 -0.0562  0.4764 -0.4627
24891SOL    HW179520   9.129   3.251   6.073  1.7589 -0.8354 -0.1127
24891SOL    HW279521   9.150   3.354   6.182 -2.6619  1.9392 -1.5960
24892SOL     OW79522   0.546   8.940   4.066 -0.1027  0.2242 -0.4339
24892SOL    HW179523   0.524   9.008   4.003  0.6011  1.0052  0.1423
24892SOL    HW279524   0.639   8.921   4.049  0.0595  0.3565  0.2694
24893SOL     OW79525   3.848   6.722   8.264  0.8070  0.6728  0.5837
24893SOL    HW179526   3.758   6.724   8.297  1.1848 -1.3928  1.8812
24893SOL    HW279527   3.839   6.742   8.171 -0.9906  0.5721  0.6903
24894SOL     OW79528   5.941   3.863   8.474  0.1487 -0.5481  0.4033
24894SOL    HW179529   6.018   3.807   8.483  0.6410  0.2817  1.5991
24894SOL    HW279530   5.976   3.948   8.448 -0.1731  0.2427  2.3689
24895SOL     OW79531   0.542   7.851   6.145 -0.3952 -0.0805  0.1843
24895SOL    HW179532   0.608   7.840   6.214  0.9994 -0.8178 -1.1927
24895SOL    HW279533   0.572   7.927   6.095 -2.9318  2.2801  1.9450
24896SOL     OW79534   2.728   9.401   7.863  0.4315 -0.0869  1.2661
24896SOL    HW179535   2.758   9.351   7.786 -0.2674 -0.3633  1.1633
24896SOL    HW279536   2.708   9.334   7.928  0.3937  0.1111  1.4559
24897SOL     OW79537   0.159   0.507   9.734  0.2793  0.4349  0.2815
24897SOL    HW179538   0.154   0.585   9.790  1.7132  1.3008 -0.7398
24897SOL    HW279539   0.192   0.539   9.651  3.8541 -1.6077  0.6935
24898SOL     OW79540   4.244   7.482   4.524 -0.2607 -0.2433 -0.2556
24898SOL    HW179541   4.156   7.511   4.548  1.1227  2.6994  1.9551
24898SOL    HW279542   4.295   7.494   4.604  2.7747  1.2189 -2.2305
24899SOL     OW79543   7.247   1.610   8.476  0.3049  0.0790 -0.3699
24899SOL    HW179544   7.263   1.517   8.457 -0.0549 -0.3429  1.2707
24899SOL    HW279545   7.219   1.612   8.567 -0.8109  1.6923 -0.7006
24900SOL     OW79546   3.555   7.845   3.952 -0.1954 -0.4662 -0.1283
24900SOL    HW179547   3.537   7.820   4.042  0.4508  1.4515  0.5774
24900SOL    HW279548   3.526   7.769   3.900 -1.8119 -1.0815  1.5525
24901SOL     OW79549   6.509   8.843   0.356 -0.5331 -0.0230 -0.0438
24901SOL    HW179550   6.588   8.872   0.311  1.2686 -3.4390  0.6285
24901SOL    HW279551   6.466   8.784   0.294 -1.1142 -0.2600  0.5761
24902SOL     OW79552   7.516   2.900   6.443 -0.1054 -0.0734 -0.5461
24902SOL    HW179553   7.605   2.866   6.434 -0.3928 -0.6956 -1.1166
24902SOL    HW279554   7.505   2.916   6.537  0.7795  0.4913 -0.5339
24903SOL     OW79555   7.846   4.018   0.221 -0.1803 -0.2156 -0.0828
24903SOL    HW179556   7.901   4.041   0.296 -0.2663  1.9986 -0.6169
24903SOL    HW279557   7.763   4.065   0.237 -0.1496  0.3989 -1.5890
24904SOL     OW79558   1.040   7.857   0.703 -0.0571  0.1776 -0.2127
24904SOL    HW179559   1.006   7.939   0.667  0.3223 -0.1025 -1.2456
24904SOL    HW279560   0.988   7.842   0.782 -3.1178 -0.7974 -2.2586
24905SOL     OW79561   1.361   3.377   5.197 -0.0937 -0.2155 -0.3852
24905SOL    HW179562   1.448   3.399   5.231 -0.9518  2.3524  0.3325
24905SOL    HW279563   1.355   3.424   5.114 -1.0880  0.3266 -0.0227
24906SOL     OW79564   9.473   2.852   0.942  0.2374 -0.4069  0.0923
24906SOL    HW179565   9.401   2.804   0.901  0.4427  1.2618 -2.3552
24906SOL    HW279566   9.541   2.858   0.875  1.4283  0.7618  1.3180
24907SOL     OW79567   5.588   7.903   1.496 -0.0298 -0.5033  0.6373
24907SOL    HW179568   5.581   7.900   1.592 -2.5811 -0.6414  0.5207
24907SOL    HW279569   5.550   7.821   1.466 -0.4902  0.0978 -0.5074
24908SOL     OW79570   0.084   2.330   0.001  0.3784 -0.4716  0.1124
24908SOL    HW179571   0.165   2.377  -0.020  0.9190 -1.7047 -0.7068
24908SOL    HW279572   0.018   2.398   0.010  1.2270  0.4713 -0.6081
24909SOL     OW79573   2.383   7.865   5.289 -0.6454  0.1161  0.4226
24909SOL    HW179574   2.425   7.788   5.251  1.5291  0.6151  1.6195
24909SOL    HW279575   2.357   7.919   5.214 -0.9397 -1.1185 -0.3901
24910SOL     OW79576   9.232   6.264   5.992 -0.6910 -0.4788  0.2057
24910SOL    HW179577   9.324   6.277   6.015 -0.3618 -1.2715 -0.6022
24910SOL    HW279578   9.183   6.301   6.066  0.2958 -1.2543  1.2788
24911SOL     OW79579   7.552   2.226   0.242 -0.4647 -0.0027 -0.1135
24911SOL    HW179580   7.523   2.158   0.179 -1.9862  0.4042  0.0976
24911SOL    HW279581   7.639   2.198   0.269  0.5820  0.1694 -2.9313
24912SOL     OW79582   7.633   3.346   5.398  0.1029  0.2364 -0.2902
24912SOL    HW179583   7.693   3.419   5.378 -1.0905  0.9568 -1.3734
24912SOL    HW279584   7.558   3.387   5.440  0.5080 -0.7216  1.4784
24913SOL     OW79585   7.664   4.480   9.485  0.4114  0.4952  0.2709
24913SOL    HW179586   7.644   4.494   9.577 -1.1061 -0.1257  0.0699
24913SOL    HW279587   7.754   4.449   9.484  0.5900  0.9101  1.4994
24914SOL     OW79588   8.677   5.919   5.253 -0.0633  0.2764 -0.5859
24914SOL    HW179589   8.769   5.906   5.273 -0.4993 -2.0653  0.2978
24914SOL    HW279590   8.667   5.886   5.164  0.0963  1.4691 -1.0656
24915SOL     OW79591   7.987   9.002   0.064 -0.8693  0.4738  0.6308
24915SOL    HW179592   8.010   9.076   0.007  0.4710 -0.1497  0.3490
24915SOL    HW279593   7.953   9.044   0.143 -0.8600  1.3827  0.1772
24916SOL     OW79594   7.083   2.706   9.061  0.2013  0.3379  0.3501
24916SOL    HW179595   7.068   2.757   9.141  0.0841 -1.4510  1.5128
24916SOL    HW279596   7.046   2.760   8.992 -3.2695  0.3080  1.9683
24917SOL     OW79597   6.695   2.161   2.830 -0.2476  0.1252  0.0798
24917SOL    HW179598   6.730   2.229   2.772 -0.5758 -0.9141 -1.3815
24917SOL    HW279599   6.700   2.080   2.779 -1.5571 -0.6448  1.1003
24918SOL     OW79600   6.777   1.551   6.395 -0.2247  0.1042  0.1757
24918SOL    HW179601   6.718   1.514   6.329 -0.3057 -0.0674  0.3438
24918SOL    HW279602   6.814   1.474   6.439  0.0840  0.2111  0.1046
24919SOL     OW79603   9.458   3.901   7.837 -0.0389 -0.5964 -0.1094
24919SOL    HW179604   9.482   3.991   7.862 -1.2341 -0.6775  1.5400
24919SOL    HW279605   9.497   3.889   7.751  0.6673  1.2974 -0.1137
24920SOL     OW79606   8.083   9.640   7.946  0.0009  0.1318  0.4424
24920SOL    HW179607   8.130   9.721   7.926 -1.5892  1.0902  0.3508
24920SOL    HW279608   7.991   9.665   7.940 -0.5268 -1.3347  1.9218
24921SOL     OW79609   0.714   9.549   6.465 -0.4358  0.1031  0.8643
24921SOL    HW179610   0.639   9.608   6.460 -0.0209  0.6536  0.9716
24921SOL    HW279611   0.678   9.462   6.450 -0.9981  0.4295  0.2843
24922SOL     OW79612   2.889   8.054   8.605 -0.4612  0.0639  0.1747
24922SOL    HW179613   2.795   8.069   8.615 -0.3248 -0.4053  2.9736
24922SOL    HW279614   2.929   8.098   8.680  1.4903 -0.4016 -0.5137
24923SOL     OW79615   1.490   6.363   3.374  0.1617 -0.1468  0.4246
24923SOL    HW179616   1.540   6.442   3.395  0.4578 -0.4122  0.7196
24923SOL    HW279617   1.506   6.304   3.448 -1.8205  0.3390  1.3300
24924SOL     OW79618   2.767   7.713   3.787  0.2052  0.1200 -0.8790
24924SOL    HW179619   2.713   7.655   3.734 -1.1083  1.2067 -0.8006
24924SOL    HW279620   2.724   7.799   3.779  0.7302  0.5840  0.8733
24925SOL     OW79621   5.554   3.857   2.556  0.5665  0.2471  0.7856
24925SOL    HW179622   5.474   3.836   2.603  0.4088  0.3350  0.5571
24925SOL    HW279623   5.532   3.847   2.463  0.6894  0.7124  0.7019
24926SOL     OW79624   4.396   8.193   8.238  0.0874  0.0354 -0.8516
24926SOL    HW179625   4.489   8.174   8.246  0.1763 -0.8751 -3.1789
24926SOL    HW279626   4.392   8.261   8.170 -1.0148 -1.6877 -2.6153
24927SOL     OW79627   9.654   5.544   5.934  0.4342  0.1002  0.0686
24927SOL    HW179628   9.624   5.473   5.991  1.0918 -0.2467 -0.0125
24927SOL    HW279629   9.593   5.616   5.951  0.0774 -0.3052  0.5340
24928SOL     OW79630   4.605   4.294   8.301 -0.0676  0.1079 -0.0237
24928SOL    HW179631   4.539   4.235   8.339  0.2252 -1.6344 -1.9926
24928SOL    HW279632   4.580   4.301   8.209  0.2430  2.7141  0.0174
24929SOL     OW79633   7.210   4.849   0.275 -0.4757 -0.8631 -0.3333
24929SOL    HW179634   7.205   4.756   0.254 -1.7011 -0.4993 -1.8346
24929SOL    HW279635   7.182   4.893   0.195  0.8855  0.8379  0.0615
24930SOL     OW79636   2.653   4.495   5.777 -0.4945 -0.0914  0.4392
24930SOL    HW179637   2.694   4.555   5.715  2.1106 -2.2756 -0.1277
24930SOL    HW279638   2.713   4.494   5.852 -1.6287 -0.3965  1.3781
24931SOL     OW79639   2.270   7.325   2.997 -0.1728  0.1208  0.5398
24931SOL    HW179640   2.307   7.347   2.911 -0.2805 -0.5040  0.3277
24931SOL    HW279641   2.179   7.301   2.978  0.3595 -2.1084  0.4995
24932SOL     OW79642   7.710   2.203   5.350 -0.6853  0.6029 -0.5587
24932SOL    HW179643   7.759   2.144   5.406 -0.3860  1.0018 -0.3961
24932SOL    HW279644   7.773   2.231   5.284 -0.7260  1.0308 -0.4164
24933SOL     OW79645   7.391   2.827   4.933  0.2395  0.5359 -0.1200
24933SOL    HW179646   7.411   2.744   4.976  0.2695  0.9000  0.5764
24933SOL    HW279647   7.460   2.886   4.963 -0.1491  0.9853 -0.1044
24934SOL     OW79648   8.981   0.970   4.718  0.2162  0.0855 -0.1981
24934SOL    HW179649   8.940   0.968   4.632 -0.4846  2.3202  0.0083
24934SOL    HW279650   9.068   1.006   4.702  0.6646 -0.9747 -0.1577
24935SOL     OW79651   4.469   7.653   0.597 -0.0242  0.2636 -0.3664
24935SOL    HW179652   4.426   7.733   0.627  0.2731  0.6043 -0.8278
24935SOL    HW279653   4.414   7.582   0.630  1.0402  0.5430  2.2179
24936SOL     OW79654   0.134   2.368   3.097  0.0066 -0.1632  0.0103
24936SOL    HW179655   0.085   2.450   3.099 -1.1657 -0.8104  2.4561
24936SOL    HW279656   0.216   2.388   3.143 -0.8043 -0.5674  1.7378
24937SOL     OW79657   9.292   0.529   1.827 -0.1187 -0.3567  0.2148
24937SOL    HW179658   9.226   0.460   1.835  0.1910 -0.8431 -1.1368
24937SOL    HW279659   9.360   0.490   1.772  0.2662  0.8849 -0.2027
24938SOL     OW79660   8.581   0.442   0.886 -0.5001  0.2255  0.3267
24938SOL    HW179661   8.619   0.410   0.968  0.9800  0.3237 -0.2985
24938SOL    HW279662   8.568   0.363   0.834 -0.2455  0.2871  0.1696
24939SOL     OW79663   2.015   5.964   0.383 -0.4030 -0.0825  0.5564
24939SOL    HW179664   2.012   6.059   0.395 -0.2233  0.1132 -0.7569
24939SOL    HW279665   2.106   5.946   0.360  0.3308 -1.0144  3.7298
24940SOL     OW79666   7.073   9.080   3.147  0.0246 -0.3592  0.0592
24940SOL    HW179667   7.151   9.036   3.180 -0.3333 -0.9545  0.1118
24940SOL    HW279668   7.003   9.017   3.158 -0.7129  0.6037  1.1655
24941SOL     OW79669   3.325   4.780   1.262 -0.3812 -0.1193  0.5603
24941SOL    HW179670   3.402   4.725   1.275  1.8422  2.5071 -0.4380
24941SOL    HW279671   3.291   4.797   1.350  0.8563 -0.4417  1.1148
24942SOL     OW79672   3.373   0.466   2.784 -0.2488  0.0801  0.1639
24942SOL    HW179673   3.450   0.523   2.786 -0.0083 -0.0689 -2.1133
24942SOL    HW279674   3.301   0.524   2.759 -0.8754  0.1602  2.0062
24943SOL     OW79675   8.350   2.399   6.881  0.7372 -0.8800  0.0328
24943SOL    HW179676   8.435   2.355   6.880  1.2838  0.1687 -0.4374
24943SOL    HW279677   8.328   2.409   6.788  1.2026  0.9154  0.0828
24944SOL     OW79678   1.580   9.488   3.622  0.4911  0.3385  0.4508
24944SOL    HW179679   1.486   9.471   3.617  0.6776 -0.5148 -0.7170
24944SOL    HW279680   1.617   9.410   3.663  0.8726 -0.2066 -0.8631
24945SOL     OW79681   0.434   1.589   5.860  0.4219 -0.4877 -0.3593
24945SOL    HW179682   0.367   1.576   5.927  2.4551  0.6400  2.0552
24945SOL    HW279683   0.516   1.592   5.909  1.9754  0.9635 -2.8747
24946SOL     OW79684   8.665   8.585   3.185  0.3877 -0.0238  0.1838
24946SOL    HW179685   8.679   8.641   3.261 -0.8985  0.1433  0.3095
24946SOL    HW279686   8.677   8.496   3.219  1.3469  0.1041  0.2200
24947SOL     OW79687   2.205   7.368   1.819  0.8018 -0.2925 -0.2781
24947SOL    HW179688   2.194   7.418   1.899 -1.3593 -2.0079  0.6155
24947SOL    HW279689   2.237   7.282   1.848 -0.2330 -1.0217 -1.1746
24948SOL     OW79690   7.112   0.799   2.613  0.3484 -0.2545 -0.4012
24948SOL    HW179691   7.168   0.846   2.551 -0.3681  0.2558 -0.6681
24948SOL    HW279692   7.114   0.708   2.582 -1.1461  0.2136 -2.0794
24949SOL     OW79693   1.175   5.926   1.605  0.2058 -0.0354  0.1116
24949SOL    HW179694   1.108   5.919   1.673 -0.0264  0.1963 -0.0897
24949SOL    HW279695   1.125   5.940   1.524  0.5253  1.9403  0.2027
24950SOL     OW79696   9.127   8.203   7.430 -0.3284 -0.4262 -0.6315
24950SOL    HW179697   9.044   8.155   7.433 -0.2007 -0.7548 -1.9549
24950SOL    HW279698   9.102   8.295   7.431 -0.7217 -0.5256 -1.3522
24951SOL     OW79699   2.792   7.067   4.387 -0.0651 -0.1236  0.3562
24951SOL    HW179700   2.703   7.047   4.357 -0.3020  0.5362  0.6019
24951SOL    HW279701   2.849   7.023   4.324 -0.5172  2.4969 -2.0902
24952SOL     OW79702   7.728   5.242   7.040 -0.2740  0.1939 -0.1202
24952SOL    HW179703   7.779   5.287   6.973  0.1072  0.5624  0.4088
24952SOL    HW279704   7.671   5.183   6.991  2.3529 -2.0889 -0.6400
24953SOL     OW79705   7.798   0.856   1.318 -0.0203  0.1633  0.6000
24953SOL    HW179706   7.770   0.874   1.408  0.9061 -1.5978  1.3023
24953SOL    HW279707   7.850   0.775   1.325 -0.1041 -0.1416 -1.5536
24954SOL     OW79708   7.024   2.810   8.365  0.4447  0.1863  0.1554
24954SOL    HW179709   6.946   2.791   8.417  1.5719 -1.3315  1.4138
24954SOL    HW279710   7.097   2.786   8.422  1.7912 -0.5362 -1.7699
24955SOL     OW79711   1.476   2.660   8.314  0.5483 -0.0537 -0.0161
24955SOL    HW179712   1.501   2.693   8.228 -2.2629 -0.1506 -0.9718
24955SOL    HW279713   1.451   2.738   8.363  2.8391  0.0882  1.0722
24956SOL     OW79714   6.883   3.333   4.613 -0.1731  0.3670  0.2096
24956SOL    HW179715   6.844   3.352   4.527  0.1643  0.0596 -0.0124
24956SOL    HW279716   6.977   3.337   4.598 -0.0808 -1.3680  0.1687
24957SOL     OW79717   4.874   1.367   8.355  0.3055  0.1180 -0.0859
24957SOL    HW179718   4.892   1.309   8.429  0.0961 -0.1591 -0.2498
24957SOL    HW279719   4.960   1.390   8.321  0.3949  0.0317  0.0833
24958SOL     OW79720   8.716   4.831   4.381  0.0271  0.2623  0.5397
24958SOL    HW179721   8.714   4.853   4.288 -2.0391  1.1846  0.7432
24958SOL    HW279722   8.699   4.914   4.426 -0.0202 -0.3503  1.7039
24959SOL     OW79723   0.870   3.000   2.835 -0.0848 -0.4187  0.2918
24959SOL    HW179724   0.872   2.948   2.755 -0.8377  0.4035 -0.2840
24959SOL    HW279725   0.777   3.017   2.850  0.1586  3.7840 -1.6062
24960SOL     OW79726   2.027   0.187   3.765 -0.1698  0.4834 -0.4634
24960SOL    HW179727   2.074   0.186   3.682 -0.8322 -0.0295 -0.8380
24960SOL    HW279728   1.998   0.278   3.775  1.8873  1.1017  0.3597
24961SOL     OW79729   4.527   6.973   3.012 -0.7129 -0.2720  0.0999
24961SOL    HW179730   4.509   6.995   2.921  0.6077  2.0045  0.3105
24961SOL    HW279731   4.465   7.025   3.063  0.4131  0.6959  0.5364
24962SOL     OW79732   8.645   1.812   7.088 -0.5246  0.4827 -0.5514
24962SOL    HW179733   8.636   1.886   7.148  2.4747 -0.3657  1.1558
24962SOL    HW279734   8.695   1.747   7.137 -0.7301 -1.6226 -2.9141
24963SOL     OW79735   2.553   4.429   5.339 -0.1251  0.3157 -0.0933
24963SOL    HW179736   2.521   4.502   5.286 -4.0801 -0.8690  0.3379
24963SOL    HW279737   2.548   4.353   5.280  0.6899 -0.1343  0.4108
24964SOL     OW79738   0.100   6.378   7.725  0.3704  0.0641  0.1491
24964SOL    HW179739   0.155   6.352   7.651  1.6469  1.1475  0.6565
24964SOL    HW279740   0.150   6.351   7.803 -0.5114 -0.2299  0.6266
24965SOL     OW79741   0.561   0.778   0.007 -0.0338 -0.0695  0.1046
24965SOL    HW179742   0.542   0.741   0.093 -2.1470 -0.8678 -0.6391
24965SOL    HW279743   0.477   0.814  -0.023  1.0314  1.7693 -0.9200
24966SOL     OW79744   8.343   2.082   2.029 -0.4007  0.0456 -0.0159
24966SOL    HW179745   8.426   2.129   2.025 -1.1888  1.4891 -0.2188
24966SOL    HW279746   8.297   2.119   2.104 -1.2427 -0.0634 -0.4629
24967SOL     OW79747   0.248   9.282   2.477  0.1905  0.3489 -0.1954
24967SOL    HW179748   0.257   9.242   2.391  0.5916 -0.5442  0.2416
24967SOL    HW279749   0.223   9.373   2.460 -1.1827 -0.1905 -1.2221
24968SOL     OW79750   1.659   3.466   6.308  0.6572  0.5509 -0.2776
24968SOL    HW179751   1.622   3.417   6.381 -0.4171  2.8860  0.8500
24968SOL    HW279752   1.742   3.499   6.340  0.7172  0.6472 -0.5274
24969SOL     OW79753   7.750   4.775   0.737  0.5784 -0.2020  0.2991
24969SOL    HW179754   7.755   4.870   0.753 -0.4127  0.2121 -1.5345
24969SOL    HW279755   7.761   4.735   0.823  2.7785  1.5029  0.8976
24970SOL     OW79756   2.625   2.293   0.310  0.5672  0.2460  0.2205
24970SOL    HW179757   2.550   2.340   0.274  1.0691  1.6945  1.0084
24970SOL    HW279758   2.699   2.353   0.297  0.6932  1.1877  4.1749
24971SOL     OW79759   2.934   6.837   6.547 -0.0199  0.4337 -0.0351
24971SOL    HW179760   2.910   6.763   6.604  0.1414 -1.3202 -2.1379
24971SOL    HW279761   2.998   6.886   6.598  0.6668 -1.4599  1.0322
24972SOL     OW79762   8.076   4.468   8.531 -0.4050 -0.0071 -0.3663
24972SOL    HW179763   8.099   4.393   8.477 -1.4990 -0.4221 -0.2867
24972SOL    HW279764   8.009   4.514   8.481 -0.8253  0.0752  0.2587
24973SOL     OW79765   7.081   7.567   6.823 -0.0668 -0.6840 -0.7730
24973SOL    HW179766   7.009   7.543   6.881 -1.3285  0.2814 -1.8918
24973SOL    HW279767   7.060   7.525   6.740  0.4479 -0.0465 -1.2318
24974SOL     OW79768   6.427   1.818   3.252  0.1340  0.1847 -0.0394
24974SOL    HW179769   6.474   1.828   3.335  0.9274 -1.4864 -0.2552
24974SOL    HW279770   6.480   1.865   3.188  0.2113  0.3700  0.1611
24975SOL     OW79771   3.256   7.844   0.196  0.3291 -0.0785 -0.2586
24975SOL    HW179772   3.183   7.783   0.184  0.0809 -0.2117  1.6623
24975SOL    HW279773   3.306   7.836   0.115 -1.7915  0.0717 -1.6825
24976SOL     OW79774   2.318   1.907   6.055 -0.4895  0.2323  0.7351
24976SOL    HW179775   2.375   1.979   6.027  0.7668 -1.3638 -1.0343
24976SOL    HW279776   2.240   1.916   6.000 -0.8086  0.8281  1.2659
24977SOL     OW79777   7.991   3.856   3.858 -0.2304  0.1051  0.0521
24977SOL    HW179778   8.023   3.768   3.837 -2.7860 -0.5742 -1.4662
24977SOL    HW279779   8.017   3.870   3.949  2.2922 -1.2121 -0.3653
24978SOL     OW79780   3.222   3.847   8.576  0.0598  0.8020 -0.2099
24978SOL    HW179781   3.186   3.901   8.646 -3.1155  1.0121 -1.7980
24978SOL    HW279782   3.304   3.813   8.611  0.5315  3.8955  2.1271
24979SOL     OW79783   3.911   2.200   6.316  0.2029 -0.5389  0.6819
24979SOL    HW179784   3.844   2.201   6.247 -0.5154 -4.0810  1.1646
24979SOL    HW279785   3.993   2.191   6.268  0.2760  1.9641  0.1780
24980SOL     OW79786   6.553   1.530   7.858 -0.0766 -0.5064  0.1825
24980SOL    HW179787   6.617   1.595   7.889  0.0667  0.0692 -1.2344
24980SOL    HW279788   6.532   1.559   7.769 -1.1013 -1.6097  0.0551
24981SOL     OW79789   7.968   1.878   2.547 -0.0875 -0.6514  0.0203
24981SOL    HW179790   7.986   1.849   2.637  0.0806  0.5840  0.3957
24981SOL    HW279791   7.920   1.804   2.508 -1.9463 -0.4540  1.7349
24982SOL     OW79792   6.364   9.573   8.946 -0.6840  0.0013 -0.6008
24982SOL    HW179793   6.279   9.558   8.986 -0.9988 -0.3258 -1.3697
24982SOL    HW279794   6.382   9.493   8.897  0.6836 -0.4736  0.6045
24983SOL     OW79795   3.009   4.718   2.350  0.2740  0.1015 -0.1715
24983SOL    HW179796   3.008   4.719   2.254 -0.5557 -2.2645 -0.2660
24983SOL    HW279797   3.101   4.727   2.373  0.4399  1.1749 -1.1552
24984SOL     OW79798   7.234   1.973   2.709 -0.0045  0.5015 -0.1823
24984SOL    HW179799   7.298   2.034   2.745  0.0717  1.3984 -1.7803
24984SOL    HW279800   7.279   1.889   2.707  0.2693  0.5992  0.9685
24985SOL     OW79801   0.063   4.526   2.605  0.0910  0.0217 -0.0605
24985SOL    HW179802   0.098   4.608   2.570  2.4843  0.0692  2.1284
24985SOL    HW279803   0.017   4.486   2.531  4.0359  0.4498 -3.0797
24986SOL     OW79804   9.266   8.987   6.854  0.2792  0.3639  0.2885
24986SOL    HW179805   9.305   8.986   6.767 -3.5539 -0.9473 -1.6401
24986SOL    HW279806   9.241   9.079   6.867 -0.4010  0.3349 -0.6915
24987SOL     OW79807   0.511   8.716   0.495  0.4365 -0.2961  0.4402
24987SOL    HW179808   0.452   8.767   0.551  0.3411 -0.7696  0.7740
24987SOL    HW279809   0.595   8.762   0.500  0.1093  0.3989 -0.0541
24988SOL     OW79810   2.678   6.066   1.103 -0.5956  0.4916  0.7076
24988SOL    HW179811   2.692   5.997   1.038  0.9548  2.2157 -0.9115
24988SOL    HW279812   2.606   6.118   1.069 -1.4438 -0.0067  1.6836
24989SOL     OW79813   6.422   7.993   6.423  0.4307  0.3972  0.2815
24989SOL    HW179814   6.449   7.962   6.337  0.2944  2.9565 -0.7676
24989SOL    HW279815   6.366   8.069   6.406  0.2711  0.9048  2.6111
24990SOL     OW79816   2.087   7.821   6.652 -0.1728 -0.0054 -0.0584
24990SOL    HW179817   2.089   7.806   6.558 -2.1551  0.1190 -0.1729
24990SOL    HW279818   2.174   7.854   6.673  1.3612 -2.9018 -1.2835
24991SOL     OW79819   0.045   7.316   8.696 -0.3208  0.3961  0.2436
24991SOL    HW179820  -0.016   7.389   8.686 -0.0979  0.4509 -0.8343
24991SOL    HW279821   0.113   7.333   8.630  2.2491  1.7116  2.9513
24992SOL     OW79822   1.087   9.229   2.870  0.3559 -0.1240 -0.8092
24992SOL    HW179823   1.073   9.278   2.790  1.9357  0.1135 -0.9831
24992SOL    HW279824   1.013   9.250   2.926 -0.3168  0.3832 -1.8808
24993SOL     OW79825   5.499   5.567   2.379 -0.4032 -0.4864  0.5690
24993SOL    HW179826   5.553   5.539   2.453  1.2204  0.3909 -0.2251
24993SOL    HW279827   5.506   5.663   2.380  0.8011 -0.4962 -1.4766
24994SOL     OW79828   0.587   8.263   7.462 -0.0674  0.5573  0.7644
24994SOL    HW179829   0.571   8.271   7.368  0.1179 -0.0475  0.6747
24994SOL    HW279830   0.507   8.296   7.503 -0.5722 -0.1462  0.3702
24995SOL     OW79831   4.916   8.226   7.328 -0.1803  0.3662 -0.3160
24995SOL    HW179832   4.914   8.296   7.394  0.1893  2.1631 -2.1258
24995SOL    HW279833   4.884   8.149   7.375  0.6991  1.3828  2.1441
24996SOL     OW79834   6.587   1.958   7.834 -0.8394  0.4445 -0.2034
24996SOL    HW179835   6.678   1.986   7.847 -0.2215 -0.4459 -2.0876
24996SOL    HW279836   6.554   2.017   7.767 -2.1283  1.6071  1.4022
24997SOL     OW79837   7.727   2.477   9.355  0.0049 -0.3003 -0.2628
24997SOL    HW179838   7.765   2.407   9.409  0.2258  0.0634  0.0660
24997SOL    HW279839   7.773   2.556   9.384 -0.7753  0.1013 -0.0939
24998SOL     OW79840   6.787   3.794   4.276  0.0609 -0.0244 -0.4594
24998SOL    HW179841   6.744   3.743   4.344  0.1888  0.1028 -0.2831
24998SOL    HW279842   6.833   3.863   4.323  2.0468 -1.2708 -0.4985
24999SOL     OW79843   4.427   0.934   9.460 -0.3284 -0.1067  0.6704
24999SOL    HW179844   4.518   0.942   9.432 -0.8479 -0.9322 -1.4204
24999SOL    HW279845   4.418   0.844   9.489 -0.9930 -0.7208 -1.3110
25000SOL     OW79846   5.055   6.613   1.436 -0.1146  0.2281  0.4643
25000SOL    HW179847   4.993   6.572   1.496  0.1761  0.0355  0.6393
25000SOL    HW279848   5.083   6.693   1.480  0.9639 -0.4777  1.1240
25001SOL     OW79849   5.108   6.693   5.933  0.3179 -0.5588  0.1675
25001SOL    HW179850   5.068   6.611   5.962 -0.7605  0.2674  1.1048
25001SOL    HW279851   5.136   6.675   5.843  2.9781 -2.9396  1.3233
25002SOL     OW79852   2.584   1.485   9.114 -0.3373  0.2161  0.1664
25002SOL    HW179853   2.537   1.567   9.105 -0.0731  0.3017 -0.4920
25002SOL    HW279854   2.524   1.419   9.080 -0.8115  0.0366  1.3053
25003SOL     OW79855   7.980   2.328   6.073 -0.6283  0.1928 -0.0982
25003SOL    HW179856   7.890   2.353   6.054 -0.3014  2.0288  0.6260
25003SOL    HW279857   7.988   2.336   6.168  0.5837  1.1211 -0.2545
25004SOL     OW79858   2.965   2.704   1.815 -0.4894  0.0895 -0.0517
25004SOL    HW179859   2.900   2.728   1.881 -2.2745 -0.0532 -1.6718
25004SOL    HW279860   2.955   2.770   1.747  0.4346 -0.4901 -0.7665
25005SOL     OW79861   8.873   2.431   4.565  0.6074 -0.1358  0.3536
25005SOL    HW179862   8.947   2.420   4.625 -0.7237 -1.4307  1.8992
25005SOL    HW279863   8.856   2.342   4.532 -0.5217  0.0468  0.4035
25006SOL     OW79864   1.415   8.517   1.479 -0.4265  0.1779 -0.3030
25006SOL    HW179865   1.393   8.433   1.521  0.7319 -0.2534 -0.5414
25006SOL    HW279866   1.476   8.559   1.540 -1.7569  1.3341  0.3051
25007SOL     OW79867   1.904   6.556   7.745 -0.1095  0.4217 -0.1810
25007SOL    HW179868   1.818   6.554   7.703 -0.7205 -0.8115  1.0410
25007SOL    HW279869   1.957   6.493   7.695 -1.2081 -2.0124  1.5322
25008SOL     OW79870   3.521   5.376   9.405  0.4865 -0.2280 -0.7818
25008SOL    HW179871   3.549   5.354   9.316  0.0547 -0.0491 -0.9671
25008SOL    HW279872   3.442   5.323   9.419  1.7219 -1.8714  0.2920
25009SOL     OW79873   5.688   1.563   6.545 -0.1184 -0.5196 -0.4286
25009SOL    HW179874   5.622   1.632   6.541  0.6631  0.4907  1.9711
25009SOL    HW279875   5.767   1.603   6.509  0.3962 -0.0329  1.1791
25010SOL     OW79876   7.350   6.639   5.874 -0.2462 -0.0178  0.4184
25010SOL    HW179877   7.315   6.719   5.914  0.1746 -0.2548  1.2783
25010SOL    HW279878   7.395   6.594   5.945 -2.0690 -1.9768  0.4372
25011SOL     OW79879   2.824   6.483   8.980 -0.8442 -0.0252  0.6014
25011SOL    HW179880   2.744   6.521   8.943 -1.0764 -0.3519  0.7598
25011SOL    HW279881   2.885   6.480   8.907 -1.5131 -1.2602  0.0712
25012SOL     OW79882   3.031   5.305   1.378  0.3913 -0.0566  0.3063
25012SOL    HW179883   3.022   5.375   1.313 -0.7544  1.0399  1.5573
25012SOL    HW279884   2.942   5.292   1.410  1.0802  0.4138  2.5820
25013SOL     OW79885   6.549   2.474   2.887 -0.3834 -0.0044  0.2468
25013SOL    HW179886   6.615   2.439   2.827  0.7754  1.0729  0.8321
25013SOL    HW279887   6.586   2.459   2.974 -2.1959 -1.8635  0.7873
25014SOL     OW79888   1.007   4.765   5.132 -0.2363 -0.8030  0.6281
25014SOL    HW179889   0.990   4.721   5.048 -0.5203  1.2764 -0.4484
25014SOL    HW279890   0.920   4.791   5.163  0.0836  0.8331  0.1947
25015SOL     OW79891   3.961   7.946   5.441 -0.0119 -0.1546  0.0013
25015SOL    HW179892   3.924   7.909   5.360  0.9449  0.1180 -0.5786
25015SOL    HW279893   3.925   7.892   5.511 -3.0621  1.2237 -0.3012
25016SOL     OW79894   2.689   5.083   8.729  0.1218  0.6759  0.2440
25016SOL    HW179895   2.758   5.035   8.774  0.5151  1.4189  0.4528
25016SOL    HW279896   2.709   5.072   8.636 -2.3614 -3.4056 -0.0598
25017SOL     OW79897   7.682   7.939   4.032 -0.2012 -0.3662 -0.3230
25017SOL    HW179898   7.640   7.887   3.964 -1.0872 -1.3492  0.9231
25017SOL    HW279899   7.673   8.029   4.003 -1.7765 -0.6679 -0.8693
25018SOL     OW79900   1.108   5.484   2.434  0.6990 -0.4782 -0.3215
25018SOL    HW179901   1.195   5.508   2.401  0.4258  0.7882 -0.1458
25018SOL    HW279902   1.077   5.561   2.480  0.3598 -1.6347  1.5106
25019SOL     OW79903   1.485   1.579   5.607 -0.0382  0.1301 -0.1179
25019SOL    HW179904   1.545   1.569   5.533 -0.5334  0.8859 -0.6403
25019SOL    HW279905   1.423   1.647   5.579 -1.2188 -0.7086  0.3517
25020SOL     OW79906   2.869   2.330   5.161  0.3847 -0.2085  0.1438
25020SOL    HW179907   2.774   2.328   5.165  0.3109  2.0385  1.4832
25020SOL    HW279908   2.895   2.373   5.242  2.4329  0.9375 -1.0389
25021SOL     OW79909   6.346   0.823   0.698  0.5413  0.1765  0.5951
25021SOL    HW179910   6.428   0.781   0.673  0.7811  1.0978 -0.2172
25021SOL    HW279911   6.361   0.854   0.788  0.6932 -0.5745  0.8402
25022SOL     OW79912   9.309   9.283   7.162 -0.0344 -0.0384  0.1846
25022SOL    HW179913   9.316   9.229   7.240 -2.3857  1.5855  1.6469
25022SOL    HW279914   9.398   9.316   7.147  1.3161 -3.4682 -0.3002
25023SOL     OW79915   7.784   3.719   6.190  0.2593  0.7660  0.1727
25023SOL    HW179916   7.870   3.717   6.231 -0.1271 -2.1436  1.1091
25023SOL    HW279917   7.777   3.634   6.147 -2.1226  0.9344  0.1050
25024SOL     OW79918   9.017   4.869   2.285  0.2800  0.2160 -0.0777
25024SOL    HW179919   9.106   4.841   2.265 -0.3935 -1.2556 -1.2107
25024SOL    HW279920   9.027   4.959   2.315  2.3720 -0.6034  2.0065
25025SOL     OW79921   3.519   6.665   6.830  0.7759 -0.4601 -0.3066
25025SOL    HW179922   3.568   6.746   6.814  2.0498 -0.8981  1.1059
25025SOL    HW279923   3.548   6.637   6.917 -0.8766 -1.5726 -0.0848
25026SOL     OW79924   8.032   0.637   4.327 -0.1402  0.9269  0.2810
25026SOL    HW179925   7.966   0.609   4.264  0.0574  2.1257 -0.4961
25026SOL    HW279926   8.100   0.570   4.323 -0.4898  0.6008 -0.2341
25027SOL     OW79927   7.127   7.646   6.315 -0.5756  0.1747 -0.2277
25027SOL    HW179928   7.154   7.720   6.261  0.2171  0.1618  0.1525
25027SOL    HW279929   7.192   7.578   6.298  0.3710  0.5615  1.6169
25028SOL     OW79930   7.405   4.357   3.650 -0.1763 -0.3806 -0.5830
25028SOL    HW179931   7.471   4.402   3.597  2.7153 -0.6157  2.4805
25028SOL    HW279932   7.345   4.427   3.678  1.8771  0.9647  0.7602
25029SOL     OW79933   9.730   1.694   9.476  0.5664 -0.6789 -0.1675
25029SOL    HW179934   9.807   1.671   9.529  0.6305 -1.6073 -0.6461
25029SOL    HW279935   9.731   1.630   9.404 -0.6891 -0.7366 -0.1449
25030SOL     OW79936   1.570   4.226   1.912  0.2841  0.0596  0.3889
25030SOL    HW179937   1.566   4.295   1.978 -0.9566  1.0638 -0.6611
25030SOL    HW279938   1.608   4.151   1.957  1.5699  1.3843  1.6044
25031SOL     OW79939   6.918   0.123   3.042  0.0421 -0.0662 -0.3974
25031SOL    HW179940   6.831   0.083   3.040 -0.0739  0.1918 -2.1305
25031SOL    HW279941   6.978   0.049   3.031 -0.1013 -0.0170 -1.7784
25032SOL     OW79942   6.250   1.370   0.217  0.1374 -0.3003 -0.1017
25032SOL    HW179943   6.325   1.346   0.271 -1.6829 -0.7934  2.3724
25032SOL    HW279944   6.205   1.287   0.200 -1.0958  0.2220  0.4678
25033SOL     OW79945   4.030   0.329   1.952 -0.5421 -0.2482 -0.2204
25033SOL    HW179946   3.992   0.264   2.011  0.6956 -1.5966 -0.8597
25033SOL    HW279947   4.028   0.411   2.002 -3.3139 -0.4297  0.1341
25034SOL     OW79948   1.357   4.561   4.644  0.0264 -0.1831 -0.0208
25034SOL    HW179949   1.414   4.527   4.713 -0.7550  0.6754  1.0838
25034SOL    HW279950   1.407   4.548   4.563  1.5147 -0.0457  0.8378
25035SOL     OW79951   7.817   6.418   9.198 -0.2778 -0.8252 -0.1973
25035SOL    HW179952   7.777   6.401   9.112 -1.4618  0.3770  0.0829
25035SOL    HW279953   7.843   6.510   9.194  0.0820 -0.8910  0.5831
25036SOL     OW79954   5.640   3.583   5.714 -0.3455  0.2273 -0.0685
25036SOL    HW179955   5.579   3.514   5.687 -0.2278  0.6117 -1.3524
25036SOL    HW279956   5.709   3.582   5.647  0.2230  0.8745  0.4909
25037SOL     OW79957   7.750   6.249   6.651 -0.0356  0.4357 -0.2871
25037SOL    HW179958   7.682   6.262   6.718  0.8140 -0.1721  0.7289
25037SOL    HW279959   7.702   6.233   6.570 -1.0959  1.1899  0.1718
25038SOL     OW79960   7.881   5.627   4.306 -0.4729  0.2695  0.1564
25038SOL    HW179961   7.919   5.576   4.234  0.1215 -0.5672  1.0425
25038SOL    HW279962   7.935   5.706   4.309 -0.4148  0.2497 -0.2306
25039SOL     OW79963   0.072   1.499   7.534 -0.0563  0.0254  0.0436
25039SOL    HW179964   0.048   1.461   7.618  0.5612 -1.2689 -0.3371
25039SOL    HW279965   0.112   1.583   7.556  0.4599 -0.4745  1.0699
25040SOL     OW79966   4.545   6.779   8.267 -0.8538 -0.0132  0.9753
25040SOL    HW179967   4.587   6.830   8.336  2.8022 -1.2053 -0.1715
25040SOL    HW279968   4.542   6.839   8.192 -0.7352 -0.0690  0.9251
25041SOL     OW79969   9.476   6.291   6.170  0.9535 -0.4298  0.3905
25041SOL    HW179970   9.509   6.214   6.124  1.0174 -0.0787 -0.1550
25041SOL    HW279971   9.448   6.258   6.255  0.5508 -1.1395 -0.0107
25042SOL     OW79972   3.167   2.007   3.617  0.3928 -0.2525  0.5794
25042SOL    HW179973   3.259   2.030   3.606  0.0944  1.1302  0.7837
25042SOL    HW279974   3.126   2.033   3.534  0.4218 -2.3473 -0.1564
25043SOL     OW79975   6.177   7.611   5.305  0.1685 -0.2431  0.1021
25043SOL    HW179976   6.176   7.687   5.246 -2.5009  0.8372  1.3883
25043SOL    HW279977   6.085   7.588   5.318  0.8076 -2.3662  1.4645
25044SOL     OW79978   1.711   6.070   9.221 -0.4376 -0.1306 -0.4744
25044SOL    HW179979   1.686   6.052   9.131  0.2322 -0.2203 -0.6476
25044SOL    HW279980   1.638   6.120   9.257 -1.1984 -1.0185 -0.7388
25045SOL     OW79981   5.678   1.708   4.982  0.0990  0.0088  0.0476
25045SOL    HW179982   5.737   1.634   4.995 -0.2580 -0.5297 -1.2007
25045SOL    HW279983   5.592   1.674   5.010  0.2864  0.6527  1.4660
25046SOL     OW79984   6.589   4.467   0.007 -0.6898 -0.3330 -0.3408
25046SOL    HW179985   6.666   4.508   0.047 -0.9673 -1.0871  1.0297
25046SOL    HW279986   6.624   4.414  -0.064 -0.0201 -0.0658 -0.2148
25047SOL     OW79987   6.554   3.707   8.226 -0.0433  0.4664  0.2751
25047SOL    HW179988   6.522   3.617   8.227 -0.3072  0.5461  1.5722
25047SOL    HW279989   6.602   3.716   8.309  0.4021  1.3732 -0.0658
25048SOL     OW79990   9.711   5.226   7.545  0.1638 -0.1025 -0.2342
25048SOL    HW179991   9.805   5.227   7.559  0.1135  0.8570  0.1384
25048SOL    HW279992   9.698   5.177   7.464  0.9909 -0.1450 -0.3423
25049SOL     OW79993   5.249   3.020   7.719 -0.4847  0.0437 -0.4153
25049SOL    HW179994   5.301   2.978   7.651 -0.9673  0.9623 -1.3822
25049SOL    HW279995   5.189   3.078   7.671  0.5067  2.2408  0.8298
25050SOL     OW79996   6.663   8.444   8.372  0.0300 -0.2203 -0.0563
25050SOL    HW179997   6.745   8.476   8.336  1.7943 -2.5788  1.5584
25050SOL    HW279998   6.664   8.469   8.464 -0.0833 -1.9045  0.4449
25051SOL     OW79999   7.900   8.381   8.286  0.3492  0.3707 -0.2804
25051SOL    HW180000   7.874   8.330   8.209  1.8612  0.7792 -1.0950
25051SOL    HW280001   7.861   8.467   8.272  3.2010  1.4868 -2.2902
25052SOL     OW80002   0.861   3.594   2.674  0.9984  0.2061 -0.0164
25052SOL    HW180003   0.894   3.545   2.749  0.3044 -1.6747 -0.8769
25052SOL    HW280004   0.882   3.685   2.694  1.4230 -0.3019  2.1406
25053SOL     OW80005   6.814   3.933   9.248  0.2412 -0.1888  0.4291
25053SOL    HW180006   6.770   3.874   9.309 -1.5996  0.5412 -0.1092
25053SOL    HW280007   6.795   3.897   9.162 -1.7472  1.6180  0.0234
25054SOL     OW80008   3.086   7.883   2.583 -0.2459 -0.0720 -0.6619
25054SOL    HW180009   3.020   7.948   2.607  0.8241  1.1758 -1.0009
25054SOL    HW280010   3.140   7.874   2.661 -0.6744 -0.9249 -0.4578
25055SOL     OW80011   7.616   4.044   1.473 -0.1955  0.2352 -0.0278
25055SOL    HW180012   7.706   4.069   1.491  0.5471 -0.3322 -2.5953
25055SOL    HW280013   7.564   4.121   1.496  1.0447  0.9496  0.4586
25056SOL     OW80014   3.215   2.315   4.774  0.1365 -0.1929 -0.3446
25056SOL    HW180015   3.230   2.247   4.708 -0.5969  1.2684 -2.1253
25056SOL    HW280016   3.136   2.286   4.821  1.1133 -1.6398  0.4711
25057SOL     OW80017   9.480   1.360   8.160 -0.4316 -0.1876  0.0140
25057SOL    HW180018   9.563   1.320   8.135  0.8234  1.2791  1.5525
25057SOL    HW280019   9.427   1.288   8.194  1.0415 -0.8652  0.9985
25058SOL     OW80020   9.521   0.582   5.204  0.0931 -0.1077 -0.5056
25058SOL    HW180021   9.525   0.606   5.112 -1.7539 -1.4080 -0.9931
25058SOL    HW280022   9.449   0.634   5.240  0.5106  0.0680  0.0956
25059SOL     OW80023   9.187   5.935   0.626  0.1212  0.3619 -0.6753
25059SOL    HW180024   9.279   5.957   0.635 -0.1404  0.6884  2.1227
25059SOL    HW280025   9.184   5.840   0.641  0.0185  0.3231 -0.9392
25060SOL     OW80026   2.760   8.361   3.347 -0.1976  0.5792 -0.1171
25060SOL    HW180027   2.752   8.433   3.284 -0.7633  0.2237 -0.4701
25060SOL    HW280028   2.679   8.366   3.399 -0.0299  0.4771  0.1532
25061SOL     OW80029   3.732   9.543   5.883  0.1157 -0.0022 -0.0571
25061SOL    HW180030   3.731   9.527   5.788 -2.0249  2.1379 -0.4820
25061SOL    HW280031   3.681   9.471   5.920  0.1363 -0.3131 -0.6182
25062SOL     OW80032   7.130   2.692   4.964  0.3719  0.3201 -0.3621
25062SOL    HW180033   7.199   2.758   4.954  1.0742 -0.3168  0.2621
25062SOL    HW280034   7.144   2.631   4.892  0.8162 -0.1255  0.0992
25063SOL     OW80035   6.437   1.513   8.956  0.7985  0.5194 -0.2260
25063SOL    HW180036   6.352   1.490   8.919  0.8877  1.1141 -0.8145
25063SOL    HW280037   6.452   1.447   9.024 -0.3376  0.6839  0.2107
25064SOL     OW80038   0.008   6.221   7.036  0.3609 -0.6791 -0.5909
25064SOL    HW180039  -0.081   6.205   7.004 -0.2914 -1.1217  1.3136
25064SOL    HW280040   0.058   6.243   6.958 -1.6701  0.7490 -1.5937
25065SOL     OW80041   7.162   8.909   4.308 -0.2885  0.4915  0.7260
25065SOL    HW180042   7.195   8.974   4.370  0.7570 -1.5452  2.4224
25065SOL    HW280043   7.240   8.879   4.261 -0.6346 -0.1020  0.5193
25066SOL     OW80044   5.211   5.235   8.454 -0.0166 -0.1711 -0.0152
25066SOL    HW180045   5.305   5.236   8.472  0.0882  0.2652 -0.5518
25066SOL    HW280046   5.205   5.258   8.361 -0.7262  1.3598  0.3842
25067SOL     OW80047   1.582   2.398   5.601 -0.0209  0.1071 -0.0938
25067SOL    HW180048   1.603   2.415   5.693 -1.8186 -1.1795  0.6136
25067SOL    HW280049   1.666   2.383   5.559  0.7922  0.0317  1.4923
25068SOL     OW80050   1.575   7.745   6.888  0.0436 -0.1808 -0.0951
25068SOL    HW180051   1.667   7.764   6.910 -0.2911  1.6041 -0.0497
25068SOL    HW280052   1.539   7.831   6.865 -1.7886 -0.7626  0.5178
25069SOL     OW80053   2.350   8.734   7.931  0.5335 -0.2002  0.3254
25069SOL    HW180054   2.310   8.728   8.018 -0.3376 -1.6935 -0.1382
25069SOL    HW280055   2.286   8.781   7.878  0.5103 -0.3688  0.2016
25070SOL     OW80056   4.840   5.362   7.740  0.2356 -0.6470  0.4055
25070SOL    HW180057   4.813   5.364   7.648  0.4490 -0.9347  0.3348
25070SOL    HW280058   4.924   5.408   7.742 -1.7909  3.5390  1.1867
25071SOL     OW80059   2.387   2.421   5.365  0.4367 -0.8828 -0.7572
25071SOL    HW180060   2.404   2.515   5.369  1.2236 -1.0521  0.8915
25071SOL    HW280061   2.343   2.402   5.448  1.3981 -2.1688 -0.5210
25072SOL     OW80062   5.175   3.257   3.703 -0.0232 -0.2358 -0.2987
25072SOL    HW180063   5.215   3.281   3.620  2.5663  1.1837  1.2249
25072SOL    HW280064   5.139   3.340   3.736  0.6646 -0.3571  0.8081
25073SOL     OW80065   4.987   7.138   8.361  0.1738 -0.4156 -0.4135
25073SOL    HW180066   4.942   7.111   8.281 -0.9366 -0.0827  0.0625
25073SOL    HW280067   4.922   7.124   8.430  0.3586  1.2492  0.1487
25074SOL     OW80068   6.586   1.339   5.019 -0.5279  0.1471  0.0031
25074SOL    HW180069   6.549   1.421   4.986 -0.9214  0.8922  2.1551
25074SOL    HW280070   6.587   1.281   4.943  0.1926  2.2677 -1.7032
25075SOL     OW80071   7.834   1.734   6.667  0.2842 -0.1765  0.3606
25075SOL    HW180072   7.827   1.808   6.607 -1.8710  0.7057  1.6154
25075SOL    HW280073   7.789   1.662   6.623 -1.3781  0.4964  0.8773
25076SOL     OW80074   6.110   5.073   0.865 -0.0327  0.1376  0.3314
25076SOL    HW180075   6.018   5.090   0.846  0.1777 -0.1767 -1.0875
25076SOL    HW280076   6.142   5.153   0.906 -0.7072  0.6091 -0.0591
25077SOL     OW80077   1.125   9.457   8.234 -0.2642 -0.5840 -0.1302
25077SOL    HW180078   1.093   9.372   8.204  2.5755 -2.1889  0.9622
25077SOL    HW280079   1.217   9.457   8.209  0.0922  1.6886  0.9539
25078SOL     OW80080   7.157   3.610   2.973 -0.0219  0.2133 -0.0985
25078SOL    HW180081   7.081   3.580   2.923 -0.9511  1.8954  0.2524
25078SOL    HW280082   7.144   3.704   2.983  0.2791  0.0313  3.0265
25079SOL     OW80083   1.140   7.517   7.189 -0.0187 -0.4031  0.0814
25079SOL    HW180084   1.103   7.597   7.226  1.1652  0.7341 -1.1063
25079SOL    HW280085   1.065   7.471   7.153 -0.7482  0.0473  0.9726
25080SOL     OW80086   3.959   3.803   6.154 -0.5726  0.1028  0.2488
25080SOL    HW180087   4.051   3.783   6.137 -0.3309  1.8298 -0.7351
25080SOL    HW280088   3.911   3.733   6.110  0.2486 -0.2670 -0.0821
25081SOL     OW80089   5.348   7.302   6.488 -0.1279 -0.4255 -0.1792
25081SOL    HW180090   5.333   7.319   6.581  1.3066  1.2694 -0.2111
25081SOL    HW280091   5.263   7.273   6.456 -1.0233  0.2970  1.3866
25082SOL     OW80092   5.717   1.963   0.914  0.1887  0.3101  0.4785
25082SOL    HW180093   5.786   2.029   0.903 -1.4741  1.9559 -0.5694
25082SOL    HW280094   5.732   1.902   0.842  0.4163  0.7964  0.1062
25083SOL     OW80095   2.731   8.587   8.483  0.2321 -0.2970  0.8103
25083SOL    HW180096   2.749   8.673   8.520  0.0265  1.1315 -2.1294
25083SOL    HW280097   2.635   8.581   8.481  0.2433 -1.0633  1.9407
25084SOL     OW80098   7.598   3.750   0.288 -0.1175 -0.3199  1.0118
25084SOL    HW180099   7.573   3.658   0.299 -1.4545 -0.0340  0.5685
25084SOL    HW280100   7.665   3.748   0.219 -1.1703 -0.8472 -0.0371
25085SOL     OW80101   5.511   2.007   0.401 -0.0701 -0.0936 -0.3080
25085SOL    HW180102   5.516   1.967   0.488  1.0278  0.5963 -0.0323
25085SOL    HW280103   5.547   1.942   0.342  1.1377  0.2168  0.0560
25086SOL     OW80104   4.885   6.417   3.693 -0.2204  0.0425 -0.0694
25086SOL    HW180105   4.910   6.504   3.661 -1.7482  0.9905  1.1535
25086SOL    HW280106   4.789   6.419   3.691 -0.3311 -2.4110 -1.9985
25087SOL     OW80107   7.054   0.806   7.440  0.1658  0.0921 -0.0821
25087SOL    HW180108   7.017   0.742   7.501 -0.2430 -0.1795 -0.6137
25087SOL    HW280109   7.123   0.759   7.394 -0.3763 -0.0798 -0.7314
25088SOL     OW80110   4.111   7.118   7.133 -0.1980 -0.7475  0.3200
25088SOL    HW180111   4.118   7.024   7.150 -0.5904 -1.0779 -1.1546
25088SOL    HW280112   4.031   7.127   7.081  1.9128 -0.2555 -3.2293
25089SOL     OW80113   8.271   8.257   4.892  0.0521 -0.0133 -0.0356
25089SOL    HW180114   8.218   8.303   4.827 -0.8965 -1.2413 -0.1744
25089SOL    HW280115   8.212   8.190   4.928  0.3056  1.0244  2.5692
25090SOL     OW80116   4.229   0.764   8.554  0.4406 -0.3935  0.0700
25090SOL    HW180117   4.259   0.685   8.600  0.5672  1.0367  2.6116
25090SOL    HW280118   4.300   0.784   8.492  0.6021 -1.9858 -0.3055
25091SOL     OW80119   8.572   1.155   8.979 -0.4800  0.1891 -0.4952
25091SOL    HW180120   8.604   1.097   9.049 -0.6686 -0.4035 -0.8875
25091SOL    HW280121   8.649   1.204   8.950 -0.0821 -0.6482 -0.8883
25092SOL     OW80122   3.571   1.045   4.612 -0.1540  0.0476  0.1788
25092SOL    HW180123   3.522   0.962   4.610  3.1362 -2.0431 -0.4587
25092SOL    HW280124   3.651   1.027   4.562  0.7765  3.6228  0.1384
25093SOL     OW80125   1.035   1.029   7.788  0.8545  0.1140 -0.1171
25093SOL    HW180126   1.027   1.021   7.883 -4.4884 -0.0157 -0.2834
25093SOL    HW280127   1.024   0.939   7.756  0.6696  0.4089 -0.8919
25094SOL     OW80128   9.385   9.497   6.829 -0.2685 -0.8236 -0.3470
25094SOL    HW180129   9.427   9.568   6.878 -0.5492  0.0178 -1.3015
25094SOL    HW280130   9.349   9.539   6.751 -0.6072 -1.9866 -0.8417
25095SOL     OW80131   4.869   0.382   6.684 -0.5472 -0.0547  0.0542
25095SOL    HW180132   4.782   0.409   6.714 -0.9666  0.5929 -1.6563
25095SOL    HW280133   4.900   0.456   6.632  0.0382 -1.2020 -1.2769
25096SOL     OW80134   6.721   1.531   1.870 -0.5236  0.0496 -0.0956
25096SOL    HW180135   6.815   1.523   1.890 -0.7104 -0.1527  0.7566
25096SOL    HW280136   6.718   1.589   1.794  0.2756  0.4305  0.1413
25097SOL     OW80137   5.381   2.030   2.123 -0.6023  0.4476  0.1437
25097SOL    HW180138   5.326   2.084   2.066 -0.7526 -1.4356 -1.6475
25097SOL    HW280139   5.357   2.055   2.212 -3.0125  0.9981 -0.5986
25098SOL     OW80140   9.057   7.705   9.565 -0.1715 -0.1041 -0.0158
25098SOL    HW180141   9.117   7.691   9.638 -0.3512 -2.2387 -0.2331
25098SOL    HW280142   9.094   7.780   9.519  0.4743  0.7016  1.6954
25099SOL     OW80143   2.709   9.691   0.288 -0.1289 -0.4799 -0.6758
25099SOL    HW180144   2.748   9.607   0.312  2.2700  0.4108 -1.1971
25099SOL    HW280145   2.673   9.676   0.200  2.3252 -0.4545 -1.7696
25100SOL     OW80146   9.159   5.142   9.470 -0.1622  0.0101  0.6186
25100SOL    HW180147   9.230   5.149   9.533  1.7627  1.2554 -1.5029
25100SOL    HW280148   9.141   5.048   9.464  1.2720 -0.3360  1.2782
25101SOL     OW80149   9.572   7.652   9.022 -0.6543 -0.4699  0.0183
25101SOL    HW180150   9.514   7.650   8.947  0.1532  0.1257 -0.6367
25101SOL    HW280151   9.610   7.564   9.026 -1.4329 -0.8019  0.3352
25102SOL     OW80152   6.893   9.387   9.419  0.0196 -0.4587 -0.0196
25102SOL    HW180153   6.924   9.441   9.347 -0.5003  1.7316  1.3039
25102SOL    HW280154   6.967   9.384   9.480  0.4445 -2.2626 -0.5760
25103SOL     OW80155   0.138   9.432   0.444  0.0898  0.0961 -0.1988
25103SOL    HW180156   0.079   9.368   0.406 -1.3239  1.1976  0.0751
25103SOL    HW280157   0.224   9.389   0.443 -0.6997 -1.5403 -0.5751
25104SOL     OW80158   0.089   3.033   2.999  0.2545 -0.1758  0.4168
25104SOL    HW180159   0.026   3.080   2.945 -1.1387 -1.9541  0.3919
25104SOL    HW280160   0.170   3.083   2.991 -0.4238  0.6703 -1.7621
25105SOL     OW80161   0.693   3.073   1.587 -0.0081 -0.2613  0.1095
25105SOL    HW180162   0.664   3.008   1.523 -0.7376  2.2472 -2.3222
25105SOL    HW280163   0.693   3.156   1.539  1.0206  1.5629  2.9654
25106SOL     OW80164   2.402   2.540   4.016  0.8038  0.1904  0.2164
25106SOL    HW180165   2.404   2.445   4.004  1.8532  0.0886  1.0530
25106SOL    HW280166   2.401   2.552   4.111 -0.1179  1.0160  0.1111
25107SOL     OW80167   8.490   9.700   6.296  0.2923  0.0959 -0.1224
25107SOL    HW180168   8.451   9.614   6.312  1.6876 -0.3483  1.0759
25107SOL    HW280169   8.433   9.761   6.341  0.0495 -0.3583  0.1896
25108SOL     OW80170   7.539   9.576   7.855 -0.2957  0.7635 -0.2874
25108SOL    HW180171   7.526   9.481   7.850  1.2405  0.4660  0.7315
25108SOL    HW280172   7.515   9.598   7.945 -0.4465  1.3190 -0.4607
25109SOL     OW80173   9.205   1.251   4.414 -0.0577  0.3110 -0.4871
25109SOL    HW180174   9.174   1.312   4.481  1.2105  0.0858  0.3482
25109SOL    HW280175   9.257   1.305   4.355  1.3539  0.0402  0.4448
25110SOL     OW80176   9.333   7.334   3.721  0.1113 -0.0087  0.5619
25110SOL    HW180177   9.314   7.314   3.629 -1.7203 -0.3319  0.9741
25110SOL    HW280178   9.394   7.265   3.748  0.6444  0.0720 -0.3815
25111SOL     OW80179   7.835   2.849   8.547  0.1213 -0.2859  0.0323
25111SOL    HW180180   7.922   2.829   8.583 -0.0253  2.2357  2.0875
25111SOL    HW280181   7.849   2.927   8.494 -1.0017  0.5798  0.9913
25112SOL     OW80182   4.520   2.870   7.648 -0.2123 -0.1085  0.4934
25112SOL    HW180183   4.470   2.833   7.721 -1.0555  2.3537  1.2297
25112SOL    HW280184   4.593   2.915   7.690  0.1956 -0.0186 -0.2999
25113SOL     OW80185   5.087   6.885   8.466  0.3657 -0.2028 -0.0466
25113SOL    HW180186   5.180   6.888   8.487  0.5233  1.5301 -0.8030
25113SOL    HW280187   5.077   6.947   8.393 -1.0638 -1.8237 -1.3103
25114SOL     OW80188   8.639   6.132   7.530  0.1325  0.1854 -0.1018
25114SOL    HW180189   8.685   6.202   7.578  0.5952 -1.7017  2.4249
25114SOL    HW280190   8.580   6.094   7.595 -0.1069 -1.7723 -1.4070
25115SOL     OW80191   9.043   3.007   1.284 -0.0363  0.2520 -0.2312
25115SOL    HW180192   9.097   3.074   1.242  3.4122 -1.2514  1.3304
25115SOL    HW280193   9.073   2.925   1.245 -1.0593 -0.6882  0.8812
25116SOL     OW80194   8.440   8.117   5.859  0.3156  0.3749 -0.2294
25116SOL    HW180195   8.431   8.043   5.799 -1.6469 -1.6935  2.3630
25116SOL    HW280196   8.356   8.162   5.854  0.3326  0.5020  0.5415
25117SOL     OW80197   0.998   8.077   5.542  0.1346  0.0852 -0.5288
25117SOL    HW180198   1.014   8.045   5.631  2.1614  0.6451 -0.6301
25117SOL    HW280199   0.991   7.999   5.488  0.1000 -0.2499 -0.0392
25118SOL     OW80200   0.236   7.181   5.892 -0.2629 -0.6850  0.0316
25118SOL    HW180201   0.195   7.136   5.965  1.7764  1.2434  2.5381
25118SOL    HW280202   0.326   7.149   5.891  0.5396  1.4056  0.3136
25119SOL     OW80203   8.615   6.286   7.211  0.4636  0.3519  0.1949
25119SOL    HW180204   8.537   6.326   7.173 -0.2863 -1.1645  0.0597
25119SOL    HW280205   8.627   6.331   7.295 -1.9262 -0.9004  1.3046
25120SOL     OW80206   9.645   7.554   0.371  0.4094 -0.3903  0.0031
25120SOL    HW180207   9.664   7.643   0.342  2.1483 -0.0733  1.8749
25120SOL    HW280208   9.705   7.499   0.320  1.0071 -0.2172  0.5105
25121SOL     OW80209   1.985   8.873   4.116 -0.2432 -0.2611  0.1418
25121SOL    HW180210   2.044   8.941   4.083  0.5472 -0.6729  0.6485
25121SOL    HW280211   1.996   8.877   4.211 -2.6244  1.0464  0.4068
25122SOL     OW80212   4.092   8.573   0.044  0.1876 -0.2123 -0.7498
25122SOL    HW180213   4.126   8.544  -0.041  2.4786 -3.2382  1.0290
25122SOL    HW280214   4.161   8.627   0.081 -0.5077  0.5152 -0.4740
25123SOL     OW80215   0.139   5.197   3.268  0.2214 -0.0270  0.2957
25123SOL    HW180216   0.184   5.233   3.191  0.8040 -0.0151  0.6375
25123SOL    HW280217   0.049   5.230   3.260  0.8169  1.8539  0.7907
25124SOL     OW80218   0.589   1.076   9.126  0.3337 -0.7534 -0.4074
25124SOL    HW180219   0.592   0.983   9.148 -0.7892 -0.9922 -1.1896
25124SOL    HW280220   0.664   1.114   9.173  0.5265 -1.9558  0.3070
25125SOL     OW80221   4.725   3.016   9.533 -0.2551  0.6831 -0.7384
25125SOL    HW180222   4.677   2.934   9.527 -0.9509  0.6277  2.9417
25125SOL    HW280223   4.818   2.991   9.530 -0.4346 -0.5012  1.5834
25126SOL     OW80224   1.512   5.854   7.936  0.0602  0.3641  0.3800
25126SOL    HW180225   1.603   5.856   7.967  0.4489 -1.0248 -0.5726
25126SOL    HW280226   1.515   5.895   7.850 -0.0133 -0.5435 -0.0714
25127SOL     OW80227   4.615   3.187   8.450  0.0503  0.5182 -0.5909
25127SOL    HW180228   4.643   3.186   8.541 -0.0726 -0.4608 -0.5550
25127SOL    HW280229   4.624   3.096   8.421 -3.3588  0.0468 -0.4884
25128SOL     OW80230   1.548   4.740   6.174 -0.3425 -0.3576 -0.7415
25128SOL    HW180231   1.639   4.714   6.166 -0.5387 -1.0638 -0.6939
25128SOL    HW280232   1.545   4.792   6.254 -0.0225 -0.4930 -0.6399
25129SOL     OW80233   6.893   7.198   5.414  0.1576  0.6231 -0.5274
25129SOL    HW180234   6.835   7.168   5.344  1.4191  0.1823 -1.4251
25129SOL    HW280235   6.908   7.290   5.395 -0.6659  0.8930  0.0388
25130SOL     OW80236   9.249   0.456   6.462 -0.1242 -0.2097  0.1618
25130SOL    HW180237   9.192   0.529   6.484  0.2447 -0.2604  1.3904
25130SOL    HW280238   9.251   0.455   6.366 -1.6651  0.1703  0.0948
25131SOL     OW80239   3.899   2.014   2.056  0.1012  0.2751  0.1587
25131SOL    HW180240   3.888   2.102   2.021  2.2331  0.3206 -0.5427
25131SOL    HW280241   3.991   2.010   2.080 -0.0427 -1.6571  0.4963
25132SOL     OW80242   1.965   0.652   4.411 -0.8602  0.2382  0.0403
25132SOL    HW180243   2.007   0.586   4.356 -0.6640 -0.4024  0.9321
25132SOL    HW280244   1.999   0.635   4.499 -0.9319  1.4337  0.3196
25133SOL     OW80245   6.851   1.415   7.681  0.2822  0.1571  0.2718
25133SOL    HW180246   6.928   1.470   7.664  0.1609  1.1814  2.7049
25133SOL    HW280247   6.781   1.477   7.703 -0.7259 -0.8552  0.0037
25134SOL     OW80248   9.711   4.049   7.222 -0.2674 -0.3305 -0.0968
25134SOL    HW180249   9.793   4.040   7.270 -0.0860  0.8013 -0.1689
25134SOL    HW280250   9.650   3.989   7.266  0.1782 -0.0606  0.8972
25135SOL     OW80251   8.352   8.972   0.333 -0.6429 -0.2567 -0.3325
25135SOL    HW180252   8.400   9.054   0.334 -1.4284  0.2291  1.3982
25135SOL    HW280253   8.338   8.953   0.240  0.9281  0.7183 -0.7931
25136SOL     OW80254   4.182   9.600   6.511  0.7668  0.4326 -0.4662
25136SOL    HW180255   4.243   9.528   6.527  0.8488  0.5945 -0.0544
25136SOL    HW280256   4.235   9.668   6.470  0.9769  0.7652  0.3391
25137SOL     OW80257   8.797   4.046   5.622 -0.7195 -0.4653  0.1046
25137SOL    HW180258   8.780   4.071   5.531 -0.1826  1.5276  0.4902
25137SOL    HW280259   8.766   3.956   5.629  2.3820 -1.9847 -2.9258
25138SOL     OW80260   5.657   1.392   6.267 -0.3827 -0.0741  0.0031
25138SOL    HW180261   5.671   1.356   6.354  0.3467  1.2019  0.4266
25138SOL    HW280262   5.569   1.362   6.243 -0.1245 -1.4465  0.6473
25139SOL     OW80263   3.630   4.875   0.734  0.4834 -0.3035 -0.3926
25139SOL    HW180264   3.681   4.919   0.666 -0.5436  2.0683  0.2404
25139SOL    HW280265   3.617   4.943   0.801 -0.4815 -1.8736  1.0795
25140SOL     OW80266   7.800   3.795   4.180 -0.4258 -0.5154  0.6539
25140SOL    HW180267   7.781   3.761   4.267  1.5262  0.2457  1.4212
25140SOL    HW280268   7.890   3.826   4.185 -0.2255 -0.5258 -1.6663
25141SOL     OW80269   1.254   5.451   5.983  0.5048  0.4709 -0.0890
25141SOL    HW180270   1.229   5.495   6.064  0.4875 -0.6659  0.5502
25141SOL    HW280271   1.308   5.377   6.012  0.1673 -0.1766 -1.0756
25142SOL     OW80272   3.012   2.113   8.369 -0.2929 -0.0810 -0.4455
25142SOL    HW180273   3.025   2.096   8.276 -2.9012  0.1206 -0.9122
25142SOL    HW280274   2.935   2.061   8.393  0.3077 -0.1228  1.6153
25143SOL     OW80275   5.010   8.261   6.800 -0.1736 -0.6375  0.1608
25143SOL    HW180276   4.942   8.207   6.841 -0.9812 -0.0834 -0.4141
25143SOL    HW280277   5.035   8.324   6.868 -1.7845  0.5287 -0.2693
25144SOL     OW80278   8.176   5.275   9.744  0.1177  0.1328  0.6263
25144SOL    HW180279   8.204   5.191   9.708 -0.0902 -0.0589  0.9063
25144SOL    HW280280   8.257   5.325   9.754  0.2309  0.0008  0.3658
25145SOL     OW80281   7.951   8.298   5.891 -0.2054  0.2567  0.2006
25145SOL    HW180282   7.947   8.393   5.892  0.4770  0.2883  0.3498
25145SOL    HW280283   7.867   8.270   5.929 -0.9271  0.7765 -0.9399
25146SOL     OW80284   7.886   1.446   5.836  0.6384 -0.3707  0.2079
25146SOL    HW180285   7.865   1.443   5.743  0.7301  4.9226 -0.2623
25146SOL    HW280286   7.803   1.467   5.878  1.0483 -0.3883  1.0414
25147SOL     OW80287   4.900   8.305   5.494  0.0856 -0.1859  0.3103
25147SOL    HW180288   4.816   8.351   5.494  0.0738 -0.1698 -1.0164
25147SOL    HW280289   4.965   8.374   5.509  0.0702  0.3095 -1.6907
25148SOL     OW80290   5.918   1.879   7.031  0.3251 -0.0348 -0.1144
25148SOL    HW180291   5.889   1.799   6.987  0.9780 -1.2092  1.5104
25148SOL    HW280292   5.936   1.940   6.959  0.4578 -1.5567 -1.4360
25149SOL     OW80293   0.528   0.270   1.291 -0.1808  0.6835 -0.1013
25149SOL    HW180294   0.527   0.185   1.246 -1.2560 -0.2613  1.5980
25149SOL    HW280295   0.443   0.308   1.271  0.3063  1.4001 -0.8736
25150SOL     OW80296   0.871   0.421   3.377  0.1686  0.0215 -0.3450
25150SOL    HW180297   0.949   0.364   3.371  0.8876  0.8607  0.6576
25150SOL    HW280298   0.807   0.369   3.426  0.7156 -0.0485  0.3129
25151SOL     OW80299   5.042   6.485   5.050  0.3867 -0.2071 -0.3656
25151SOL    HW180300   5.007   6.475   5.139  1.7890 -0.5117  0.1759
25151SOL    HW280301   4.987   6.428   4.996 -0.8818  0.4515  0.1694
25152SOL     OW80302   7.587   4.398   2.718 -0.0007 -0.0323  0.4395
25152SOL    HW180303   7.509   4.342   2.705  1.5015 -1.8899 -1.1952
25152SOL    HW280304   7.607   4.432   2.631 -0.4948  2.7168  1.2978
25153SOL     OW80305   7.339   0.700   2.797 -0.4008  0.0014  0.2561
25153SOL    HW180306   7.390   0.732   2.722  0.3649 -2.1756 -0.2186
25153SOL    HW280307   7.401   0.700   2.870 -1.0895  1.9162  0.9183
25154SOL     OW80308   3.783   4.418   8.199  0.2327 -0.4587  0.6489
25154SOL    HW180309   3.868   4.456   8.176  0.2809 -0.9709 -0.0862
25154SOL    HW280310   3.739   4.406   8.115 -1.5618  1.9667  1.1484
25155SOL     OW80311   2.428   4.293   8.288  0.1316 -0.0674  0.3772
25155SOL    HW180312   2.463   4.227   8.348  0.8603  0.8726  1.0206
25155SOL    HW280313   2.442   4.377   8.333 -3.6085  0.3906  1.0415
25156SOL     OW80314   1.697   0.553   4.552 -0.5212  0.3047 -0.0991
25156SOL    HW180315   1.668   0.610   4.623 -0.3690 -0.3822  0.5325
25156SOL    HW280316   1.681   0.603   4.472 -2.1291  0.5064  0.3095
25157SOL     OW80317   0.746   2.343   7.607 -0.5539 -0.0593  0.5443
25157SOL    HW180318   0.698   2.286   7.547 -0.5925  0.6069 -0.0618
25157SOL    HW280319   0.748   2.294   7.689  0.7826 -1.6473 -0.3766
25158SOL     OW80320   6.010   5.012   5.191 -0.0294 -0.1526 -0.5485
25158SOL    HW180321   6.036   5.081   5.252 -1.6775 -0.4361  0.5253
25158SOL    HW280322   5.930   5.046   5.150  0.1641 -0.6563 -1.3729
25159SOL     OW80323   6.992   5.411   2.832 -0.2067  0.1709 -0.3452
25159SOL    HW180324   6.914   5.432   2.781 -0.7882 -0.0787  0.4223
25159SOL    HW280325   7.050   5.485   2.818 -0.8047  0.6235 -0.4873
25160SOL     OW80326   6.257   0.611   5.465 -0.1506 -0.1402 -0.0546
25160SOL    HW180327   6.162   0.623   5.468 -0.2488 -0.7510 -0.5123
25160SOL    HW280328   6.275   0.546   5.533  0.1475  1.1101  1.1165
25161SOL     OW80329   2.053   3.924   6.791 -0.3705 -0.3788  0.0387
25161SOL    HW180330   2.094   3.885   6.714  1.1060 -0.7807  0.9722
25161SOL    HW280331   2.016   3.849   6.839 -0.1149 -0.2950  0.3714
25162SOL     OW80332   1.155   5.533   8.806 -0.4753  0.0215 -0.1222
25162SOL    HW180333   1.199   5.538   8.722  2.2518 -0.6495  1.1569
25162SOL    HW280334   1.108   5.450   8.804 -0.3191 -0.0531 -0.9306
25163SOL     OW80335   0.294   6.571   9.151  0.2956 -0.1595 -0.3649
25163SOL    HW180336   0.246   6.589   9.231 -2.5688 -0.8656 -1.7888
25163SOL    HW280337   0.332   6.484   9.165 -0.8988 -0.6442 -0.0594
25164SOL     OW80338   6.741   5.743   0.676 -0.1444 -0.8672 -0.1568
25164SOL    HW180339   6.761   5.775   0.588 -0.8382 -4.1475 -1.6725
25164SOL    HW280340   6.818   5.765   0.728  0.5198  0.6695 -1.6766
25165SOL     OW80341   8.113   7.850   5.564  0.0425  0.6603  0.2329
25165SOL    HW180342   8.148   7.766   5.536 -0.5957 -0.7328  3.1764
25165SOL    HW280343   8.022   7.850   5.534 -0.1723 -0.0636  0.8678
25166SOL     OW80344   1.623   0.498   2.350 -0.1665  0.6051  0.1125
25166SOL    HW180345   1.601   0.411   2.317 -1.8853  1.2462 -0.5312
25166SOL    HW280346   1.601   0.495   2.443  1.5762 -0.1888  0.5462
25167SOL     OW80347   1.097   6.255   7.418 -0.2254  0.0860 -0.8109
25167SOL    HW180348   1.050   6.335   7.442 -1.2861 -0.6070 -0.5411
25167SOL    HW280349   1.030   6.196   7.385  0.3276 -1.1992  0.2871
25168SOL     OW80350   3.195   5.753   6.741  0.3366  0.4876  0.3152
25168SOL    HW180351   3.125   5.688   6.740 -1.4459  2.2849  0.6518
25168SOL    HW280352   3.200   5.783   6.650  2.0622 -0.9581 -0.1194
25169SOL     OW80353   0.568   5.681   3.957 -0.6949 -0.6595 -0.6040
25169SOL    HW180354   0.524   5.764   3.978 -0.0396 -0.4818  0.1291
25169SOL    HW280355   0.525   5.617   4.013 -1.2904 -0.8478 -1.2666
25170SOL     OW80356   6.907   3.649   3.621  0.0567  0.0954  0.0693
25170SOL    HW180357   6.961   3.650   3.700 -0.4027 -0.3763  0.3910
25170SOL    HW280358   6.889   3.742   3.604  1.0468  0.2632 -0.1020
25171SOL     OW80359   6.893   5.531   2.355  0.4563  0.0877 -0.1936
25171SOL    HW180360   6.829   5.590   2.394  0.3038 -1.3027  1.7877
25171SOL    HW280361   6.977   5.575   2.366  0.3232  0.0594  1.0891
25172SOL     OW80362   3.577   4.287   0.996 -0.1053  0.1783 -0.6047
25172SOL    HW180363   3.526   4.364   0.973  0.5268  1.0227  0.6954
25172SOL    HW280364   3.618   4.310   1.079  0.4057 -1.4217 -0.3866
25173SOL     OW80365   3.682   2.136   0.784  0.7863  0.3122 -0.0828
25173SOL    HW180366   3.648   2.052   0.816  1.0849  0.1777 -0.1251
25173SOL    HW280367   3.679   2.128   0.689  2.4751 -0.3240 -0.1097
25174SOL     OW80368   2.167   2.968   6.359  0.6659  0.3295  0.3684
25174SOL    HW180369   2.193   3.058   6.376  0.2386  0.2028  1.8325
25174SOL    HW280370   2.205   2.918   6.431  1.0865 -0.7014 -0.5445
25175SOL     OW80371   7.323   6.285   2.388 -0.5180  0.7398 -0.3531
25175SOL    HW180372   7.249   6.311   2.333 -0.0101  0.2172 -1.3091
25175SOL    HW280373   7.395   6.272   2.326 -0.4993 -2.0914  0.1338
25176SOL     OW80374   7.133   2.987   8.603  1.1461 -0.3973 -0.2893
25176SOL    HW180375   7.195   3.032   8.545  0.9150  0.1473 -0.1245
25176SOL    HW280376   7.054   2.978   8.550  0.9383  0.0898 -0.0752
25177SOL     OW80377   2.432   3.548   7.044  0.4556 -0.2278  0.3322
25177SOL    HW180378   2.397   3.552   7.133 -0.2924  1.1724  0.0108
25177SOL    HW280379   2.503   3.485   7.049  0.2950 -0.3283  1.8767
25178SOL     OW80380   3.597   3.170   8.978  0.2235 -0.3387  0.2007
25178SOL    HW180381   3.644   3.118   9.042  1.0813  0.4215  0.2142
25178SOL    HW280382   3.537   3.109   8.936 -0.9106 -0.7036  2.2273
25179SOL     OW80383   2.224   7.050   4.087  0.0470 -0.3707  0.3586
25179SOL    HW180384   2.140   7.057   4.041  0.2062 -2.0840 -0.2900
25179SOL    HW280385   2.214   6.974   4.145  1.1121 -0.5666  0.3158
25180SOL     OW80386   0.327   8.409   4.135 -0.1281  0.8459  0.0090
25180SOL    HW180387   0.393   8.356   4.179 -0.2951 -0.4701 -1.2419
25180SOL    HW280388   0.244   8.368   4.159 -0.3978  1.6572  0.4811
25181SOL     OW80389   9.558   6.962   2.660  0.1420 -0.1574  0.4213
25181SOL    HW180390   9.617   6.888   2.670  0.4642  0.2878  2.1151
25181SOL    HW280391   9.472   6.922   2.648  0.2155 -0.8517  1.9319
25182SOL     OW80392   5.050   2.209   1.136 -0.1672  0.3346 -0.3792
25182SOL    HW180393   4.978   2.194   1.196  1.5999 -0.0154  1.7996
25182SOL    HW280394   5.022   2.281   1.081 -1.7665  0.8958  1.0994
25183SOL     OW80395   3.014   6.116   2.996  0.1394  0.5008 -0.2836
25183SOL    HW180396   2.981   6.156   2.916  0.3714  0.2224 -0.5191
25183SOL    HW280397   2.935   6.095   3.046 -0.2815 -2.8546 -2.1202
25184SOL     OW80398   1.999   0.150   0.888 -0.0664  0.1090  0.0611
25184SOL    HW180399   2.042   0.202   0.956 -2.7449 -1.2724  3.0873
25184SOL    HW280400   2.016   0.059   0.912 -1.5391 -0.4335 -0.7886
25185SOL     OW80401   3.623   2.178   2.687 -0.5457  0.2196  0.3848
25185SOL    HW180402   3.538   2.210   2.717 -0.5498  1.1333 -0.5585
25185SOL    HW280403   3.636   2.220   2.602  0.4205 -0.6559  0.0814
25186SOL     OW80404   1.736   9.484   0.098  0.5242  0.4879 -0.1179
25186SOL    HW180405   1.663   9.449   0.149  0.9211  0.0405  0.1545
25186SOL    HW280406   1.794   9.524   0.163  0.6836  0.5496 -0.2974
25187SOL     OW80407   0.895   5.136   4.229 -0.0494  0.0157  0.5641
25187SOL    HW180408   0.841   5.097   4.160 -0.7124 -0.8855  1.5458
25187SOL    HW280409   0.931   5.215   4.190  0.0334 -0.7484 -0.9812
25188SOL     OW80410   5.558   5.340   5.142  0.5471  0.1581 -0.0124
25188SOL    HW180411   5.579   5.429   5.170 -0.1818  0.1399  0.6326
25188SOL    HW280412   5.471   5.324   5.177  0.8766 -0.9998  0.3362
25189SOL     OW80413   8.715   3.400   8.377 -0.2287  0.6158 -0.7371
25189SOL    HW180414   8.659   3.401   8.454 -0.6752 -2.0568 -0.9201
25189SOL    HW280415   8.676   3.465   8.318 -2.9170 -0.7724 -0.6429
25190SOL     OW80416   8.224   9.107   3.186  0.1696  0.6356  0.2366
25190SOL    HW180417   8.198   9.199   3.196  1.3428  0.9656  0.3567
25190SOL    HW280418   8.312   9.111   3.149  0.2709 -0.4474  0.3388
25191SOL     OW80419   4.654   6.431   1.286 -0.1581 -0.0308 -0.0921
25191SOL    HW180420   4.664   6.448   1.380  1.1950 -0.2460 -0.1724
25191SOL    HW280421   4.641   6.518   1.248  0.1390  0.1483  0.2054
25192SOL     OW80422   1.804   4.695   7.816 -0.7198 -0.3027  0.2859
25192SOL    HW180423   1.776   4.628   7.754 -0.2172  0.9554 -1.3618
25192SOL    HW280424   1.742   4.767   7.804 -0.2811  0.1851  0.8622
25193SOL     OW80425   5.939   1.202   5.526  0.3088  0.7586  0.5270
25193SOL    HW180426   6.021   1.166   5.492  1.0921  1.1791  1.8971
25193SOL    HW280427   5.922   1.279   5.471 -0.2163 -0.3918 -1.0014
25194SOL     OW80428   2.030   7.649   3.867 -0.2059  0.5548  0.0343
25194SOL    HW180429   1.944   7.659   3.907  0.7702  0.2901  2.3658
25194SOL    HW280430   2.058   7.561   3.892 -0.1227 -0.2511 -2.5835
25195SOL     OW80431   7.308   4.126   5.603 -0.2825 -0.4932 -0.4095
25195SOL    HW180432   7.394   4.165   5.586  0.0659 -1.6823 -1.5276
25195SOL    HW280433   7.300   4.125   5.698  1.1796 -0.8474 -0.2720
25196SOL     OW80434   8.749   7.281   6.722  0.6474 -0.1691 -0.0757
25196SOL    HW180435   8.668   7.261   6.675  0.4379 -1.8343  0.8894
25196SOL    HW280436   8.732   7.364   6.766 -0.1446  0.0371 -0.7546
25197SOL     OW80437   7.914   4.759   0.389  0.1643 -0.2801 -0.6269
25197SOL    HW180438   7.871   4.845   0.390  1.4349  0.3760  0.0243
25197SOL    HW280439   7.858   4.704   0.445  0.0577  0.5038  0.0607
25198SOL     OW80440   6.178   1.264   7.440  0.2735  0.6980  0.0697
25198SOL    HW180441   6.157   1.284   7.349  1.8624  1.0605 -0.2425
25198SOL    HW280442   6.177   1.348   7.485 -0.8002  0.4877  0.4805
25199SOL     OW80443   1.517   4.969   1.036 -0.1668  0.0053  0.3478
25199SOL    HW180444   1.446   4.912   1.064 -0.4610  0.3254  0.2717
25199SOL    HW280445   1.502   5.051   1.084  0.2688  0.0107  0.4844
25200SOL     OW80446   9.053   5.402   9.400 -0.8045 -0.4969 -0.2450
25200SOL    HW180447   9.042   5.463   9.472 -0.6639  0.6014 -1.1360
25200SOL    HW280448   9.059   5.316   9.442 -0.5721  0.1347  1.0469
25201SOL     OW80449   8.740   1.103   0.891  0.1507  0.1251 -0.2474
25201SOL    HW180450   8.676   1.137   0.954  0.0826  1.0562 -0.8093
25201SOL    HW280451   8.803   1.055   0.945 -0.0335  0.7208  0.5095
25202SOL     OW80452   0.701   5.755   4.264 -0.4586 -0.5876 -0.1975
25202SOL    HW180453   0.719   5.693   4.335  0.3487 -0.6849 -0.4764
25202SOL    HW280454   0.614   5.731   4.233 -1.3444  0.2081  1.5175
25203SOL     OW80455   8.666   9.661   3.924  0.3801  0.7341  0.1917
25203SOL    HW180456   8.647   9.754   3.926 -0.7758  0.5258 -0.2811
25203SOL    HW280457   8.668   9.638   3.831  0.3643  0.2397  0.3055
25204SOL     OW80458   6.574   5.732   6.057 -0.3548  0.1130 -0.0285
25204SOL    HW180459   6.650   5.697   6.103 -1.4694 -1.8034  0.4646
25204SOL    HW280460   6.586   5.705   5.966  0.7274  1.9697 -0.5023
25205SOL     OW80461   2.006   2.870   5.647  0.0294 -0.3022 -0.2065
25205SOL    HW180462   2.026   2.802   5.583  2.6932 -2.2485  2.4100
25205SOL    HW280463   1.917   2.851   5.676 -0.4191 -0.6887 -1.7592
25206SOL     OW80464   9.750   0.255   6.525 -0.3691  0.1379 -0.1419
25206SOL    HW180465   9.721   0.166   6.504 -0.7170 -0.2233  1.7373
25206SOL    HW280466   9.696   0.311   6.469 -0.4784 -0.7818 -1.0007
25207SOL     OW80467   6.674   4.804   3.079 -0.0115 -0.4425 -0.2180
25207SOL    HW180468   6.628   4.727   3.112 -1.3358 -0.7483 -2.5805
25207SOL    HW280469   6.621   4.878   3.107  1.4031 -0.2371  2.2909
25208SOL     OW80470   8.061   3.136   6.975 -0.1283  0.3606  0.0920
25208SOL    HW180471   8.011   3.064   7.013 -1.1304  0.9613 -0.0377
25208SOL    HW280472   8.002   3.173   6.909  0.7697  0.6546 -0.5529
25209SOL     OW80473   6.563   2.536   9.645  0.0347 -0.3361  0.3387
25209SOL    HW180474   6.521   2.451   9.631  0.7297 -0.6230 -0.0856
25209SOL    HW280475   6.650   2.526   9.606 -0.1965  0.8603 -0.5319
25210SOL     OW80476   6.278   4.513   8.432  0.6683 -0.2474  0.1140
25210SOL    HW180477   6.315   4.495   8.346  1.9638  0.6737  0.4579
25210SOL    HW280478   6.267   4.426   8.472  1.4236 -0.6052 -0.4307
25211SOL     OW80479   8.922   0.972   0.041 -0.0766 -0.3059 -0.7410
25211SOL    HW180480   8.981   1.039   0.006  1.2621  0.5855  2.7884
25211SOL    HW280481   8.844   0.978  -0.014  0.3607  3.5143 -1.2316
25212SOL     OW80482   0.996   3.523   7.339 -0.2831 -0.1217 -0.6378
25212SOL    HW180483   0.938   3.546   7.267  2.3050 -0.8584 -3.1608
25212SOL    HW280484   1.023   3.606   7.377 -0.7419  0.3460 -1.3242
25213SOL     OW80485   5.929   4.924   2.244 -0.3821 -0.2307  0.2423
25213SOL    HW180486   5.887   4.997   2.199 -0.7701 -0.3313  0.4410
25213SOL    HW280487   5.878   4.847   2.219 -1.2804 -0.1474  1.7025
25214SOL     OW80488   0.567   1.581   4.524 -0.3873 -0.3842  0.2021
25214SOL    HW180489   0.551   1.623   4.440  1.7766  2.2092  0.9572
25214SOL    HW280490   0.615   1.502   4.503 -1.5974 -0.8187 -1.0732
25215SOL     OW80491   1.807   4.644   5.162 -0.2437  0.1407  0.5640
25215SOL    HW180492   1.776   4.648   5.071 -0.6765 -0.5889  0.6767
25215SOL    HW280493   1.903   4.644   5.154 -0.2616  1.1494  0.1637
25216SOL     OW80494   9.740   4.974   9.310  0.3440  0.8511  0.0440
25216SOL    HW180495   9.653   5.013   9.321 -0.4301 -0.7636 -0.0506
25216SOL    HW280496   9.749   4.963   9.215  0.1215 -0.1188  0.1332
25217SOL     OW80497   8.881   2.345   6.655 -0.5892 -0.5230  0.6659
25217SOL    HW180498   8.937   2.340   6.733  0.7845  0.1613 -0.2334
25217SOL    HW280499   8.804   2.393   6.683  0.2849  0.4932  1.4034
25218SOL     OW80500   8.420   6.440   7.109  0.2249  0.1593  0.3657
25218SOL    HW180501   8.425   6.477   7.021  0.0660 -1.4331 -0.3540
25218SOL    HW280502   8.334   6.468   7.142  0.2988  0.7883  0.0185
25219SOL     OW80503   1.347   4.660   5.437 -0.4431  0.5683 -0.0386
25219SOL    HW180504   1.425   4.703   5.471 -0.0373 -1.1284  1.3092
25219SOL    HW280505   1.301   4.729   5.389  0.8526  2.1145  0.8361
25220SOL     OW80506   9.192   7.254   4.555 -0.5973 -0.0087 -0.0867
25220SOL    HW180507   9.220   7.163   4.567  0.8487  0.3252 -0.7044
25220SOL    HW280508   9.273   7.303   4.548 -1.3407  1.0943 -1.5417
25221SOL     OW80509   0.178   4.971   0.748 -0.3135  0.2679  0.6887
25221SOL    HW180510   0.165   4.974   0.653 -0.4100  1.9856  0.7234
25221SOL    HW280511   0.090   4.970   0.785 -0.3358 -2.3738  0.8068
25222SOL     OW80512   6.253   1.427   3.274  0.2120  0.1171 -0.1186
25222SOL    HW180513   6.338   1.434   3.317  0.5436 -3.5579  0.1300
25222SOL    HW280514   6.191   1.408   3.345 -0.1869 -0.6045 -0.6415
25223SOL     OW80515   9.428   0.145   1.447 -0.1304 -0.4694  0.0247
25223SOL    HW180516   9.380   0.228   1.441 -0.4200 -0.5985  0.5005
25223SOL    HW280517   9.365   0.079   1.419 -0.3404 -0.6718  0.9345
25224SOL     OW80518   8.059   8.358   6.924 -0.1288 -0.7199  0.1280
25224SOL    HW180519   8.040   8.264   6.929 -0.9806 -0.5846 -0.2515
25224SOL    HW280520   8.086   8.372   6.833 -0.8852 -0.4555 -0.0632
25225SOL     OW80521   7.580   8.083   8.404 -0.4152  0.5858 -0.0156
25225SOL    HW180522   7.600   8.064   8.312  0.3350  2.4216 -0.2772
25225SOL    HW280523   7.653   8.137   8.433 -1.6819  1.7926  1.0341
25226SOL     OW80524   4.256   4.587   4.723 -0.0953 -0.9519  0.0433
25226SOL    HW180525   4.309   4.660   4.690 -1.9049 -0.6555 -2.5392
25226SOL    HW280526   4.210   4.623   4.798  1.2998 -0.4060  0.6744
25227SOL     OW80527   6.616   4.127   0.082  0.3097 -0.3267  0.1225
25227SOL    HW180528   6.527   4.095   0.067 -0.0193  0.3172  0.6839
25227SOL    HW280529   6.620   4.146   0.176  0.7568  0.4895 -0.0513
25228SOL     OW80530   8.466   2.817   7.486  0.5222  0.4459 -0.0108
25228SOL    HW180531   8.496   2.823   7.576  1.0355  0.7084 -0.1923
25228SOL    HW280532   8.373   2.837   7.490  0.3730 -0.3262  0.5586
25229SOL     OW80533   7.155   6.359   3.479 -0.6906  0.1136  0.3008
25229SOL    HW180534   7.172   6.347   3.573  0.6343 -0.3971  0.0117
25229SOL    HW280535   7.175   6.274   3.440 -0.7940  0.4546 -0.5101
25230SOL     OW80536   6.520   3.766   7.549  1.0369 -0.1677 -0.2439
25230SOL    HW180537   6.582   3.769   7.476  0.9652  0.3705 -0.2850
25230SOL    HW280538   6.531   3.850   7.593 -0.2528  0.2821 -0.7411
25231SOL     OW80539   7.855   0.446   0.611 -0.1855  0.0400 -0.6117
25231SOL    HW180540   7.798   0.479   0.542  0.5065  1.6143 -0.4759
25231SOL    HW280541   7.895   0.524   0.648 -0.6702 -0.7235  1.7125
25232SOL     OW80542   4.859   7.203   2.756 -0.0782 -0.4700 -0.1208
25232SOL    HW180543   4.884   7.278   2.702  1.5399 -0.4752  0.5605
25232SOL    HW280544   4.884   7.228   2.845  0.2722 -1.7053  0.1523
25233SOL     OW80545   2.893   3.740   7.987  0.1580 -0.3094 -0.6524
25233SOL    HW180546   2.843   3.820   8.000  1.0482 -0.1590  2.9116
25233SOL    HW280547   2.839   3.672   8.028  1.0881 -0.8077 -0.2272
25234SOL     OW80548   7.675   8.062   7.910  0.3955 -0.7049  0.3456
25234SOL    HW180549   7.670   7.968   7.928 -1.2543 -0.5785  0.6721
25234SOL    HW280550   7.585   8.089   7.894  0.9258  0.6820 -0.5945
25235SOL     OW80551   3.137   8.942   8.596 -0.1855  0.3814  0.4373
25235SOL    HW180552   3.052   8.982   8.613 -0.7083 -0.7324  0.5484
25235SOL    HW280553   3.128   8.906   8.507  0.4281  0.8774  0.1641
25236SOL     OW80554   9.565   2.844   9.183 -0.8582  0.2220 -0.5880
25236SOL    HW180555   9.622   2.795   9.124  0.6076  1.1505 -0.0211
25236SOL    HW280556   9.521   2.777   9.235  1.6163 -0.6005  0.6615
25237SOL     OW80557   3.308   0.135   1.796  0.0410 -0.4252  0.4775
25237SOL    HW180558   3.223   0.102   1.826  0.2098  0.6084  2.2443
25237SOL    HW280559   3.371   0.100   1.859  0.6188  0.6268  0.5046
25238SOL     OW80560   7.826   2.005   5.515  0.1579  0.3138 -0.5926
25238SOL    HW180561   7.836   1.911   5.501 -0.8396  0.1141 -0.0664
25238SOL    HW280562   7.911   2.034   5.548  0.3826 -0.4511 -0.4893
25239SOL     OW80563   5.957   7.446   5.170  0.5679  0.2898  0.4077
25239SOL    HW180564   6.019   7.383   5.133  1.9697  2.0005 -0.3322
25239SOL    HW280565   5.920   7.490   5.094 -1.8934 -0.9020  0.8198
25240SOL     OW80566   3.824   9.682   1.210 -0.5678 -0.1709  0.6422
25240SOL    HW180567   3.879   9.628   1.154 -0.8235 -0.1178  0.3407
25240SOL    HW280568   3.827   9.769   1.171 -0.6216 -0.0983  0.7977
25241SOL     OW80569   7.650   8.748   3.804  0.2037  0.2066 -0.0328
25241SOL    HW180570   7.640   8.836   3.768 -0.4221 -0.3555 -1.2642
25241SOL    HW280571   7.669   8.693   3.728 -3.6135 -1.4535  0.0042
25242SOL     OW80572   3.715   7.083   6.396  0.7078  0.0784 -0.4250
25242SOL    HW180573   3.731   7.155   6.335 -0.3877 -0.0394 -0.8768
25242SOL    HW280574   3.801   7.064   6.433  1.2510  0.7203 -1.2997
25243SOL     OW80575   2.003   8.308   4.759  0.8393  0.2232 -0.0621
25243SOL    HW180576   2.096   8.292   4.772  1.0333  0.8306 -0.6597
25243SOL    HW280577   1.967   8.313   4.848  1.6047  1.2850  0.2154
25244SOL     OW80578   5.699   1.635   5.805  0.4461 -0.4764  0.0965
25244SOL    HW180579   5.640   1.656   5.877 -0.0952 -1.2031 -0.1300
25244SOL    HW280580   5.713   1.719   5.761  0.6022 -0.0699  0.9013
25245SOL     OW80581   8.761   9.193   2.322  0.4238 -0.1242 -0.1961
25245SOL    HW180582   8.855   9.187   2.340  0.1669  0.4170  1.6024
25245SOL    HW280583   8.742   9.287   2.326 -0.5155 -0.3321  1.6862
25246SOL     OW80584   8.770   5.858   5.595  0.0190 -0.4752  0.2058
25246SOL    HW180585   8.837   5.919   5.564  1.0033 -1.6614 -0.0861
25246SOL    HW280586   8.688   5.895   5.564  0.7611 -0.3334 -1.7613
25247SOL     OW80587   2.727   2.125   7.682 -0.2138  0.0771 -0.0438
25247SOL    HW180588   2.689   2.201   7.637 -1.2681 -0.1040  0.5052
25247SOL    HW280589   2.786   2.086   7.618  0.1246  1.1910 -0.4350
25248SOL     OW80590   9.398   2.704   1.374 -0.6892  0.1297  1.0113
25248SOL    HW180591   9.419   2.675   1.286 -0.8485  2.5106  0.1190
25248SOL    HW280592   9.363   2.626   1.417 -1.6343 -0.8499 -1.3623
25249SOL     OW80593   8.814   5.512   1.530  0.3424  0.0004 -0.1081
25249SOL    HW180594   8.857   5.435   1.495  1.1190  0.1685  0.4530
25249SOL    HW280595   8.811   5.574   1.457 -1.4016 -0.9814 -0.9230
25250SOL     OW80596   1.235   9.342   5.454 -0.2075 -0.1000  0.0127
25250SOL    HW180597   1.290   9.350   5.376 -0.4932  0.7932 -0.1128
25250SOL    HW280598   1.265   9.262   5.497  1.3233  0.4560  0.0424
25251SOL     OW80599   7.614   8.856   2.964  0.6175 -0.4115  0.1080
25251SOL    HW180600   7.557   8.808   2.904  0.5250  0.6351 -0.6713
25251SOL    HW280601   7.614   8.804   3.045 -1.1511 -0.6115  0.0099
25252SOL     OW80602   3.318   6.834   8.082 -0.0782  0.4278  0.0020
25252SOL    HW180603   3.325   6.740   8.095  0.8678  0.3060 -1.1599
25252SOL    HW280604   3.314   6.871   8.170 -0.3875 -0.6872  0.4683
25253SOL     OW80605   7.366   1.961   5.105 -0.2693  0.1823  0.2546
25253SOL    HW180606   7.275   1.947   5.131 -0.0908  0.1495  0.8821
25253SOL    HW280607   7.361   2.021   5.031 -0.8568 -0.5972 -0.3565
25254SOL     OW80608   1.150   1.425   6.338  0.5352  0.0221 -0.5638
25254SOL    HW180609   1.194   1.340   6.349 -0.3563 -0.4475 -0.5039
25254SOL    HW280610   1.197   1.484   6.397  0.1959 -0.8104  0.5877
25255SOL     OW80611   6.824   4.225   9.186  0.1469  0.4304  0.1982
25255SOL    HW180612   6.806   4.137   9.220  0.7511  0.4074  0.4802
25255SOL    HW280613   6.859   4.273   9.262 -2.2304  1.6006  0.6655
25256SOL     OW80614   6.796   6.438   7.720 -0.0015 -0.2431 -0.3327
25256SOL    HW180615   6.775   6.371   7.655 -0.6466  1.2381 -1.7129
25256SOL    HW280616   6.725   6.432   7.784  0.2246 -1.2056 -0.1571
25257SOL     OW80617   4.847   2.415   3.488  0.2809 -0.0136 -0.4038
25257SOL    HW180618   4.904   2.352   3.444  2.1691 -0.2565  2.1040
25257SOL    HW280619   4.793   2.362   3.546  0.3680  0.5021  0.1613
25258SOL     OW80620   5.811   1.440   9.557  0.1195  0.1034 -0.2515
25258SOL    HW180621   5.883   1.424   9.495  0.2698  0.2817 -0.1234
25258SOL    HW280622   5.792   1.533   9.548  0.8404  0.3581  0.7199
25259SOL     OW80623   4.102   1.954   8.433 -0.3793  0.4211 -0.4673
25259SOL    HW180624   4.122   2.035   8.480  0.7580 -1.6227  2.9408
25259SOL    HW280625   4.021   1.922   8.474  0.2536 -1.0854 -0.3041
25260SOL     OW80626   4.794   3.988   3.081  0.1449  0.1947 -0.3810
25260SOL    HW180627   4.780   3.895   3.101  1.0633  0.4450  1.7167
25260SOL    HW280628   4.863   3.988   3.015  0.7983 -0.6362  0.2671
25261SOL     OW80629   8.690   8.888   2.552  0.1121  0.3470  0.1064
25261SOL    HW180630   8.783   8.910   2.547  0.0487  0.9204  1.3356
25261SOL    HW280631   8.689   8.800   2.590  0.1976 -0.3894 -1.4875
25262SOL     OW80632   9.608   3.679   0.940 -0.0191 -0.8691 -0.0355
25262SOL    HW180633   9.637   3.633   0.862  0.1926  0.9493 -1.0920
25262SOL    HW280634   9.681   3.673   1.001  0.3366 -1.1598 -0.4866
25263SOL     OW80635   5.747   6.791   6.710  0.1299 -0.4737 -0.1685
25263SOL    HW180636   5.776   6.737   6.636  0.1811 -1.5894  0.6518
25263SOL    HW280637   5.668   6.835   6.677  1.2791  0.6441 -1.5663
25264SOL     OW80638   3.406   2.925   4.615  0.2393  0.4409 -0.1680
25264SOL    HW180639   3.372   2.961   4.697  0.1597  0.3008 -0.1388
25264SOL    HW280640   3.499   2.945   4.616  0.1880  0.6765 -0.1672
25265SOL     OW80641   8.895   5.129   1.260 -0.2846  0.0486 -0.2548
25265SOL    HW180642   8.888   5.154   1.353 -0.5761  0.6278 -0.4262
25265SOL    HW280643   8.863   5.206   1.213  2.3522  0.8092 -0.9351
25266SOL     OW80644   4.311   1.847   3.405  0.1371  0.2932  0.0539
25266SOL    HW180645   4.323   1.759   3.370 -1.2782 -1.2462  3.0215
25266SOL    HW280646   4.392   1.864   3.453  0.8916  1.1625 -1.4781
25267SOL     OW80647   2.312   7.990   3.384  0.2033 -0.2539 -0.0890
25267SOL    HW180648   2.342   7.908   3.422  1.6064  0.9485  1.5649
25267SOL    HW280649   2.390   8.044   3.378 -0.7370  1.0855 -0.8294
25268SOL     OW80650   9.405   5.553   2.789 -0.0458  0.6428  0.7319
25268SOL    HW180651   9.495   5.523   2.796 -0.1002  0.4008  0.4238
25268SOL    HW280652   9.406   5.641   2.826  0.0777  0.1883  1.8428
25269SOL     OW80653   3.681   0.243   2.973  0.4440  0.2018  0.1986
25269SOL    HW180654   3.721   0.328   2.959 -2.2975  1.2447 -2.5324
25269SOL    HW280655   3.644   0.247   3.061  3.0166  0.5135  1.3473
25270SOL     OW80656   2.428   3.258   6.371  0.0538 -0.1307 -0.1236
25270SOL    HW180657   2.477   3.254   6.453  0.3533  2.2920 -0.1159
25270SOL    HW280658   2.337   3.261   6.398  0.1698  1.2209  0.1976
25271SOL     OW80659   1.866   1.886   9.106 -0.2160 -0.2068  0.9201
25271SOL    HW180660   1.834   1.823   9.170 -0.0324  0.4004  1.6144
25271SOL    HW280661   1.812   1.964   9.120  1.6567  0.9285  2.2683
25272SOL     OW80662   9.311   4.965   4.958 -0.0017  0.2736  0.0793
25272SOL    HW180663   9.360   5.041   4.989  1.9537 -0.8652 -0.0812
25272SOL    HW280664   9.224   5.000   4.937  1.0000  2.5826 -0.5493
25273SOL     OW80665   1.129   7.222   0.578  0.2559  0.2908  0.3511
25273SOL    HW180666   1.117   7.131   0.551  3.2449 -0.6858  1.9055
25273SOL    HW280667   1.050   7.244   0.627 -0.4037 -1.5308  0.1598
25274SOL     OW80668   8.637   1.957   6.560 -0.3025 -0.5431  0.2518
25274SOL    HW180669   8.685   2.037   6.579  1.1648 -1.5675  1.0145
25274SOL    HW280670   8.596   1.932   6.642 -1.5571 -0.0810 -0.2144
25275SOL     OW80671   4.306   5.154   9.503 -0.1544  0.8144  0.2705
25275SOL    HW180672   4.353   5.211   9.442  0.5019  2.0238  1.8558
25275SOL    HW280673   4.347   5.170   9.588 -0.5916 -1.3506  0.9329
25276SOL     OW80674   4.277   2.519   1.532 -0.3363 -0.1499 -0.2482
25276SOL    HW180675   4.245   2.500   1.444  0.7966  0.3436 -0.7745
25276SOL    HW280676   4.364   2.557   1.520 -1.7570  4.0219  0.7583
25277SOL     OW80677   3.355   1.333   4.263 -0.4614  0.1517 -0.2234
25277SOL    HW180678   3.383   1.244   4.287  1.7043  0.7717 -0.2860
25277SOL    HW280679   3.307   1.364   4.339  2.2023  0.3285  1.5115
25278SOL     OW80680   5.744   5.070   3.003  0.1053 -0.3043  0.1502
25278SOL    HW180681   5.794   5.014   3.063 -1.8005 -1.8680  0.3846
25278SOL    HW280682   5.700   5.132   3.060  0.4021 -0.0481  0.1033
25279SOL     OW80683   9.593   6.977   7.458 -0.3015  0.1222  0.2409
25279SOL    HW180684   9.622   6.919   7.528  2.0645 -0.5150 -1.1709
25279SOL    HW280685   9.624   6.937   7.377  4.0800  4.4676 -0.7386
25280SOL     OW80686   7.541   0.582   9.021 -0.2936 -0.1506 -0.1182
25280SOL    HW180687   7.460   0.632   9.026  0.2168  0.6009  1.2949
25280SOL    HW280688   7.607   0.646   8.992 -0.0345 -0.5542 -0.4430
25281SOL     OW80689   3.070   4.136   0.726  0.2986 -0.1026 -0.3630
25281SOL    HW180690   3.108   4.172   0.806 -1.2676  0.5723  0.1260
25281SOL    HW280691   2.985   4.102   0.754 -0.8367  1.2747 -1.9221
25282SOL     OW80692   7.716   8.852   5.801 -0.0751 -0.1570 -0.1566
25282SOL    HW180693   7.795   8.879   5.847  0.2136 -1.7904  0.3704
25282SOL    HW280694   7.738   8.860   5.708 -0.3767  2.3458 -0.0904
25283SOL     OW80695   9.328   1.350   7.337  0.4559  0.7203 -0.0647
25283SOL    HW180696   9.359   1.323   7.423 -1.9381 -1.2341  0.2874
25283SOL    HW280697   9.237   1.377   7.352 -0.0653  0.1784 -1.9742
25284SOL     OW80698   1.676   3.684   4.341  0.2399  0.6495  0.0305
25284SOL    HW180699   1.612   3.745   4.305  0.1406 -0.4490 -1.7890
25284SOL    HW280700   1.637   3.652   4.422 -0.7633  1.2330 -0.2130
25285SOL     OW80701   6.658   6.194   5.889  0.6352  0.5277  0.3266
25285SOL    HW180702   6.752   6.181   5.903  0.4069  0.5531  2.1077
25285SOL    HW280703   6.617   6.120   5.934 -0.2009  0.2895 -0.7930
25286SOL     OW80704   8.775   1.792   6.835 -0.9818  0.1966 -0.0677
25286SOL    HW180705   8.867   1.814   6.851 -0.3394 -2.2538 -0.0069
25286SOL    HW280706   8.727   1.835   6.906  0.6920 -2.1290  2.6664
25287SOL     OW80707   4.393   9.707   3.500 -0.5172  0.4633 -0.2128
25287SOL    HW180708   4.358   9.642   3.561 -0.5235  0.4707 -0.2092
25287SOL    HW280709   4.335   9.783   3.509 -0.6635  0.3764 -0.4056
25288SOL     OW80710   3.439   7.410   8.119  0.2994  0.1879  0.7259
25288SOL    HW180711   3.362   7.360   8.092  0.7312 -1.9771  3.1375
25288SOL    HW280712   3.415   7.444   8.206  1.4743  0.9025  0.7834
25289SOL     OW80713   3.044   4.008   1.259  0.3627 -0.2354 -0.2210
25289SOL    HW180714   3.129   3.991   1.301 -0.3324 -0.7080  1.0280
25289SOL    HW280715   3.062   4.000   1.165  1.4606 -1.4831  0.0680
25290SOL     OW80716   4.915   1.779   6.392  0.1036  0.1389 -0.0042
25290SOL    HW180717   4.877   1.769   6.304  0.9266 -1.4072 -0.2342
25290SOL    HW280718   4.862   1.720   6.447  1.4532 -1.2519 -0.1259
25291SOL     OW80719   9.181   3.058   6.177  0.3015 -0.3316  0.7875
25291SOL    HW180720   9.272   3.063   6.149 -0.2905  0.8688 -1.0545
25291SOL    HW280721   9.182   3.091   6.267  1.1367  4.1653 -0.6402
25292SOL     OW80722   5.041   4.871   0.413 -0.4932  0.3563  0.4411
25292SOL    HW180723   5.081   4.893   0.329 -0.2250  0.8488  0.6974
25292SOL    HW280724   5.053   4.949   0.467 -0.9428  0.1568  0.8376
25293SOL     OW80725   0.255   7.391   1.440 -0.4256 -0.3574 -0.3809
25293SOL    HW180726   0.305   7.459   1.485 -0.6696  0.1515 -0.8675
25293SOL    HW280727   0.199   7.353   1.509 -1.5057  1.0654 -0.4223
25294SOL     OW80728   5.290   5.135   3.497  0.0776  0.1260 -0.7726
25294SOL    HW180729   5.251   5.223   3.495  0.3395  0.2905  0.5272
25294SOL    HW280730   5.278   5.106   3.587  0.0972 -1.1398 -1.1682
25295SOL     OW80731   7.040   5.897   8.092  0.4211  0.3540 -0.1412
25295SOL    HW180732   7.010   5.847   8.016  0.5321 -0.0063  0.0525
25295SOL    HW280733   7.111   5.952   8.058 -0.9135  1.7695 -0.7802
25296SOL     OW80734   7.710   4.549   8.680  0.1766  0.1238 -0.0087
25296SOL    HW180735   7.728   4.601   8.758 -1.1615 -0.4277  0.6960
25296SOL    HW280736   7.717   4.458   8.708  0.7350 -0.0942 -0.8041
25297SOL     OW80737   4.327   6.577   1.656 -0.2646 -0.0008  0.3186
25297SOL    HW180738   4.389   6.595   1.727 -0.3404  1.0175  0.1403
25297SOL    HW280739   4.377   6.523   1.595 -0.5710 -1.9577  1.6835
25298SOL     OW80740   4.418   5.555   7.036  0.1834 -0.5467  0.0715
25298SOL    HW180741   4.482   5.587   7.100 -1.2636 -0.3250  1.4738
25298SOL    HW280742   4.430   5.460   7.034 -0.3514 -0.6546  1.3664
25299SOL     OW80743   0.469   2.473   5.233  0.0137 -0.0571  0.5840
25299SOL    HW180744   0.463   2.464   5.329 -1.3571 -1.8005  0.3973
25299SOL    HW280745   0.487   2.565   5.219 -1.5792  0.6371  2.5098
25300SOL     OW80746   2.518   9.720   5.866  0.2052  0.6326  0.3793
25300SOL    HW180747   2.478   9.755   5.786  2.4312  0.5489 -0.8487
25300SOL    HW280748   2.549   9.798   5.913 -0.6247  0.6467  0.9316
25301SOL     OW80749   1.364   2.489   9.182  0.0945  0.5359  0.2609
25301SOL    HW180750   1.433   2.425   9.199 -0.5334  0.2037  1.7501
25301SOL    HW280751   1.373   2.553   9.253 -0.9681  0.6086  0.3447
25302SOL     OW80752   0.873   6.006   0.604 -0.0554  0.0173  0.3065
25302SOL    HW180753   0.847   5.963   0.523 -0.8693 -0.4399  0.7960
25302SOL    HW280754   0.794   6.005   0.658  0.6337 -0.2512  1.3455
25303SOL     OW80755   5.240   5.444   0.925 -0.2818  0.4846 -0.3861
25303SOL    HW180756   5.247   5.525   0.875  1.4770 -0.6634 -2.1707
25303SOL    HW280757   5.330   5.409   0.926 -0.2424  0.2635  3.3971
25304SOL     OW80758   2.313   4.955   8.529  0.1823  0.3802  0.5956
25304SOL    HW180759   2.350   5.042   8.543  1.2493  0.2204 -0.9955
25304SOL    HW280760   2.388   4.896   8.526 -0.1367 -0.0412 -2.0207
25305SOL     OW80761   3.711   2.384   9.564 -0.0062 -0.5450  0.0141
25305SOL    HW180762   3.754   2.436   9.495 -0.4102 -0.3382 -0.0806
25305SOL    HW280763   3.676   2.449   9.625  2.4216 -0.6868  1.7501
25306SOL     OW80764   7.225   3.491   2.646  0.0543 -0.6648 -0.4454
25306SOL    HW180765   7.316   3.489   2.675 -0.1492 -0.0926  0.2931
25306SOL    HW280766   7.207   3.402   2.615  0.3901 -1.2510  0.9510
25307SOL     OW80767   2.286   3.730   8.917 -0.0564  0.0321 -0.2447
25307SOL    HW180768   2.213   3.789   8.897 -0.6442 -0.9239 -1.0429
25307SOL    HW280769   2.245   3.652   8.954  0.6921  0.0197  0.5954
25308SOL     OW80770   5.088   3.860   5.065 -0.2300  0.3983  0.3440
25308SOL    HW180771   5.049   3.805   4.997 -0.4262  0.1686  0.6421
25308SOL    HW280772   5.073   3.812   5.146  1.5628 -0.2203  0.3607
25309SOL     OW80773   4.366   2.166   4.098 -0.0881 -0.0174 -0.0486
25309SOL    HW180774   4.458   2.167   4.125  0.7304 -0.0081 -2.5678
25309SOL    HW280775   4.356   2.081   4.054 -0.6653  0.8326 -1.6266
25310SOL     OW80776   6.771   8.852   5.174  0.1788 -0.0389 -0.0261
25310SOL    HW180777   6.850   8.802   5.194 -0.3807 -1.3539 -0.8755
25310SOL    HW280778   6.712   8.787   5.134 -0.6145  1.3094 -1.1366
25311SOL     OW80779   5.128   4.144   7.935  0.2892 -0.5088  0.4448
25311SOL    HW180780   5.175   4.174   8.013  0.1419 -0.3060  0.4561
25311SOL    HW280781   5.036   4.140   7.963 -0.1858  2.1443 -0.4563
25312SOL     OW80782   4.734   5.149   3.977  0.4710 -0.0449  0.4124
25312SOL    HW180783   4.804   5.089   4.001  1.7517  0.8541 -0.8587
25312SOL    HW280784   4.780   5.223   3.937 -1.2513  0.1375 -1.3516
25313SOL     OW80785   2.081   8.364   7.087  0.3645 -0.3980  0.2088
25313SOL    HW180786   2.144   8.415   7.035  0.4342  0.3255  0.9815
25313SOL    HW280787   2.033   8.312   7.023  1.4523 -0.6326 -0.4408
25314SOL     OW80788   5.843   8.484   9.133 -0.2428  0.2074  0.4033
25314SOL    HW180789   5.763   8.458   9.087  1.5633 -1.1909 -2.2599
25314SOL    HW280790   5.846   8.579   9.125 -2.8726  0.6214  2.9429
25315SOL     OW80791   2.581   5.207   2.989  0.0209 -0.3163 -0.1973
25315SOL    HW180792   2.510   5.180   3.048  0.8725  0.7275  1.3997
25315SOL    HW280793   2.538   5.258   2.921 -1.0501 -1.8900 -0.7491
25316SOL     OW80794   8.516   2.929   2.341 -0.9391 -0.3423  0.3824
25316SOL    HW180795   8.437   2.974   2.371 -1.7148  0.1696 -2.1866
25316SOL    HW280796   8.546   2.981   2.266  1.4830 -0.9216  0.8675
25317SOL     OW80797   3.590   5.703   4.074 -0.3153 -0.2227  0.7606
25317SOL    HW180798   3.651   5.730   4.142 -0.9127  1.0887  0.8025
25317SOL    HW280799   3.637   5.716   3.992  0.1565 -1.1469  0.8656
25318SOL     OW80800   2.575   3.671   8.386 -0.1346 -0.1306 -0.2029
25318SOL    HW180801   2.567   3.615   8.464 -1.0088 -0.9564 -0.8526
25318SOL    HW280802   2.631   3.743   8.414  0.3281 -0.8895  0.9213
25319SOL     OW80803   6.508   2.556   5.099  0.7439 -0.1677  0.0447
25319SOL    HW180804   6.530   2.606   5.020  0.6425  1.4797  0.9978
25319SOL    HW280805   6.551   2.605   5.170 -0.2101 -0.8840  1.1444
25320SOL     OW80806   0.820   7.356   4.910  1.2182  0.2859  0.9443
25320SOL    HW180807   0.897   7.401   4.875  1.2186 -0.9996 -0.8038
25320SOL    HW280808   0.754   7.425   4.917  1.8122  0.9531  0.2302
25321SOL     OW80809   8.130   2.790   1.290  0.4460  0.6387  0.0215
25321SOL    HW180810   8.123   2.867   1.234 -0.9702 -0.6153 -1.6877
25321SOL    HW280811   8.064   2.803   1.358 -0.7242  0.3804 -1.0341
25322SOL     OW80812   7.342   0.886   1.209  0.4342  0.2535 -0.1702
25322SOL    HW180813   7.248   0.886   1.187  0.8008  0.8728 -1.8860
25322SOL    HW280814   7.383   0.839   1.137  1.3265 -1.5160  1.4001
25323SOL     OW80815   3.109   5.944   8.231 -0.8206 -0.3552  0.7800
25323SOL    HW180816   3.023   5.945   8.272 -0.9033  1.2706  0.6336
25323SOL    HW280817   3.170   5.963   8.302 -0.4748 -2.3104  1.0414
25324SOL     OW80818   7.759   1.695   6.277 -0.4282 -0.2452 -0.4697
25324SOL    HW180819   7.765   1.750   6.199  1.6288  1.1592  0.5664
25324SOL    HW280820   7.665   1.687   6.293 -0.8546  1.8523 -1.4772
25325SOL     OW80821   4.210   0.098   3.172 -0.0552 -0.3284 -0.1539
25325SOL    HW180822   4.258   0.177   3.148 -1.5653  0.2766 -1.3685
25325SOL    HW280823   4.183   0.113   3.263  1.3029 -0.3276  0.2685
25326SOL     OW80824   8.013   8.142   2.172  0.1892 -0.3121  0.0153
25326SOL    HW180825   7.972   8.195   2.104 -1.7193  1.2248  2.2081
25326SOL    HW280826   8.006   8.052   2.140 -2.2476  0.1902 -1.0693
25327SOL     OW80827   4.295   1.886   4.003 -0.3618  0.3999  0.1827
25327SOL    HW180828   4.332   1.811   3.955 -0.8969 -0.1337  0.5870
25327SOL    HW280829   4.205   1.891   3.972 -1.0064 -0.5515  1.8044
25328SOL     OW80830   5.487   3.473   2.204  0.3074  0.1265 -0.2259
25328SOL    HW180831   5.435   3.549   2.232 -0.6523 -0.6148  0.0678
25328SOL    HW280832   5.455   3.454   2.116  0.8605  0.3348 -0.4697
25329SOL     OW80833   1.360   7.771   2.174  0.2148 -0.1494  0.0748
25329SOL    HW180834   1.350   7.677   2.191  1.1957 -0.0489  1.3335
25329SOL    HW280835   1.409   7.804   2.249  3.0570  0.7127 -1.9946
25330SOL     OW80836   7.177   2.230   7.844 -0.4341  0.4095 -0.2592
25330SOL    HW180837   7.093   2.264   7.813  0.7771  1.4476 -2.7017
25330SOL    HW280838   7.195   2.281   7.923 -1.7389  0.7244 -0.1370
25331SOL     OW80839   9.682   3.117   0.397  0.2643  0.1152 -0.6306
25331SOL    HW180840   9.751   3.070   0.445 -1.0154 -1.7209 -0.4657
25331SOL    HW280841   9.718   3.130   0.309  0.6456 -1.2783 -0.7033
25332SOL     OW80842   8.666   9.270   8.002  0.5405  0.5247  0.3763
25332SOL    HW180843   8.675   9.314   8.087 -0.1813  1.2974  0.0656
25332SOL    HW280844   8.582   9.301   7.968 -1.8649 -3.7229  1.6788
25333SOL     OW80845   1.285   5.512   8.028 -0.5421 -0.1212 -0.0783
25333SOL    HW180846   1.211   5.566   8.001 -0.0568  0.2916 -0.6009
25333SOL    HW280847   1.312   5.466   7.948 -0.2164 -0.2420  0.0991
25334SOL     OW80848   6.953   7.336   1.720  0.1511 -0.6234 -0.3141
25334SOL    HW180849   6.874   7.301   1.759  0.8793 -2.0527 -0.0587
25334SOL    HW280850   6.923   7.391   1.648 -1.1414  0.5974  1.0949
25335SOL     OW80851   8.079   1.862   0.945 -0.1070 -0.2657 -0.0738
25335SOL    HW180852   8.012   1.930   0.948 -1.3000 -1.3936  0.2422
25335SOL    HW280853   8.072   1.819   1.030  0.4044 -0.9635 -0.3775
25336SOL     OW80854   3.789   3.575   5.944 -0.0846 -0.1986 -0.2900
25336SOL    HW180855   3.768   3.500   5.999  0.7433  0.4366  0.9549
25336SOL    HW280856   3.864   3.546   5.891 -1.6111 -1.2058 -2.0079
25337SOL     OW80857   6.952   8.597   3.302 -0.0737 -0.1222 -0.5557
25337SOL    HW180858   7.018   8.599   3.233 -0.2989 -0.2873 -0.7733
25337SOL    HW280859   6.930   8.690   3.317  2.0233  0.1843  1.2658
25338SOL     OW80860   3.930   8.492   9.319  0.1455 -0.6924  0.0210
25338SOL    HW180861   3.848   8.445   9.337 -0.0462 -0.1661  0.5637
25338SOL    HW280862   3.908   8.548   9.244  0.1635 -0.9439 -0.1720
25339SOL     OW80863   6.901   8.846   1.674  0.0145  0.2051  0.1900
25339SOL    HW180864   6.978   8.856   1.731  0.8523 -2.9738 -0.1765
25339SOL    HW280865   6.827   8.842   1.734  0.6698 -1.1176  0.9629
25340SOL     OW80866   7.676   7.298   5.466 -0.4851  0.1083  0.0050
25340SOL    HW180867   7.726   7.356   5.523  0.0217  1.0981 -1.3678
25340SOL    HW280868   7.658   7.221   5.519  3.0391 -0.6021  0.4333
25341SOL     OW80869   5.723   4.370   2.412 -0.2606 -0.1275  0.2342
25341SOL    HW180870   5.778   4.301   2.373  0.2887 -0.5199  1.6414
25341SOL    HW280871   5.648   4.322   2.448 -1.2447  0.3388 -1.1452
25342SOL     OW80872   5.814   0.128   0.150 -0.5075  0.2736 -0.5317
25342SOL    HW180873   5.796   0.064   0.081  1.5286  0.0791 -0.9727
25342SOL    HW280874   5.819   0.076   0.230  0.7352 -0.1098 -0.8286
25343SOL     OW80875   7.958   7.677   4.676  0.0840 -0.0558 -0.3038
25343SOL    HW180876   8.019   7.610   4.646  0.1858  0.3184 -0.9405
25343SOL    HW280877   8.005   7.722   4.747  0.9454  0.8613 -1.4251
25344SOL     OW80878   2.112   2.304   5.535  0.3461 -0.4648  0.2882
25344SOL    HW180879   2.171   2.245   5.582  0.5809 -3.4293 -3.2585
25344SOL    HW280880   2.084   2.253   5.459 -2.2526  2.9064 -1.2496
25345SOL     OW80881   4.575   1.900   4.278 -0.5326  0.8273 -0.4315
25345SOL    HW180882   4.595   1.969   4.340 -0.9800  0.6253 -0.0587
25345SOL    HW280883   4.482   1.883   4.289 -0.2453 -0.5331  0.2226
25346SOL     OW80884   8.180   2.396   8.041 -0.2004  0.2360  0.0440
25346SOL    HW180885   8.087   2.390   8.017 -0.4676 -0.3599  1.1404
25346SOL    HW280886   8.223   2.331   7.986 -0.3034  1.0619 -1.0284
25347SOL     OW80887   9.006   5.455   1.738  0.5598 -0.5091  0.0530
25347SOL    HW180888   8.981   5.399   1.812 -1.4925  2.0079  1.4159
25347SOL    HW280889   8.924   5.473   1.693  1.3141  0.6445 -0.8946
25348SOL     OW80890   5.830   1.281   3.301  0.4522 -0.0228 -0.6466
25348SOL    HW180891   5.761   1.346   3.318  0.0030 -0.8790  0.9705
25348SOL    HW280892   5.857   1.298   3.211 -0.6974  1.4331 -0.7486
25349SOL     OW80893   6.401   2.145   8.604 -0.5571  0.1059  0.0718
25349SOL    HW180894   6.397   2.071   8.664 -2.1950  0.3881  0.3690
25349SOL    HW280895   6.456   2.210   8.648 -0.8306 -0.1272  0.7684
25350SOL     OW80896   1.100   7.600   2.161 -0.2219 -0.4883 -0.4951
25350SOL    HW180897   1.106   7.505   2.171 -1.0072 -0.3444  1.8928
25350SOL    HW280898   1.006   7.619   2.160 -0.0764  0.3142 -0.2958
25351SOL     OW80899   9.687   3.543   7.613 -0.2018 -0.3051  0.0882
25351SOL    HW180900   9.654   3.553   7.702  0.4778  0.0944  0.2993
25351SOL    HW280901   9.781   3.527   7.623 -0.3993 -2.1266 -0.4646
25352SOL     OW80902   3.241   0.279   6.814 -0.2840 -0.0779  0.5144
25352SOL    HW180903   3.248   0.374   6.806 -2.4059  0.2414  1.6348
25352SOL    HW280904   3.321   0.253   6.860 -0.1439  1.3179  1.1241
25353SOL     OW80905   2.092   7.758   3.593 -0.0046 -0.1140  0.1611
25353SOL    HW180906   2.085   7.737   3.686  0.5670  0.5469  0.3635
25353SOL    HW280907   2.004   7.743   3.559 -0.1242 -0.7513  0.7207
25354SOL     OW80908   4.415   5.575   1.908  0.0145 -0.3060 -0.0464
25354SOL    HW180909   4.364   5.599   1.985 -1.8934  0.8733 -1.5845
25354SOL    HW280910   4.375   5.493   1.878 -0.3997  0.1304 -0.7217
25355SOL     OW80911   8.780   1.438   5.620  0.1065  0.3655 -0.2285
25355SOL    HW180912   8.874   1.428   5.629 -0.0805 -0.7415  0.7521
25355SOL    HW280913   8.764   1.531   5.638  0.8752  0.2816  1.0206
25356SOL     OW80914   5.186   3.626   6.636  0.1824 -0.3481 -0.1770
25356SOL    HW180915   5.211   3.567   6.565  1.9874  0.1769 -0.0201
25356SOL    HW280916   5.165   3.568   6.709  2.0951 -0.8529  0.0268
25357SOL     OW80917   7.139   5.340   9.484  0.3391  0.1053 -0.5258
25357SOL    HW180918   7.144   5.253   9.444  1.6332 -0.9395  1.7454
25357SOL    HW280919   7.223   5.380   9.464  0.7393 -0.1745  0.5800
25358SOL     OW80920   5.299   4.590   6.349 -0.7042 -0.0114  0.3636
25358SOL    HW180921   5.267   4.666   6.399 -2.3485  1.3956 -2.5608
25358SOL    HW280922   5.237   4.520   6.370  0.4673 -0.4935  2.6031
25359SOL     OW80923   5.720   5.556   4.922  1.0226 -0.4132 -0.3752
25359SOL    HW180924   5.654   5.608   4.876 -0.0172  0.8375  2.3664
25359SOL    HW280925   5.711   5.468   4.885 -1.9447 -0.1968 -0.3461
25360SOL     OW80926   1.850   4.456   6.069  0.0776  0.2906 -0.2072
25360SOL    HW180927   1.908   4.477   5.996  1.6328 -1.0079  0.5965
25360SOL    HW280928   1.829   4.364   6.057 -1.5362  0.6430 -0.2550
25361SOL     OW80929   0.636   2.312   0.438 -0.2812  0.0864  0.2983
25361SOL    HW180930   0.653   2.402   0.412 -0.8020  0.7236  2.0474
25361SOL    HW280931   0.545   2.297   0.416 -0.1635 -0.0656 -0.0987
25362SOL     OW80932   2.559   1.781   6.577  0.1333  0.4913  0.2898
25362SOL    HW180933   2.538   1.864   6.622 -1.0554  0.3001  0.1360
25362SOL    HW280934   2.476   1.734   6.575  0.5686 -0.2712 -0.5394
25363SOL     OW80935   2.186   5.395   4.211 -0.0282  0.3856 -0.0192
25363SOL    HW180936   2.143   5.342   4.143 -0.2024 -2.6019  2.2237
25363SOL    HW280937   2.270   5.420   4.172 -0.1354 -1.1953 -1.3700
25364SOL     OW80938   0.241   0.889   6.080  0.0986  0.1403 -0.2792
25364SOL    HW180939   0.182   0.880   6.155  1.6668 -2.0718  0.7988
25364SOL    HW280940   0.277   0.978   6.087 -1.9585  1.0161 -0.1677
25365SOL     OW80941   6.936   8.084   9.024 -0.0442 -0.3114  0.3334
25365SOL    HW180942   6.873   8.120   9.086  0.0627  0.7728 -0.1607
25365SOL    HW280943   7.020   8.121   9.052 -0.2957  2.1487 -1.8010
25366SOL     OW80944   3.430   2.886   6.248  0.1906  0.3129  0.7948
25366SOL    HW180945   3.383   2.845   6.175  0.0092 -0.2655  1.2263
25366SOL    HW280946   3.392   2.845   6.326  0.9786  0.2924  1.1722
25367SOL     OW80947   1.894   4.958   7.253 -0.0336 -0.2147 -0.0304
25367SOL    HW180948   1.899   4.967   7.348  0.2103 -2.7385  0.2781
25367SOL    HW280949   1.877   4.865   7.239  1.7500 -0.2732 -2.5100
25368SOL     OW80950   8.496   5.302   1.110 -0.1280  0.2987  0.1399
25368SOL    HW180951   8.522   5.339   1.026  2.3170 -0.7543  0.3299
25368SOL    HW280952   8.520   5.368   1.175 -0.0239  0.2578  0.1443
25369SOL     OW80953   3.400   1.719   0.498 -0.2803 -1.0316  0.0712
25369SOL    HW180954   3.425   1.633   0.530 -0.4496 -0.8249  0.7876
25369SOL    HW280955   3.478   1.772   0.507  0.0762 -1.3151 -1.1801
25370SOL     OW80956   3.623   2.315   1.166  0.1637 -0.3273  0.0080
25370SOL    HW180957   3.606   2.401   1.207 -1.0417  0.2004 -1.5062
25370SOL    HW280958   3.582   2.252   1.225 -0.2895  0.2846  0.3560
25371SOL     OW80959   1.496   7.494   4.931  0.3585 -0.0723 -0.4248
25371SOL    HW180960   1.446   7.530   4.858 -1.1096  0.2899  0.7165
25371SOL    HW280961   1.479   7.554   5.004  1.9340 -0.3184  0.1965
25372SOL     OW80962   4.888   7.273   3.011  0.3945 -0.5444  0.5035
25372SOL    HW180963   4.880   7.367   3.026 -1.3806 -0.5415 -0.2186
25372SOL    HW280964   4.817   7.234   3.063 -1.3739 -1.1048 -2.1310
25373SOL     OW80965   3.452   9.258   2.436 -0.4469  0.1495 -0.1520
25373SOL    HW180966   3.398   9.232   2.511 -0.7445 -0.2308 -0.4957
25373SOL    HW280967   3.392   9.256   2.362  0.1581 -0.7811 -0.6336
25374SOL     OW80968   4.005   6.202   9.353  0.1722 -0.7313  0.2622
25374SOL    HW180969   4.011   6.287   9.309  0.3910 -1.3553 -0.9456
25374SOL    HW280970   3.913   6.178   9.346  0.3835 -1.2871 -0.7634
25375SOL     OW80971   1.554   4.177   2.244 -0.1067  0.1723  0.0527
25375SOL    HW180972   1.626   4.147   2.189  0.6339  0.6561  0.7230
25375SOL    HW280973   1.559   4.273   2.239  1.6061  0.3616  2.8886
25376SOL     OW80974   9.736   2.388   2.784 -0.3040 -1.1055 -0.1042
25376SOL    HW180975   9.653   2.347   2.808 -0.7272 -0.3694 -0.2908
25376SOL    HW280976   9.776   2.411   2.867 -1.7278  1.3616 -0.0101
25377SOL     OW80977   9.372   3.713   4.589 -0.3164  0.4921  0.1226
25377SOL    HW180978   9.362   3.702   4.684  1.0772  2.1896  0.5179
25377SOL    HW280979   9.398   3.804   4.579  1.3117 -0.1301 -1.7591
25378SOL     OW80980   1.118   0.380   5.288  0.0522 -0.1013  0.2476
25378SOL    HW180981   1.099   0.287   5.281  1.3893 -0.4613  0.9828
25378SOL    HW280982   1.056   0.422   5.229 -1.0655 -1.3896  0.4685
25379SOL     OW80983   6.240   1.215   3.113  0.2602 -1.0335  1.1939
25379SOL    HW180984   6.248   1.301   3.154  1.3874  0.5068 -1.9096
25379SOL    HW280985   6.316   1.166   3.145  1.8819  0.5944 -0.0109
25380SOL     OW80986   0.906   9.438   3.275  0.6090 -0.3110  0.3212
25380SOL    HW180987   0.827   9.491   3.284 -0.7207 -1.9010 -1.1225
25380SOL    HW280988   0.911   9.389   3.357 -2.0997 -2.8506 -0.8176
25381SOL     OW80989   7.282   6.029   8.027 -0.3493  0.2961 -0.3518
25381SOL    HW180990   7.259   6.056   7.938 -0.5394 -0.6757 -0.6079
25381SOL    HW280991   7.377   6.017   8.025 -0.3020  0.6671 -0.3166
25382SOL     OW80992   6.532   2.161   2.142  0.0284 -0.2968  0.0395
25382SOL    HW180993   6.518   2.182   2.049 -0.4171  0.5797  0.2948
25382SOL    HW280994   6.450   2.122   2.171  0.3759 -1.1391 -0.0751
25383SOL     OW80995   3.502   0.958   0.569 -0.0450  0.3402  0.4979
25383SOL    HW180996   3.593   0.941   0.595  0.1084  0.0645 -0.2050
25383SOL    HW280997   3.464   1.003   0.644  0.4812 -0.1621  1.0799
25384SOL     OW80998   5.648   3.545   6.440  0.0942  0.8235 -0.0317
25384SOL    HW180999   5.718   3.605   6.466  0.8637 -0.0351 -0.0650
25384SOL    HW281000   5.572   3.572   6.493  0.1983  2.2803 -0.5843
25385SOL     OW81001   6.589   3.513   3.159  0.3818 -0.0957  0.1116
25385SOL    HW181002   6.549   3.510   3.246  0.4666 -0.3825  0.1414
25385SOL    HW281003   6.589   3.422   3.129  0.7622 -0.0576 -0.0026
25386SOL     OW81004   7.250   5.582   0.863 -0.3366 -0.1088 -0.0517
25386SOL    HW181005   7.200   5.585   0.945  0.6877  1.7205  0.5458
25386SOL    HW281006   7.286   5.493   0.862  0.3589  0.0958  1.9543
25387SOL     OW81007   8.127   5.455   7.920  1.0510 -0.9585 -0.7135
25387SOL    HW181008   8.121   5.403   7.840  1.2770 -0.6231 -0.9502
25387SOL    HW281009   8.059   5.419   7.977  0.5784 -0.8959 -1.2312
25388SOL     OW81010   4.329   2.159   5.964  0.0487 -0.3316  0.0566
25388SOL    HW181011   4.244   2.188   5.932  0.3032 -0.2187 -0.5331
25388SOL    HW281012   4.386   2.235   5.954 -0.0437 -0.0342  1.5472
25389SOL     OW81013   2.943   5.705   5.600  0.2126  0.1752  0.1852
25389SOL    HW181014   2.905   5.628   5.643  1.5470 -0.6089  0.0259
25389SOL    HW281015   2.881   5.726   5.530 -0.2524 -0.6764  0.3198
25390SOL     OW81016   1.594   1.452   3.027  0.0347  0.3152  0.0738
25390SOL    HW181017   1.626   1.378   3.080  2.8297  0.6208 -1.0503
25390SOL    HW281018   1.508   1.423   2.997 -1.4201 -0.1723  4.0674
25391SOL     OW81019   2.723   4.388   7.485 -0.3697  0.2636  0.7341
25391SOL    HW181020   2.634   4.415   7.460 -0.0633 -0.4895 -1.3881
25391SOL    HW281021   2.778   4.419   7.413  0.5513 -2.3290  0.2022
25392SOL     OW81022   2.129   0.481   9.154  0.8793  0.1758 -0.3700
25392SOL    HW181023   2.036   0.496   9.173  1.0592 -1.1043  1.8434
25392SOL    HW281024   2.142   0.517   9.066 -1.8257 -0.1164 -0.9686
25393SOL     OW81025   6.906   8.529   2.475 -0.4782  0.5876 -0.9603
25393SOL    HW181026   6.989   8.547   2.519  0.1876  0.0461 -1.9447
25393SOL    HW281027   6.848   8.600   2.502  0.2739  0.9156 -0.1740
25394SOL     OW81028   1.828   2.946   4.003 -0.7561 -0.4036  0.3286
25394SOL    HW181029   1.762   2.996   3.955 -1.0459 -0.4242  0.7020
25394SOL    HW281030   1.822   2.857   3.967  0.1938 -0.0427 -0.7794
25395SOL     OW81031   3.295   8.778   0.701  0.4624 -0.4772  0.0243
25395SOL    HW181032   3.325   8.696   0.739 -1.3186 -0.0869  2.5304
25395SOL    HW281033   3.253   8.824   0.774  0.1740  2.0577 -1.6145
25396SOL     OW81034   9.612   5.765   2.554 -0.1925  0.4193 -0.1728
25396SOL    HW181035   9.684   5.711   2.585 -2.5276 -1.1625  3.1651
25396SOL    HW281036   9.632   5.853   2.585  0.8828  0.3053 -0.4992
25397SOL     OW81037   6.619   6.290   9.371  0.0948  0.1596  0.3127
25397SOL    HW181038   6.708   6.321   9.352  0.1164 -1.4908 -2.8886
25397SOL    HW281039   6.624   6.259   9.462  2.4810  1.0403  0.5620
25398SOL     OW81040   0.130   4.461   6.495 -1.0858  0.3104 -0.1717
25398SOL    HW181041   0.187   4.531   6.462 -0.8390 -0.1691 -0.7729
25398SOL    HW281042   0.137   4.468   6.590 -0.0834  0.3106 -0.2344
25399SOL     OW81043   0.600   2.280   2.065  0.1695 -0.1941 -0.0459
25399SOL    HW181044   0.613   2.361   2.016  1.8855  0.4917  1.3988
25399SOL    HW281045   0.659   2.288   2.140  0.4406 -2.8094  0.1216
25400SOL     OW81046   1.754   5.500   8.483 -0.7305  0.0210 -0.4271
25400SOL    HW181047   1.674   5.541   8.451 -0.9190  0.7784  0.9061
25400SOL    HW281048   1.728   5.412   8.509 -0.4122 -0.8884 -2.9271
25401SOL     OW81049   2.940   4.646   1.292 -0.1145 -0.1449  0.2227
25401SOL    HW181050   3.022   4.600   1.311  0.4364  0.7789  0.1822
25401SOL    HW281051   2.884   4.627   1.366  0.0795 -0.9183  0.1795
25402SOL     OW81052   8.599   0.689   4.462  0.0730  0.6419  0.2891
25402SOL    HW181053   8.621   0.778   4.490  0.4232  0.8827 -0.7245
25402SOL    HW281054   8.561   0.648   4.540 -3.0555  2.6311 -0.0302
25403SOL     OW81055   0.257   4.337   1.371  0.3061 -0.0821  0.5906
25403SOL    HW181056   0.163   4.344   1.387 -0.0704 -0.8112 -1.1443
25403SOL    HW281057   0.283   4.424   1.340 -0.0369 -0.1938 -0.0253
25404SOL     OW81058   0.178   2.748   9.241  0.0585 -0.0047 -0.0010
25404SOL    HW181059   0.158   2.739   9.334 -1.4950 -0.9146 -0.3836
25404SOL    HW281060   0.264   2.791   9.239  0.1997 -0.1118  1.8351
25405SOL     OW81061   2.519   6.197   4.412  0.1769 -0.6071  0.2433
25405SOL    HW181062   2.612   6.199   4.390 -0.1296  0.9034 -1.0621
25405SOL    HW281063   2.494   6.289   4.422 -0.9962 -1.0149  1.4711
25406SOL     OW81064   0.517   2.847   4.037 -0.5173  0.4569  0.1435
25406SOL    HW181065   0.578   2.790   4.084 -1.1176 -0.4667 -0.1780
25406SOL    HW281066   0.525   2.820   3.945 -0.5490  1.1327 -0.0609
25407SOL     OW81067   1.411   4.486   1.753  0.1824  0.9962 -0.0833
25407SOL    HW181068   1.440   4.517   1.839  1.4273  0.9049 -0.4604
25407SOL    HW281069   1.410   4.391   1.762 -0.4713  1.0133  0.0695
25408SOL     OW81070   7.373   7.652   6.640  0.1971  0.7114 -0.6150
25408SOL    HW181071   7.336   7.664   6.728  1.6973 -1.0959  0.3323
25408SOL    HW281072   7.335   7.570   6.609 -0.2583  1.2981 -1.6598
25409SOL     OW81073   7.887   0.250   8.918  0.3187  0.2310 -0.0859
25409SOL    HW181074   7.860   0.164   8.887 -0.1229 -0.6551  2.5204
25409SOL    HW281075   7.832   0.311   8.869 -2.0720 -1.2059  0.6076
25410SOL     OW81076   2.257   7.990   7.878  0.3202 -0.1988 -0.0788
25410SOL    HW181077   2.207   7.909   7.866  1.6504 -1.3622  1.7000
25410SOL    HW281078   2.283   7.989   7.970 -0.3253  2.7263  0.2617
25411SOL     OW81079   3.703   8.089   7.305 -0.2361  0.0551  0.1633
25411SOL    HW181080   3.701   8.180   7.335  0.4838  0.5138 -1.1055
25411SOL    HW281081   3.785   8.081   7.257 -0.4548 -1.1773 -0.0438
25412SOL     OW81082   4.173   3.354   7.328 -0.0078 -0.1958 -0.2310
25412SOL    HW181083   4.132   3.415   7.389  0.5393 -0.0044 -0.0501
25412SOL    HW281084   4.207   3.409   7.258 -0.2702 -0.3772 -0.5019
25413SOL     OW81085   2.175   4.209   1.878 -0.2459 -0.0702  0.0882
25413SOL    HW181086   2.118   4.274   1.920 -0.8323 -0.7415  0.3371
25413SOL    HW281087   2.251   4.204   1.936  0.5109  1.4808 -0.7065
25414SOL     OW81088   2.206   5.913   5.278 -0.1576 -0.2627  0.0549
25414SOL    HW181089   2.213   5.919   5.374  1.2245 -0.4584 -0.0101
25414SOL    HW281090   2.190   5.820   5.261 -0.2741 -0.2492  0.0913
25415SOL     OW81091   1.316   0.384   2.034 -0.1810  0.0997  0.3163
25415SOL    HW181092   1.302   0.422   2.121  0.8275 -1.0404  1.0134
25415SOL    HW281093   1.261   0.306   2.032 -0.4924  0.3303 -0.2155
25416SOL     OW81094   3.939   7.203   5.959 -0.0835  0.4700  0.6907
25416SOL    HW181095   3.895   7.128   6.000 -1.9279  1.2325  0.1915
25416SOL    HW281096   3.868   7.260   5.931  1.2621  3.1059  2.2406
25417SOL     OW81097   6.178   5.503   8.547 -0.4636 -0.0473 -0.0705
25417SOL    HW181098   6.084   5.491   8.531 -0.5412 -1.6597  1.3984
25417SOL    HW281099   6.207   5.420   8.584  1.4149  0.6808  0.1803
25418SOL     OW81100   1.241   5.605   9.348 -0.8258  0.3250 -0.0563
25418SOL    HW181101   1.232   5.642   9.260 -1.1601  1.1241  0.2961
25418SOL    HW281102   1.317   5.650   9.385 -0.7821  0.1112  0.1125
25419SOL     OW81103   8.039   8.803   1.164 -0.4386  1.0338  0.5270
25419SOL    HW181104   8.004   8.782   1.077  0.5584 -0.5648  0.4697
25419SOL    HW281105   8.009   8.732   1.220 -0.1375  1.4605  1.2456
25420SOL     OW81106   7.127   0.372   3.012  0.4444  0.1043 -0.5879
25420SOL    HW181107   7.034   0.359   3.031  0.5678 -0.3699 -0.2871
25420SOL    HW281108   7.131   0.454   2.963 -0.1398  0.0856 -0.6654
25421SOL     OW81109   6.177   0.065   8.755 -0.0576  0.0430 -0.2150
25421SOL    HW181110   6.270   0.084   8.770 -0.4228  0.6767  1.5071
25421SOL    HW281111   6.175   0.019   8.671  1.8230 -0.1468 -0.1982
25422SOL     OW81112   8.686   4.684   5.426 -0.1004  0.2862  0.3304
25422SOL    HW181113   8.754   4.724   5.372 -1.9106  3.2261 -0.0484
25422SOL    HW281114   8.639   4.626   5.366  0.0287  0.8404 -0.3218
25423SOL     OW81115   4.277   3.187   0.189 -0.0341  0.1831 -0.3895
25423SOL    HW181116   4.266   3.102   0.231 -1.5697  0.6468  0.2059
25423SOL    HW281117   4.368   3.212   0.208  0.1690 -0.9187  0.1581
25424SOL     OW81118   8.319   6.403   4.003 -0.5764 -0.0733 -0.4483
25424SOL    HW181119   8.338   6.474   4.064 -0.3226 -0.3824 -0.1649
25424SOL    HW281120   8.404   6.374   3.972 -0.7339  0.5289 -1.4744
25425SOL     OW81121   9.343   9.752   3.192 -0.1882 -0.0129 -0.2260
25425SOL    HW181122   9.433   9.723   3.207 -0.8245 -1.9771  0.1526
25425SOL    HW281123   9.309   9.772   3.279 -0.1567  0.6249 -0.3576
25426SOL     OW81124   4.439   8.534   0.358  0.4649  0.1130  0.4195
25426SOL    HW181125   4.532   8.512   0.362  0.7626  0.7583 -1.6360
25426SOL    HW281126   4.397   8.454   0.327  0.7848  0.6437 -1.5323
25427SOL     OW81127   0.421   6.379   0.976  0.1008  0.0164  0.4492
25427SOL    HW181128   0.402   6.466   1.012  3.0411  0.4077  1.2343
25427SOL    HW281129   0.499   6.392   0.923  0.3133 -2.0964  0.1884
25428SOL     OW81130   1.616   0.239   6.669  0.1928  0.1175 -0.2341
25428SOL    HW181131   1.603   0.276   6.581  2.6204  1.7681 -0.0030
25428SOL    HW281132   1.661   0.156   6.653 -2.6574 -1.4614 -0.6287
25429SOL     OW81133   5.332   8.217   0.587 -0.0177  0.0078 -0.2919
25429SOL    HW181134   5.291   8.140   0.625  1.6371  0.2688  2.2828
25429SOL    HW281135   5.259   8.278   0.572 -1.0976 -1.3009 -0.5465
25430SOL     OW81136   7.102   0.834   6.794  0.7976 -0.7751 -0.2408
25430SOL    HW181137   7.140   0.921   6.780 -1.6961  0.5403  0.6300
25430SOL    HW281138   7.109   0.819   6.888  1.5399 -1.7097 -0.4315
25431SOL     OW81139   4.216   3.554   0.503 -0.4013 -0.1612 -0.2997
25431SOL    HW181140   4.276   3.513   0.565 -1.8898 -0.7080  0.8377
25431SOL    HW281141   4.250   3.529   0.417  0.5334 -1.1355  0.3264
25432SOL     OW81142   0.711   5.501   5.902  0.1576 -0.1243  0.6837
25432SOL    HW181143   0.734   5.565   5.970 -1.9911 -0.6459  2.0001
25432SOL    HW281144   0.769   5.427   5.919 -0.8616 -0.5683  2.5451
25433SOL     OW81145   0.451   4.993   0.624 -0.2084 -0.3872 -0.2056
25433SOL    HW181146   0.374   4.968   0.675 -0.2196 -1.5231 -0.7445
25433SOL    HW281147   0.454   5.089   0.631 -1.8234 -0.2900 -0.4102
25434SOL     OW81148   6.797   5.479   0.633  0.1403  0.1071 -0.5560
25434SOL    HW181149   6.785   5.440   0.547 -0.5483 -1.6332  0.2595
25434SOL    HW281150   6.796   5.573   0.618 -1.7649 -0.1180 -2.2260
25435SOL     OW81151   5.347   2.790   2.836  0.2921 -0.7635 -0.1542
25435SOL    HW181152   5.429   2.823   2.874 -0.0176 -1.0440  0.7891
25435SOL    HW281153   5.348   2.696   2.855 -0.2440 -0.7701 -0.1553
25436SOL     OW81154   2.862   4.785   4.336  0.7336 -0.6936  0.1182
25436SOL    HW181155   2.866   4.880   4.328 -3.1179 -0.3731  0.1349
25436SOL    HW281156   2.862   4.768   4.430  3.3646 -0.9654  0.1359
25437SOL     OW81157   6.103   9.403   4.271 -1.0302 -0.1802  0.3240
25437SOL    HW181158   6.192   9.420   4.239 -1.6008  0.0197 -1.2352
25437SOL    HW281159   6.091   9.309   4.262 -0.3872 -0.4688  2.1874
25438SOL     OW81160   8.655   0.354   1.147  0.1587  0.4147 -0.0751
25438SOL    HW181161   8.650   0.258   1.150 -1.1811  0.4794  2.2167
25438SOL    HW281162   8.743   0.375   1.177 -0.2597 -0.1169  1.6696
25439SOL     OW81163   5.598   5.903   1.479 -0.0131 -0.0846  0.5679
25439SOL    HW181164   5.684   5.928   1.514  0.1956  0.2709 -0.1893
25439SOL    HW281165   5.617   5.833   1.417 -0.5478 -1.9429  2.3612
25440SOL     OW81166   6.383   1.549   8.560 -0.1388 -0.1635 -0.1727
25440SOL    HW181167   6.341   1.618   8.612 -1.4666 -1.8221  1.0915
25440SOL    HW281168   6.473   1.547   8.593  0.4054  1.9553 -1.3428
25441SOL     OW81169   0.922   4.424   5.749 -0.4049 -0.0782 -0.2049
25441SOL    HW181170   0.906   4.505   5.701  1.6199  0.2924 -0.3359
25441SOL    HW281171   0.858   4.362   5.714 -2.2705  1.5304  0.1863
25442SOL     OW81172   4.744   3.953   4.909  0.3515  0.2030 -0.7222
25442SOL    HW181173   4.803   3.897   4.960 -1.4548 -0.6118  0.5842
25442SOL    HW281174   4.769   4.042   4.934  1.2957 -0.1020 -0.5312
25443SOL     OW81175   4.928   1.033   2.066 -0.2683 -0.2002  0.8098
25443SOL    HW181176   4.899   0.944   2.050 -0.7861  0.0703  0.2175
25443SOL    HW281177   5.024   1.029   2.063 -0.2962 -0.7039  0.6506
25444SOL     OW81178   3.720   4.678   5.389  0.0146  0.3483 -0.0549
25444SOL    HW181179   3.635   4.666   5.431  0.0134  0.8248  0.0853
25444SOL    HW281180   3.740   4.771   5.402 -1.5826  1.4633 -4.0468
25445SOL     OW81181   3.746   0.046   6.624 -0.0088 -0.0865 -0.1441
25445SOL    HW181182   3.784   0.080   6.705  1.5052 -2.3967  0.2273
25445SOL    HW281183   3.765   0.113   6.558  0.6771  0.8646  0.9817
25446SOL     OW81184   0.750   2.168   9.648  0.2176  0.3120 -0.0046
25446SOL    HW181185   0.822   2.159   9.711 -0.1541  2.6339  0.8388
25446SOL    HW281186   0.792   2.197   9.567  0.2668  1.7691  0.5175
25447SOL     OW81187   4.285   5.312   6.925 -0.1528  0.2475 -0.5256
25447SOL    HW181188   4.227   5.242   6.894 -1.7270  1.7787 -1.2265
25447SOL    HW281189   4.229   5.366   6.981  1.1224  0.7812  0.2707
25448SOL     OW81190   7.850   6.379   3.984 -0.1943  0.5827 -0.4973
25448SOL    HW181191   7.849   6.474   3.974 -0.8299  0.9022  1.9881
25448SOL    HW281192   7.765   6.357   4.022  1.3915 -0.4042  2.8462
25449SOL     OW81193   2.309   6.975   4.705  0.6110  0.3218  0.4338
25449SOL    HW181194   2.274   6.943   4.789  0.3379 -1.8686 -0.4774
25449SOL    HW281195   2.403   6.981   4.719  0.5495  0.1682  0.9441
25450SOL     OW81196   4.851   7.145   6.991  0.3867 -0.7108  0.2106
25450SOL    HW181197   4.927   7.150   7.049 -0.4170  1.0825  1.2072
25450SOL    HW281198   4.776   7.148   7.051 -0.4635 -0.9081 -0.8240
25451SOL     OW81199   6.205   6.865   0.794  0.0112 -0.4180 -0.2338
25451SOL    HW181200   6.149   6.884   0.719  0.7812 -0.4189 -0.8245
25451SOL    HW281201   6.249   6.783   0.770  2.5144  1.1078 -1.1330
25452SOL     OW81202   6.506   4.255   9.550 -0.2449 -0.0129  0.2611
25452SOL    HW181203   6.487   4.195   9.621 -1.5396  1.1636  0.9468
25452SOL    HW281204   6.602   4.263   9.551 -0.0949 -1.4775  0.5981
25453SOL     OW81205   3.966   3.083   0.649  0.0502  0.3232  0.5785
25453SOL    HW181206   3.950   3.142   0.723 -0.7310  1.0704 -0.1650
25453SOL    HW281207   3.915   3.005   0.671 -2.5599  1.5938 -0.4185
25454SOL     OW81208   2.436   6.037   1.916  0.6757 -0.2681  0.1683
25454SOL    HW181209   2.370   6.092   1.959  0.3290  0.5208 -1.2910
25454SOL    HW281210   2.492   6.100   1.869  1.0840 -1.0782 -0.4504
25455SOL     OW81211   8.943   6.408   3.680 -0.1125  0.4060 -0.4786
25455SOL    HW181212   8.889   6.329   3.675 -0.3681  0.5305  0.1925
25455SOL    HW281213   9.033   6.376   3.673 -0.2316  0.0949 -0.5984
25456SOL     OW81214   4.132   2.941   8.103 -0.1768  0.5109  0.0853
25456SOL    HW181215   4.162   2.857   8.067  0.9012  0.9412 -0.0766
25456SOL    HW281216   4.038   2.942   8.086 -0.3538 -1.0150  0.8241
25457SOL     OW81217   0.779   7.052   6.136 -0.3261 -0.4698 -0.0734
25457SOL    HW181218   0.793   7.146   6.142 -1.7523 -0.2325 -0.0568
25457SOL    HW281219   0.837   7.023   6.066 -1.7414  0.8801 -1.9144
25458SOL     OW81220   6.683   2.309   9.317  0.2344  0.6601 -0.1755
25458SOL    HW181221   6.638   2.393   9.327 -1.2987  0.0849 -1.7917
25458SOL    HW281222   6.718   2.310   9.228 -0.1243 -0.5470 -0.3556
25459SOL     OW81223   0.686   3.007   0.125  0.1948 -0.3303 -0.3260
25459SOL    HW181224   0.686   3.066   0.050  0.5573  0.6521  0.4211
25459SOL    HW281225   0.599   2.968   0.126  0.1210 -0.1969 -1.1227
25460SOL     OW81226   6.636   8.171   8.575  0.1150  0.1505  0.0447
25460SOL    HW181227   6.543   8.150   8.582  0.3816 -0.8114  0.7958
25460SOL    HW281228   6.663   8.189   8.665  0.6937  0.2742 -0.1505
25461SOL     OW81229   0.869   5.364   1.436  0.3604  0.7922  0.9738
25461SOL    HW181230   0.893   5.280   1.474  0.5045  0.9113  1.1484
25461SOL    HW281231   0.932   5.377   1.365 -0.0017  0.5002  0.5931
25462SOL     OW81232   7.267   0.593   0.669 -0.3907  0.3074  0.0311
25462SOL    HW181233   7.177   0.565   0.681 -0.3057  0.8506  2.3946
25462SOL    HW281234   7.301   0.606   0.758  2.2857 -0.6866 -0.7329
25463SOL     OW81235   6.617   6.287   4.073  0.6117 -0.3260  0.6248
25463SOL    HW181236   6.620   6.315   4.164  0.8994 -0.1393  0.5601
25463SOL    HW281237   6.537   6.235   4.066  0.0243  0.5463  0.7354
25464SOL     OW81238   1.917   1.154   4.100 -0.2348  0.6214 -0.1401
25464SOL    HW181239   1.951   1.108   4.177  0.0664 -0.4989 -0.9177
25464SOL    HW281240   1.879   1.085   4.045 -1.8567  1.5948 -0.2889
25465SOL     OW81241   7.799   7.340   7.030 -0.1069  0.3080 -0.3954
25465SOL    HW181242   7.745   7.266   7.001  0.5679 -0.9500  1.3916
25465SOL    HW281243   7.736   7.410   7.047 -1.1854 -0.9982  1.2481
25466SOL     OW81244   3.106   0.874   5.502 -0.4427 -0.1184 -0.5428
25466SOL    HW181245   3.082   0.885   5.594  2.1263  0.1015  0.1677
25466SOL    HW281246   3.115   0.964   5.470  1.8495 -0.1316 -0.0559
25467SOL     OW81247   6.212   0.135   3.258  0.1950 -0.6896 -0.1418
25467SOL    HW181248   6.267   0.151   3.335 -1.4704  0.0821  0.9534
25467SOL    HW281249   6.182   0.222   3.232 -0.1721 -1.0609 -0.9790
25468SOL     OW81250   1.568   6.451   1.204  0.3906  0.1092 -0.3698
25468SOL    HW181251   1.612   6.450   1.289 -0.9022 -1.1977  0.3342
25468SOL    HW281252   1.521   6.535   1.202  0.3502  0.1031  0.2532
25469SOL     OW81253   1.013   3.613   8.812 -0.2093  0.5555 -0.1488
25469SOL    HW181254   1.101   3.640   8.837 -0.7124  0.5260  1.7626
25469SOL    HW281255   0.970   3.589   8.894 -1.7178 -0.3065 -1.1332
25470SOL     OW81256   6.288   7.512   1.460 -0.4273 -0.1071 -0.0611
25470SOL    HW181257   6.361   7.562   1.499 -0.1499 -0.4120 -0.1882
25470SOL    HW281258   6.285   7.431   1.510 -1.3427  0.3309  0.6175
25471SOL     OW81259   6.013   9.079   9.419  0.0621 -0.0387 -0.0690
25471SOL    HW181260   5.958   9.149   9.384 -0.5443 -1.3945 -2.0119
25471SOL    HW281261   5.954   9.029   9.475  0.4112  0.7699  1.0568
25472SOL     OW81262   8.423   7.315   7.355 -0.4078  0.1767 -0.2854
25472SOL    HW181263   8.504   7.268   7.376 -0.3426  1.2937  2.3322
25472SOL    HW281264   8.385   7.266   7.282  1.9468 -1.1404 -0.7370
25473SOL     OW81265   4.813   5.198   4.952  0.3834 -0.2065  0.1863
25473SOL    HW181266   4.889   5.141   4.961  0.9326  0.5544  0.5173
25473SOL    HW281267   4.848   5.286   4.967 -0.2212  0.3399 -1.4471
25474SOL     OW81268   6.646   0.182   9.026  0.0189 -0.2413 -0.2180
25474SOL    HW181269   6.730   0.137   9.033 -0.0031 -0.1333  0.9883
25474SOL    HW281270   6.649   0.250   9.093 -0.8163  0.1277 -0.5334
25475SOL     OW81271   9.150   0.374   8.641  0.0662 -0.2377  0.1244
25475SOL    HW181272   9.168   0.457   8.596 -0.0190  0.0256  0.5687
25475SOL    HW281273   9.140   0.398   8.733  1.4500 -0.9390  0.4818
25476SOL     OW81274   7.868   4.660   3.301  0.6971  0.2006 -0.2550
25476SOL    HW181275   7.832   4.678   3.387  0.6544  0.6327 -0.3606
25476SOL    HW281276   7.792   4.655   3.243  0.6649 -0.8836 -0.1349
25477SOL     OW81277   4.186   7.811   4.440 -0.7324  0.5127  0.1287
25477SOL    HW181278   4.150   7.747   4.502 -0.9567  0.9559  0.4553
25477SOL    HW281279   4.261   7.765   4.400 -0.6612  0.1805  0.6346
25478SOL     OW81280   5.687   6.675   5.757 -0.0691 -0.3525  0.4090
25478SOL    HW181281   5.660   6.761   5.724 -2.2057  0.0902  2.9585
25478SOL    HW281282   5.723   6.631   5.681 -0.5861  2.1309 -1.4189
25479SOL     OW81283   6.443   9.656   0.235 -0.6113  0.4329  0.3675
25479SOL    HW181284   6.367   9.632   0.288 -0.7413 -0.9366 -0.3685
25479SOL    HW281285   6.474   9.572   0.200 -1.6314  1.3772 -3.1706
25480SOL     OW81286   2.099   9.244   3.719 -0.2774 -0.8323  0.4312
25480SOL    HW181287   2.050   9.166   3.745  2.0732 -2.3561  0.5257
25480SOL    HW281288   2.066   9.264   3.631 -2.3479 -0.6402  1.1824
25481SOL     OW81289   7.130   1.987   7.527  0.3972 -0.2935 -0.0513
25481SOL    HW181290   7.159   1.976   7.617 -0.3391  2.2050  0.5555
25481SOL    HW281291   7.109   2.080   7.519 -2.8234 -1.0175 -1.7912
25482SOL     OW81292   3.926   8.138   3.812 -0.1991  0.0147 -0.1267
25482SOL    HW181293   3.957   8.140   3.903 -1.8618 -1.8483  0.5599
25482SOL    HW281294   3.985   8.196   3.765  1.4217  0.1473  1.9359
25483SOL     OW81295   5.150   4.848   2.775 -0.1111  0.8830 -0.2098
25483SOL    HW181296   5.068   4.841   2.824 -1.1980 -0.7823 -2.0904
25483SOL    HW281297   5.122   4.864   2.685  1.7331  2.0173 -0.6243
25484SOL     OW81298   7.665   6.501   6.070  0.1852 -0.5413 -0.3081
25484SOL    HW181299   7.677   6.421   6.121 -0.0092 -1.1848 -1.2631
25484SOL    HW281300   7.576   6.529   6.089  0.0063 -0.9525 -0.5313
25485SOL     OW81301   3.199   7.571   7.151  0.2158 -0.1652 -0.5131
25485SOL    HW181302   3.181   7.494   7.097 -1.6094 -0.6043  0.6410
25485SOL    HW281303   3.269   7.617   7.104  2.7820 -3.4371 -0.3198
25486SOL     OW81304   9.393   4.179   6.408 -0.5262  0.1832  0.0090
25486SOL    HW181305   9.480   4.219   6.400 -0.6686  0.4968 -0.0176
25486SOL    HW281306   9.395   4.103   6.350 -0.8238  1.1499 -1.3077
25487SOL     OW81307   2.829   8.468   4.364 -0.1937 -0.2341 -0.0725
25487SOL    HW181308   2.829   8.505   4.453 -0.9755  0.2692 -0.2675
25487SOL    HW281309   2.769   8.394   4.369 -2.1790  1.2261 -0.7063
25488SOL     OW81310   2.403   2.829   1.028 -0.2218 -0.1347 -0.3604
25488SOL    HW181311   2.361   2.845   0.944 -1.5799 -2.0621 -0.1374
25488SOL    HW281312   2.330   2.818   1.089  0.7006 -0.2165  0.7579
25489SOL     OW81313   8.422   3.093   3.593 -0.3588 -0.0249 -0.3232
25489SOL    HW181314   8.411   3.180   3.554  0.7782 -0.1493 -0.9431
25489SOL    HW281315   8.516   3.085   3.608 -0.2391 -1.8096 -1.8062
25490SOL     OW81316   3.352   2.205   6.083 -0.5185  0.4755  0.5428
25490SOL    HW181317   3.332   2.298   6.078 -0.0619  0.6975  2.1683
25490SOL    HW281318   3.417   2.199   6.154 -2.0237 -1.2813  1.8729
25491SOL     OW81319   7.642   8.767   1.233  0.5410 -0.0596  0.2234
25491SOL    HW181320   7.694   8.837   1.272  0.2475  0.7921 -0.8461
25491SOL    HW281321   7.551   8.798   1.240  0.2216 -1.1446  1.3066
25492SOL     OW81322   8.299   1.219   0.075  0.1264  0.1500  0.5299
25492SOL    HW181323   8.347   1.234   0.156  1.5064 -1.0267  0.0001
25492SOL    HW281324   8.359   1.166   0.022 -0.5362  1.2742 -1.4476
25493SOL     OW81325   1.778   0.157   6.264  0.1296 -0.4376 -0.0698
25493SOL    HW181326   1.712   0.088   6.271  0.9350 -1.1559  0.8304
25493SOL    HW281327   1.845   0.119   6.206  0.1446 -0.0460 -0.3123
25494SOL     OW81328   3.900   7.774   3.233  0.3081 -0.0216 -0.6030
25494SOL    HW181329   3.900   7.691   3.279 -2.9151 -0.1792 -0.6546
25494SOL    HW281330   3.849   7.758   3.153 -0.4363  1.9643 -0.5936
25495SOL     OW81331   5.282   5.328   1.580 -0.0992  0.4184 -0.4251
25495SOL    HW181332   5.197   5.299   1.547 -0.1483 -1.5028  1.1857
25495SOL    HW281333   5.270   5.331   1.675  1.7131 -0.2363 -0.1418
25496SOL     OW81334   8.785   2.233   2.746  0.5881 -0.5400 -0.1773
25496SOL    HW181335   8.867   2.192   2.774  0.6203  1.0846  2.4254
25496SOL    HW281336   8.811   2.319   2.712 -0.0776  0.5795  2.0026
25497SOL     OW81337   8.012   7.227   8.707  0.1388  0.5083  0.7510
25497SOL    HW181338   8.106   7.242   8.709  0.4745 -1.3126  0.2970
25497SOL    HW281339   7.976   7.309   8.672  1.5009  1.3344  1.1917
25498SOL     OW81340   1.444   9.692   8.512 -0.1569  0.3479  0.5337
25498SOL    HW181341   1.410   9.780   8.498  1.3362  0.7704 -0.7153
25498SOL    HW281342   1.374   9.634   8.481 -1.6787  1.0143  2.5604
25499SOL     OW81343   5.337   8.290   2.471 -0.7649 -0.5172 -0.3152
25499SOL    HW181344   5.325   8.359   2.405 -0.9708 -1.6034 -1.4676
25499SOL    HW281345   5.419   8.248   2.446 -0.8086 -0.8932  0.1676
25500SOL     OW81346   2.441   9.337   0.897  0.0090  0.2102 -0.2038
25500SOL    HW181347   2.417   9.405   0.834  1.5900  0.9069 -0.0975
25500SOL    HW281348   2.482   9.268   0.844 -0.7941 -0.2784 -0.2038
25501SOL     OW81349   6.275   4.879   9.729  0.2985 -0.2370 -0.2557
25501SOL    HW181350   6.208   4.879   9.661  0.5461  3.3767 -0.6787
25501SOL    HW281351   6.251   4.952   9.786  0.8939 -2.2632  2.8074
25502SOL     OW81352   5.608   1.053   6.179 -0.1918  0.4158  0.1492
25502SOL    HW181353   5.654   1.108   6.115  0.4244 -0.2021  0.0520
25502SOL    HW281354   5.579   1.114   6.247  1.1526  0.7733  0.4337
25503SOL     OW81355   5.972   1.751   1.450  0.2030 -0.0207 -0.2679
25503SOL    HW181356   5.971   1.659   1.476 -1.6678  0.2863  0.9100
25503SOL    HW281357   6.022   1.752   1.368 -1.4603 -2.4019 -1.4313
25504SOL     OW81358   1.182   8.875   1.394  0.2763 -0.4395  0.2902
25504SOL    HW181359   1.258   8.886   1.451  0.5946  0.6788 -0.3276
25504SOL    HW281360   1.197   8.935   1.322 -0.7764 -0.8537 -0.2950
25505SOL     OW81361   9.090   2.801   4.241 -0.0572  0.3263  0.0859
25505SOL    HW181362   9.072   2.770   4.153 -0.3029  0.0693  0.2221
25505SOL    HW281363   9.184   2.818   4.242 -0.2527  1.4964 -0.5760
25506SOL     OW81364   4.352   7.873   0.174 -0.0975  0.0484  0.4059
25506SOL    HW181365   4.345   7.831   0.260  1.8667  0.4651  0.8054
25506SOL    HW281366   4.352   7.966   0.193 -1.1334  0.1950 -0.2093
25507SOL     OW81367   7.415   8.222   1.818 -0.0343 -0.1257  0.0906
25507SOL    HW181368   7.393   8.130   1.807 -1.0135  0.2127 -0.9692
25507SOL    HW281369   7.499   8.232   1.773  1.0457 -0.8615  1.8283
25508SOL     OW81370   7.890   3.395   1.472 -0.3379  0.0911 -0.2969
25508SOL    HW181371   7.876   3.407   1.566 -1.0986  0.2024 -0.4110
25508SOL    HW281372   7.804   3.367   1.439 -0.0040 -0.2256 -0.9104
25509SOL     OW81373   2.255   1.098   5.843  0.3028  0.0011  0.2069
25509SOL    HW181374   2.215   1.013   5.828  0.5391 -0.0656 -0.0339
25509SOL    HW281375   2.261   1.138   5.756 -0.6570  0.6407  0.4157
25510SOL     OW81376   8.641   6.453   6.049  0.2461 -0.4559 -0.4417
25510SOL    HW181377   8.630   6.539   6.090  1.3944 -0.8981  0.8700
25510SOL    HW281378   8.563   6.442   5.995 -1.6674 -0.0612  2.0496
25511SOL     OW81379   2.875   5.658   0.669 -0.1799 -0.8029 -0.4330
25511SOL    HW181380   2.781   5.677   0.666 -0.2516 -0.7497  1.1642
25511SOL    HW281381   2.913   5.736   0.710  0.5714 -0.8311 -1.0625
25512SOL     OW81382   6.317   8.252   1.896  0.1910  0.8071 -0.3808
25512SOL    HW181383   6.401   8.215   1.924 -0.0754  0.8522  0.5224
25512SOL    HW281384   6.314   8.236   1.802 -0.0663 -1.8536 -0.0078
25513SOL     OW81385   5.006   0.737   6.519  0.6089  0.0336 -0.1100
25513SOL    HW181386   5.018   0.779   6.604  0.6542  0.7189 -0.4467
25513SOL    HW281387   5.066   0.662   6.520  0.4251 -0.1085  0.5514
25514SOL     OW81388   6.679   1.838   9.418 -0.1444 -0.6403 -0.0925
25514SOL    HW181389   6.733   1.777   9.468  0.0496 -2.3711 -2.2354
25514SOL    HW281390   6.702   1.924   9.451  2.4832 -1.4600  0.4381
25515SOL     OW81391   2.487   6.369   9.727  0.5050 -0.3835  0.3365
25515SOL    HW181392   2.438   6.374   9.810 -0.1783  0.4431 -0.1032
25515SOL    HW281393   2.471   6.453   9.685  0.6761 -0.8747 -0.7394
25516SOL     OW81394   8.922   6.699   4.477 -0.2349 -0.8605  0.4383
25516SOL    HW181395   8.965   6.614   4.485  0.7737 -0.3944  0.1415
25516SOL    HW281396   8.836   6.686   4.516 -0.0076 -1.9525  0.6110
25517SOL     OW81397   4.992   4.766   4.243  0.1900  0.2060  0.2249
25517SOL    HW181398   4.949   4.714   4.311  0.9037 -0.9977 -0.2132
25517SOL    HW281399   4.948   4.851   4.247 -0.2199 -0.0439  1.7472
25518SOL     OW81400   7.599   2.270   1.725  0.1144 -0.6379 -0.4839
25518SOL    HW181401   7.602   2.209   1.799  0.4263 -1.7692 -1.3902
25518SOL    HW281402   7.573   2.216   1.650 -1.0249  0.6402 -1.0581
25519SOL     OW81403   5.058   1.735   0.165 -0.5294  0.0504  0.0448
25519SOL    HW181404   4.979   1.778   0.196  0.2843  1.7008 -0.0273
25519SOL    HW281405   5.125   1.803   0.167  1.2501 -1.6140  1.4013
25520SOL     OW81406   9.273   1.719   2.955 -0.1057 -0.2125 -0.1695
25520SOL    HW181407   9.267   1.640   2.902 -0.6223  0.2083 -0.7454
25520SOL    HW281408   9.349   1.703   3.012  0.4338 -0.6908 -0.9960
25521SOL     OW81409   2.448   6.053   0.422 -0.2604 -0.7574 -0.0148
25521SOL    HW181410   2.395   6.000   0.481  1.6659 -1.8513  0.8176
25521SOL    HW281411   2.476   6.128   0.475 -0.8121 -0.2416 -0.4224
25522SOL     OW81412   5.519   7.572   8.554  0.6766 -0.1252  0.1617
25522SOL    HW181413   5.564   7.547   8.635 -1.2154 -2.0387  0.7089
25522SOL    HW281414   5.522   7.494   8.499 -3.5891 -1.2022  1.0672
25523SOL     OW81415   7.994   2.838   1.534 -0.6948  0.1546  0.3685
25523SOL    HW181416   7.999   2.929   1.563  0.0524 -0.3853  2.0715
25523SOL    HW281417   7.905   2.810   1.559 -0.4230  0.0102  1.2140
25524SOL     OW81418   8.062   4.846   9.276  0.0967 -0.3292  0.3107
25524SOL    HW181419   8.139   4.807   9.236 -0.4851 -0.4342 -0.7282
25524SOL    HW281420   8.076   4.834   9.370  1.5752  0.1122  0.1758
25525SOL     OW81421   7.317   7.200   8.995 -0.0152  0.3855 -0.3508
25525SOL    HW181422   7.262   7.150   8.934  0.8656  1.5763 -2.2214
25525SOL    HW281423   7.265   7.277   9.017 -0.6587 -0.4375  1.1064
25526SOL     OW81424   6.123   3.271   3.453  0.1013  0.2407  0.5948
25526SOL    HW181425   6.204   3.321   3.443 -1.6237  3.2143  0.3266
25526SOL    HW281426   6.115   3.259   3.548  1.9336 -2.1628  0.5228
25527SOL     OW81427   3.559   0.512   7.485 -0.2465 -0.4583  0.3815
25527SOL    HW181428   3.470   0.477   7.492  0.0044 -2.1764 -2.8508
25527SOL    HW281429   3.554   0.600   7.524 -3.1473 -0.7782  0.9440
25528SOL     OW81430   5.982   5.263   9.689  0.3741 -0.0029 -0.3859
25528SOL    HW181431   5.908   5.297   9.739 -0.1525 -1.3478 -0.2051
25528SOL    HW281432   6.019   5.340   9.645  1.0190  1.2785  2.2354
25529SOL     OW81433   0.080   7.371   5.436 -0.4823  0.4298  0.6940
25529SOL    HW181434   0.051   7.441   5.496 -1.7777  0.1096  0.4670
25529SOL    HW281435   0.058   7.290   5.482  1.5810  0.1196  1.2276
25530SOL     OW81436   2.062   1.047   2.258  0.0681 -0.3624  0.6675
25530SOL    HW181437   2.145   1.001   2.248 -0.3651 -1.2265  0.9758
25530SOL    HW281438   2.038   1.073   2.169  0.7198 -0.0050  0.5908
25531SOL     OW81439   9.661   3.110   0.852 -0.4159  0.0036  0.0150
25531SOL    HW181440   9.582   3.133   0.803 -0.7512 -1.5968 -0.2473
25531SOL    HW281441   9.724   3.179   0.830 -1.6988  1.2773  0.1874
25532SOL     OW81442   1.518   7.926   9.696  0.5538  0.0259 -0.2223
25532SOL    HW181443   1.510   8.002   9.754 -0.7555  0.2486 -0.6650
25532SOL    HW281444   1.603   7.937   9.654  0.6336  0.9420  0.1488
25533SOL     OW81445   7.155   3.013   4.910 -0.0386  0.0112  0.7676
25533SOL    HW181446   7.236   2.967   4.889  0.0828 -0.3999  2.0261
25533SOL    HW281447   7.182   3.104   4.924 -0.1769  0.3722 -1.0748
25534SOL     OW81448   3.617   0.985   8.378 -0.4573 -0.4200  0.0558
25534SOL    HW181449   3.678   1.044   8.422 -0.9214 -1.2674  1.9260
25534SOL    HW281450   3.537   1.037   8.367 -0.5199 -0.3572  0.7506
25535SOL     OW81451   5.273   1.330   2.733  0.1790  0.5772  0.1753
25535SOL    HW181452   5.303   1.412   2.771 -1.6014  0.4927  1.9518
25535SOL    HW281453   5.204   1.355   2.672 -0.3891  0.4278  0.7435
25536SOL     OW81454   5.807   1.099   1.268 -0.2099  0.7113 -0.3753
25536SOL    HW181455   5.748   1.024   1.263 -0.0258  0.3403  1.9096
25536SOL    HW281456   5.831   1.105   1.360  1.9897  1.8909 -0.9361
25537SOL     OW81457   5.066   2.322   6.438 -0.3632  0.0871 -0.0566
25537SOL    HW181458   5.029   2.241   6.403  0.3006 -0.8337  1.3215
25537SOL    HW281459   5.119   2.295   6.512  1.0234  1.6486 -0.4160
25538SOL     OW81460   6.775   3.904   3.517  0.7348  0.1275 -0.4171
25538SOL    HW181461   6.694   3.892   3.468 -0.4197 -1.4205  1.7127
25538SOL    HW281462   6.774   3.996   3.544 -0.0734  0.2380 -0.7985
25539SOL     OW81463   7.776   8.846   4.887 -0.2095  0.3160 -0.4842
25539SOL    HW181464   7.847   8.894   4.846  2.4920 -3.0097 -0.1283
25539SOL    HW281465   7.721   8.818   4.814 -0.4425  1.7591 -0.8954
25540SOL     OW81466   1.451   7.502   0.008  0.3470  0.6258  0.0664
25540SOL    HW181467   1.474   7.508  -0.085 -0.0401  1.0685 -0.0069
25540SOL    HW281468   1.370   7.452   0.010 -0.5020  1.9514  0.0136
25541SOL     OW81469   8.270   6.484   8.329  0.1845 -0.1481  0.1888
25541SOL    HW181470   8.316   6.548   8.274  0.7348 -1.2181 -0.6210
25541SOL    HW281471   8.192   6.462   8.279 -0.6456  0.7592  1.0198
25542SOL     OW81472   4.221   4.951   3.468 -0.5330  0.5555  0.3768
25542SOL    HW181473   4.151   4.898   3.432  0.0900 -0.6494  0.8874
25542SOL    HW281474   4.203   5.040   3.437 -1.1674 -0.0779 -1.1422
25543SOL     OW81475   4.931   1.102   7.133  0.2947  0.2834  0.1747
25543SOL    HW181476   4.949   1.141   7.219  2.0616  2.1313 -0.9304
25543SOL    HW281477   5.018   1.079   7.099 -0.0544  2.1064 -2.1758
25544SOL     OW81478   2.189   7.043   6.349 -0.1688 -0.2587  0.8271
25544SOL    HW181479   2.235   6.974   6.301 -0.6073 -0.7630  1.1114
25544SOL    HW281480   2.200   7.019   6.441 -0.1830  0.1488  0.9370
25545SOL     OW81481   8.393   3.282   2.540 -1.0466 -0.1335  0.2772
25545SOL    HW181482   8.488   3.284   2.544 -1.0655 -0.5157  1.7060
25545SOL    HW281483   8.372   3.231   2.462 -0.0850 -0.1878  0.0496
25546SOL     OW81484   5.137   8.622   3.682  0.1050  0.1106 -0.0701
25546SOL    HW181485   5.226   8.597   3.708  0.7506  1.3249 -0.9547
25546SOL    HW281486   5.104   8.673   3.756  0.3375  0.0427  0.0824
25547SOL     OW81487   1.231   9.232   9.592 -0.7646 -0.5329  0.1469
25547SOL    HW181488   1.271   9.303   9.541 -0.6231 -2.0097 -1.9308
25547SOL    HW281489   1.139   9.259   9.602 -0.1161  1.2592  1.9491
25548SOL     OW81490   1.295   4.457   2.808 -0.2808 -0.1902  0.0385
25548SOL    HW181491   1.307   4.537   2.859  0.0540 -0.9224  1.1379
25548SOL    HW281492   1.259   4.487   2.724 -0.2757  1.0897  0.4779
25549SOL     OW81493   5.761   5.197   4.812 -0.0412 -0.2808 -0.5255
25549SOL    HW181494   5.743   5.116   4.861 -0.8023  0.0142 -0.2970
25549SOL    HW281495   5.819   5.169   4.741 -0.3280 -1.0415 -0.4772
25550SOL     OW81496   0.291   8.097   7.381  0.2724 -0.7700  0.3477
25550SOL    HW181497   0.350   8.155   7.332  0.2715 -0.4339  0.7394
25550SOL    HW281498   0.208   8.144   7.383 -0.0638 -1.3135 -0.3392
25551SOL     OW81499   0.233   6.950   2.742  0.7119 -0.7019  0.4374
25551SOL    HW181500   0.267   6.960   2.831 -1.3913  2.2370  1.0536
25551SOL    HW281501   0.292   7.002   2.688 -0.7656  1.7245  1.0098
25552SOL     OW81502   8.966   4.806   9.259 -0.0790 -0.4801  0.0290
25552SOL    HW181503   8.969   4.713   9.235  3.2075 -0.3954 -0.3936
25552SOL    HW281504   8.962   4.852   9.175 -0.3370 -0.2190  0.1817
25553SOL     OW81505   9.016   6.791   4.972 -0.4877 -0.0967 -0.1486
25553SOL    HW181506   9.039   6.881   4.949  1.9102 -0.5124  0.4221
25553SOL    HW281507   9.008   6.793   5.068 -1.8723 -0.2269 -0.2351
25554SOL     OW81508   8.409   7.242   1.245  0.1849 -0.0316  0.7209
25554SOL    HW181509   8.450   7.195   1.317 -0.5051  0.0159  1.1602
25554SOL    HW281510   8.327   7.195   1.230 -0.4416  0.9077  1.0538
25555SOL     OW81511   8.481   7.904   7.023 -0.2096 -0.1120  0.1707
25555SOL    HW181512   8.422   7.922   6.951 -2.6951 -2.8634  1.3276
25555SOL    HW281513   8.543   7.840   6.988  0.2426  0.5168 -0.2009
25556SOL     OW81514   5.713   4.695   8.257  0.0573 -0.2605  0.1407
25556SOL    HW181515   5.617   4.696   8.256 -0.0091 -2.1503  1.1697
25556SOL    HW281516   5.736   4.680   8.349  1.3793  0.6102 -0.0152
25557SOL     OW81517   3.916   5.566   5.888  0.0116 -0.0457  0.3252
25557SOL    HW181518   3.890   5.575   5.980 -0.8786 -0.9960  0.1886
25557SOL    HW281519   4.012   5.563   5.890  0.0361  0.7112  1.1349
25558SOL     OW81520   4.269   7.009   1.445  0.3319 -0.0280  0.1878
25558SOL    HW181521   4.196   7.043   1.497  0.6353 -0.4660  0.9273
25558SOL    HW281522   4.276   7.069   1.371 -1.7553 -0.8608 -0.7351
25559SOL     OW81523   1.896   1.148   3.364 -0.6316  0.1963 -0.3703
25559SOL    HW181524   1.834   1.078   3.381  0.5316 -1.2440 -1.6711
25559SOL    HW281525   1.962   1.140   3.433 -1.1731  0.8611  0.2323
25560SOL     OW81526   3.408   2.218   8.655 -0.7450 -0.3715 -0.0155
25560SOL    HW181527   3.408   2.312   8.669  1.8602  0.0027 -1.7976
25560SOL    HW281528   3.381   2.207   8.564  2.8053 -0.8727 -1.1750
25561SOL     OW81529   3.162   9.418   2.320  0.6454  0.4348 -0.5703
25561SOL    HW181530   3.178   9.324   2.313  0.9412  0.5163 -1.0097
25561SOL    HW281531   3.078   9.431   2.275 -0.7439  0.0089  1.7210
25562SOL     OW81532   6.922   2.646   9.460 -0.0540  0.2298  0.0452
25562SOL    HW181533   6.881   2.640   9.374  1.4499 -0.3081 -0.6871
25562SOL    HW281534   7.011   2.612   9.446  0.0052 -0.5258  1.9645
25563SOL     OW81535   7.400   7.497   2.864  0.2766  0.0507 -0.0514
25563SOL    HW181536   7.478   7.546   2.840  0.9569 -0.7644  0.4509
25563SOL    HW281537   7.397   7.501   2.960 -0.5343  0.4108 -0.0756
25564SOL     OW81538   3.756   4.480   4.880 -0.4811  0.3142 -0.6853
25564SOL    HW181539   3.806   4.430   4.815  0.7226 -0.3463  0.6578
25564SOL    HW281540   3.670   4.493   4.840 -1.0728 -3.3085 -0.9864
25565SOL     OW81541   3.127   2.980   0.302 -0.1761  0.0680 -0.2134
25565SOL    HW181542   3.115   2.967   0.396 -0.9572 -1.1273 -0.4537
25565SOL    HW281543   3.141   2.892   0.267 -1.1475  0.3450 -1.3716
25566SOL     OW81544   0.056   9.298   4.259 -0.3735 -0.0684 -0.7792
25566SOL    HW181545   0.012   9.346   4.329 -1.9718  1.3553 -2.6443
25566SOL    HW281546   0.105   9.229   4.304 -1.7292  0.4525  1.6662
25567SOL     OW81547   2.628   3.059   9.297 -0.2732  0.0387  0.1294
25567SOL    HW181548   2.713   3.092   9.325 -0.3196  0.0402  0.2682
25567SOL    HW281549   2.623   2.971   9.335  0.8360 -1.0827 -2.1006
25568SOL     OW81550   0.327   4.270   7.686  0.0930 -0.0746  0.6059
25568SOL    HW181551   0.342   4.360   7.714  2.1310 -0.6220  1.5008
25568SOL    HW281552   0.236   4.252   7.710 -0.2783  1.6588  0.5941
25569SOL     OW81553   3.091   8.807   7.492 -0.5537  0.6944  0.1590
25569SOL    HW181554   3.058   8.718   7.482 -0.4496  0.5534  0.9875
25569SOL    HW281555   3.012   8.861   7.499 -0.6672  0.3397  2.2701
25570SOL     OW81556   5.394   9.742   8.395  0.5141 -0.0174  0.1149
25570SOL    HW181557   5.450   9.753   8.318 -0.9578  1.4903 -0.8051
25570SOL    HW281558   5.455   9.731   8.468  2.2152  4.7583 -0.2909
25571SOL     OW81559   0.338   4.351   6.928 -0.0025 -0.3122  0.2862
25571SOL    HW181560   0.384   4.285   6.877  2.4980  1.2143  0.3778
25571SOL    HW281561   0.288   4.401   6.864  0.3055 -0.6036 -0.1881
25572SOL     OW81562   0.380   8.677   9.694 -0.3589  0.1542 -0.0183
25572SOL    HW181563   0.385   8.585   9.670  1.0722  0.0157  0.7069
25572SOL    HW281564   0.422   8.723   9.622 -0.7700  0.2178 -0.2212
25573SOL     OW81565   7.980   3.647   8.494  0.1298 -0.3080 -0.0687
25573SOL    HW181566   8.018   3.624   8.579 -0.2303  0.6897  0.3760
25573SOL    HW281567   7.986   3.566   8.443  0.7276 -0.8111  0.7610
25574SOL     OW81568   1.338   0.910   4.728  0.4311 -0.4599 -0.4751
25574SOL    HW181569   1.386   0.875   4.803 -2.1049 -0.7033  1.1840
25574SOL    HW281570   1.305   0.995   4.757 -1.5797 -1.0631 -0.7774
25575SOL     OW81571   5.110   4.199   7.343 -0.7268 -0.8459  0.1509
25575SOL    HW181572   5.087   4.288   7.315 -1.1203 -1.3682 -1.2780
25575SOL    HW281573   5.111   4.148   7.262  0.1757 -2.0077  0.8621
25576SOL     OW81574   4.554   7.384   9.293  0.1134 -0.4519 -0.4186
25576SOL    HW181575   4.583   7.412   9.379  1.6328 -0.5366 -0.8766
25576SOL    HW281576   4.524   7.294   9.306 -2.4787  0.4503  0.5580
25577SOL     OW81577   0.138   5.664   1.308 -0.4092 -0.5905  0.0391
25577SOL    HW181578   0.139   5.612   1.388  0.3570  1.0667  1.1551
25577SOL    HW281579   0.163   5.603   1.239  0.9325 -1.5878  1.3625
25578SOL     OW81580   7.622   5.628   7.669 -0.0376 -0.1904  0.4165
25578SOL    HW181581   7.587   5.621   7.759  1.2989  0.5603  1.0150
25578SOL    HW281582   7.646   5.720   7.659  1.8821 -0.6801  0.0979
25579SOL     OW81583   0.247   7.799   7.155 -0.6612  0.4398 -0.4219
25579SOL    HW181584   0.295   7.879   7.135  0.8293  0.0235  1.2433
25579SOL    HW281585   0.165   7.807   7.105 -0.6661  3.0945 -0.1321
25580SOL     OW81586   7.366   6.300   3.680 -0.0943  0.0652  0.3063
25580SOL    HW181587   7.337   6.344   3.760  0.6054  1.5471 -0.2255
25580SOL    HW281588   7.410   6.220   3.711  0.3423  0.7182  1.4201
25581SOL     OW81589   3.715   1.544   4.082 -0.2651 -0.1082  0.4996
25581SOL    HW181590   3.718   1.545   3.986  0.2463 -0.3766  0.5101
25581SOL    HW281591   3.625   1.571   4.103 -0.7059 -1.0713 -0.0787
25582SOL     OW81592   0.102   0.328   8.842 -0.0645 -0.4277  0.0907
25582SOL    HW181593   0.172   0.269   8.815 -0.0205  0.8067 -2.9175
25582SOL    HW281594   0.022   0.284   8.814 -0.2965 -0.5665  0.9514
25583SOL     OW81595   6.161   0.715   2.229 -0.0078  0.2259  0.4167
25583SOL    HW181596   6.084   0.723   2.286 -0.2527 -0.5856  0.2208
25583SOL    HW281597   6.211   0.643   2.266  1.0497  1.2269  0.9654
25584SOL     OW81598   5.169   3.832   1.521 -0.1292 -0.1031 -0.0364
25584SOL    HW181599   5.129   3.918   1.508  0.4534  0.1884  0.0985
25584SOL    HW281600   5.097   3.771   1.504 -0.3401  0.3727 -1.0009
25585SOL     OW81601   9.378   8.169   2.877  0.1349  0.2667 -0.5989
25585SOL    HW181602   9.397   8.092   2.824 -1.5307  0.3272 -1.3319
25585SOL    HW281603   9.381   8.137   2.967  3.3638  0.2450 -0.6157
25586SOL     OW81604   7.455   3.287   6.802  0.3204 -0.2067 -0.3169
25586SOL    HW181605   7.511   3.243   6.866  1.0847  1.4238  0.1976
25586SOL    HW281606   7.428   3.368   6.846 -1.3348 -0.3105 -1.0847
25587SOL     OW81607   1.016   9.727   1.635 -0.5228 -0.5087 -0.2637
25587SOL    HW181608   1.037   9.802   1.578 -0.6919  0.4700  0.9148
25587SOL    HW281609   1.036   9.650   1.582  1.2046  0.3648 -0.9644
25588SOL     OW81610   8.298   9.382   5.552 -0.4375  0.4414 -0.4191
25588SOL    HW181611   8.232   9.451   5.565 -1.9223 -0.5860 -2.0999
25588SOL    HW281612   8.303   9.372   5.458  2.6651  0.9028 -0.3856
25589SOL     OW81613   8.916   0.195   3.141 -0.3421  0.6276  0.2742
25589SOL    HW181614   8.850   0.138   3.102 -0.9213  0.4030  1.5118
25589SOL    HW281615   8.985   0.203   3.075 -1.2036  0.1455 -0.6921
25590SOL     OW81616   6.450   4.245   4.154  0.4844 -0.3005 -0.4665
25590SOL    HW181617   6.389   4.221   4.223 -0.2963  1.7667 -0.3737
25590SOL    HW281618   6.417   4.200   4.076  1.3235 -2.5844  0.4026
25591SOL     OW81619   7.619   5.869   8.529  0.1786  0.3638 -0.3976
25591SOL    HW181620   7.591   5.778   8.539  0.7877  0.3103  1.0468
25591SOL    HW281621   7.646   5.895   8.617  0.3470  1.8329 -0.8716
25592SOL     OW81622   5.949   8.039   2.617  0.4168 -0.2860 -0.1122
25592SOL    HW181623   6.038   8.074   2.622  0.4492 -0.2730 -0.7276
25592SOL    HW281624   5.945   7.972   2.685  1.0326 -0.5814 -0.3626
25593SOL     OW81625   3.085   4.661   4.238  0.7986 -0.0931  0.2193
25593SOL    HW181626   3.166   4.695   4.277  1.3194 -1.6096  0.4946
25593SOL    HW281627   3.015   4.702   4.289  1.3878  0.7853  0.3548
25594SOL     OW81628   8.381   5.924   1.542  0.0516 -0.0577  0.0931
25594SOL    HW181629   8.404   5.910   1.634 -0.0903  2.1764  0.5387
25594SOL    HW281630   8.307   5.865   1.526  0.1165 -0.5178  1.4066
25595SOL     OW81631   1.648   5.131   3.419  0.1575 -0.7219  0.0951
25595SOL    HW181632   1.652   5.140   3.324  0.8055 -1.5699  0.0375
25595SOL    HW281633   1.634   5.038   3.435 -0.3600 -0.5367  0.8336
25596SOL     OW81634   8.270   8.592   2.722  0.0364  0.3523 -0.3916
25596SOL    HW181635   8.253   8.588   2.627 -0.1014  1.5884 -0.4438
25596SOL    HW281636   8.327   8.668   2.732  1.6780 -0.9241  0.3266
25597SOL     OW81637   6.866   9.416   1.083 -0.2975  0.2104  0.1465
25597SOL    HW181638   6.773   9.394   1.081 -0.9294  2.1825  2.6001
25597SOL    HW281639   6.871   9.503   1.043  0.4572  0.1953  0.1887
25598SOL     OW81640   8.238   4.752   4.863 -0.3645  0.2702  0.6633
25598SOL    HW181641   8.303   4.820   4.847 -0.9609  0.9579  1.1218
25598SOL    HW281642   8.278   4.672   4.828  1.0100  0.5463  1.5072
25599SOL     OW81643   7.678   6.528   4.885 -0.3243  0.1871  0.2155
25599SOL    HW181644   7.720   6.508   4.969  0.6168 -0.9881 -0.5078
25599SOL    HW281645   7.638   6.614   4.899  0.1529  0.1994  1.7402
25600SOL     OW81646   7.653   6.384   1.749 -0.4281  0.1606 -0.2938
25600SOL    HW181647   7.735   6.401   1.794 -0.5655 -2.5046  1.2117
25600SOL    HW281648   7.669   6.303   1.700 -0.8186  2.0381 -3.8572
25601SOL     OW81649   6.308   3.027   3.716 -0.4665 -0.0466 -0.1095
25601SOL    HW181650   6.274   2.940   3.692 -2.2444  0.5449  0.0689
25601SOL    HW281651   6.322   3.021   3.811 -1.2811  0.0641  0.0243
25602SOL     OW81652   9.702   3.520   3.479  0.8938  0.1686  0.0222
25602SOL    HW181653   9.613   3.492   3.454  1.1183 -3.0349  2.2695
25602SOL    HW281654   9.753   3.512   3.398 -0.3682 -0.1146 -0.7754
25603SOL     OW81655   1.229   3.819   6.909 -0.2745  0.5367 -0.3205
25603SOL    HW181656   1.309   3.815   6.961  0.0591 -1.6844 -0.8993
25603SOL    HW281657   1.169   3.759   6.953 -1.2612  1.3484 -0.5147
25604SOL     OW81658   0.054   2.379   6.037 -0.6058 -0.1348 -0.5586
25604SOL    HW181659   0.074   2.389   5.944  0.1237  2.5688 -0.1882
25604SOL    HW281660   0.056   2.468   6.072  0.2759 -1.1654  2.2942
25605SOL     OW81661   8.140   4.125   7.311  0.0096  0.0388  0.3306
25605SOL    HW181662   8.121   4.050   7.368  0.1512  0.0187  0.3536
25605SOL    HW281663   8.230   4.149   7.334 -0.6995  1.5096  1.7940
25606SOL     OW81664   3.491   2.076   9.306 -0.2844  0.1560  0.1548
25606SOL    HW181665   3.490   2.090   9.400  1.7796 -0.7310  0.3511
25606SOL    HW281666   3.572   2.117   9.276 -0.2802 -0.6737 -1.0449
25607SOL     OW81667   6.955   7.188   0.102  0.1111 -0.5094 -0.5275
25607SOL    HW181668   6.980   7.209   0.012  1.3954 -0.0127 -0.0646
25607SOL    HW281669   6.882   7.248   0.121  0.0742 -0.3629 -1.0991
25608SOL     OW81670   1.091   2.014   1.177  0.2424  0.3012  0.1175
25608SOL    HW181671   1.184   2.004   1.198  0.4008  2.1850  0.4989
25608SOL    HW281672   1.063   2.090   1.228 -1.9067 -1.0930  1.1398
25609SOL     OW81673   6.814   8.351   2.684  0.9975 -0.1678  0.2038
25609SOL    HW181674   6.734   8.377   2.729  1.3286  0.3444  0.5226
25609SOL    HW281675   6.819   8.409   2.608  0.9620 -0.3372  0.0721
25610SOL     OW81676   6.547   6.137   5.641  0.7702 -0.0094  0.6314
25610SOL    HW181677   6.550   6.135   5.736  1.1097 -0.6594  0.6089
25610SOL    HW281678   6.633   6.169   5.614  1.0133 -0.7261  0.5244
25611SOL     OW81679   0.808   2.978   6.608 -0.4730 -0.0965  0.2015
25611SOL    HW181680   0.807   3.052   6.547  0.0392 -0.4339 -0.2245
25611SOL    HW281681   0.807   3.018   6.695  0.8033  0.4595 -0.0103
25612SOL     OW81682   4.840   7.576   6.217  0.0937  0.1862 -0.0410
25612SOL    HW181683   4.825   7.594   6.310  1.4839 -0.2842  0.3049
25612SOL    HW281684   4.805   7.488   6.204  1.1263 -0.3154  0.4022
25613SOL     OW81685   4.593   9.154   5.381 -0.5302  0.4386  0.2090
25613SOL    HW181686   4.548   9.227   5.338  1.0712  1.7474  0.6446
25613SOL    HW281687   4.601   9.182   5.473 -1.1034 -0.9079  0.6939
25614SOL     OW81688   1.422   8.981   5.277  0.3506 -0.0316 -0.2306
25614SOL    HW181689   1.384   8.909   5.227  0.1735  0.0971 -0.2791
25614SOL    HW281690   1.419   9.056   5.218 -0.1804  0.2078  0.0937
25615SOL     OW81691   6.951   5.758   8.865 -0.0658  0.4572 -0.0270
25615SOL    HW181692   6.953   5.666   8.891  0.6460  0.5726  0.3468
25615SOL    HW281693   6.883   5.797   8.919  1.2798  0.6610  1.6111
25616SOL     OW81694   3.849   8.372   4.110 -0.6332 -0.7747 -0.6396
25616SOL    HW181695   3.923   8.312   4.113 -1.3208 -1.6345 -0.2370
25616SOL    HW281696   3.881   8.449   4.063  0.5380 -1.0800 -0.3595
25617SOL     OW81697   3.266   6.694   4.554 -0.6033 -0.1268  0.6771
25617SOL    HW181698   3.193   6.753   4.570 -0.0663  1.1204 -1.1681
25617SOL    HW281699   3.231   6.606   4.571 -2.1821  0.5304  0.9114
25618SOL     OW81700   8.754   4.487   8.811  0.7863  0.5112  0.3682
25618SOL    HW181701   8.776   4.539   8.733  0.9758  0.7490  0.5796
25618SOL    HW281702   8.810   4.522   8.880  1.4095 -0.4390  0.3518
25619SOL     OW81703   1.156   5.761   5.452  0.5526  0.0340  0.1454
25619SOL    HW181704   1.090   5.717   5.505 -0.0381 -0.9478 -1.3455
25619SOL    HW281705   1.108   5.796   5.377  1.7375 -0.9346 -1.1153
25620SOL     OW81706   0.991   6.299   6.240 -0.3544  0.2828 -0.3586
25620SOL    HW181707   1.066   6.257   6.200  0.5705  1.3343  0.2239
25620SOL    HW281708   0.926   6.306   6.169 -0.7518 -2.4764 -0.3746
25621SOL     OW81709   4.455   8.802   4.629 -0.3162  0.6606  0.0624
25621SOL    HW181710   4.370   8.770   4.661 -1.0935  0.0525 -2.3415
25621SOL    HW281711   4.449   8.897   4.636 -0.8741  0.5926  0.6542
25622SOL     OW81712   1.147   8.687   6.118  0.4450 -0.9355 -0.3528
25622SOL    HW181713   1.129   8.722   6.031 -1.3439 -0.3996  0.1923
25622SOL    HW281714   1.137   8.592   6.108 -0.7170 -0.8004 -0.5264
25623SOL     OW81715   4.190   7.377   4.844  0.4729  0.3497 -0.5249
25623SOL    HW181716   4.197   7.392   4.938  0.9099 -0.6885 -0.3715
25623SOL    HW281717   4.120   7.435   4.815 -0.2448  0.0719  0.5916
25624SOL     OW81718   7.172   5.658   1.475 -0.2487 -0.3903 -0.0904
25624SOL    HW181719   7.183   5.574   1.519  0.7544  0.5165  1.5198
25624SOL    HW281720   7.087   5.652   1.432  0.4758 -2.7650 -1.3310
25625SOL     OW81721   3.437   5.002   1.134  0.5324  0.2637 -0.0292
25625SOL    HW181722   3.405   5.068   1.196  0.4695  0.7686 -0.6010
25625SOL    HW281723   3.382   4.925   1.152 -0.4221  0.8410 -0.3919
25626SOL     OW81724   5.970   9.354   8.936 -0.9977 -0.1747 -0.2931
25626SOL    HW181725   6.028   9.346   8.860 -0.3809 -0.8464  0.2228
25626SOL    HW281726   5.949   9.447   8.941  2.6752  0.7594  1.3384
25627SOL     OW81727   4.647   3.314   0.710  0.0521 -0.2320 -0.8413
25627SOL    HW181728   4.594   3.263   0.771 -0.8908  2.8353  1.1485
25627SOL    HW281729   4.730   3.327   0.756  0.2576  0.0803 -1.2958
25628SOL     OW81730   0.460   6.541   3.292 -0.0184  0.0975  0.9888
25628SOL    HW181731   0.414   6.459   3.273 -0.9718  1.2589 -2.3332
25628SOL    HW281732   0.391   6.600   3.323  0.0072  0.6055  0.0999
25629SOL     OW81733   9.038   0.228   8.398 -0.0042  0.0057 -0.1957
25629SOL    HW181734   9.072   0.240   8.487  2.5707 -2.8895 -0.6117
25629SOL    HW281735   8.967   0.165   8.408 -1.2458  1.3921 -0.0044
25630SOL     OW81736   0.360   9.468   1.093 -0.1878 -0.3723  0.0992
25630SOL    HW181737   0.409   9.386   1.102  0.6936  0.1004 -0.2817
25630SOL    HW281738   0.356   9.503   1.182 -0.4360 -0.7445  0.2400
25631SOL     OW81739   3.578   8.814   8.726 -0.1217 -0.4311  0.0286
25631SOL    HW181740   3.508   8.752   8.706 -0.4518  0.3370 -1.3717
25631SOL    HW281741   3.539   8.876   8.788  0.3945 -1.9195  1.9020
25632SOL     OW81742   9.305   1.720   3.825  0.2084  0.2663  0.3166
25632SOL    HW181743   9.313   1.790   3.761  0.2583 -0.5668 -0.6165
25632SOL    HW281744   9.240   1.660   3.788  0.7969 -0.6148  0.6644
25633SOL     OW81745   4.303   4.759   6.826 -0.0801  0.4608 -0.3620
25633SOL    HW181746   4.215   4.740   6.858 -0.2336 -0.1286 -1.0920
25633SOL    HW281747   4.352   4.784   6.904 -1.0645  1.4754 -0.0406
25634SOL     OW81748   7.788   8.710   9.352 -0.0802 -0.5151 -0.4847
25634SOL    HW181749   7.784   8.795   9.310  1.1443  0.8979  2.0100
25634SOL    HW281750   7.873   8.674   9.325 -0.5630 -0.9261 -1.4756
25635SOL     OW81751   0.412   6.661   1.023 -0.2117 -0.3957 -0.6080
25635SOL    HW181752   0.493   6.698   1.058  0.5154 -0.3002 -2.3280
25635SOL    HW281753   0.344   6.692   1.083  1.0280 -0.8028  1.1091
25636SOL     OW81754   1.329   0.142   3.495  0.2192 -0.1120  0.4133
25636SOL    HW181755   1.403   0.160   3.438  0.5415 -0.0486  0.8507
25636SOL    HW281756   1.348   0.057   3.534  0.0049 -0.1487  0.4401
25637SOL     OW81757   9.103   4.226   5.867  0.5173 -0.1394 -0.5018
25637SOL    HW181758   9.118   4.294   5.801  2.2883  0.8703  0.8596
25637SOL    HW281759   9.101   4.144   5.817  0.7481  0.6839 -1.9186
25638SOL     OW81760   0.207   3.109   1.795 -0.6320 -0.6110 -0.3835
25638SOL    HW181761   0.163   3.142   1.716 -1.9795 -0.0823  0.5531
25638SOL    HW281762   0.296   3.146   1.789 -0.5105 -1.0757 -1.9356
25639SOL     OW81763   4.678   6.310   7.425 -0.3075  0.2587  0.3885
25639SOL    HW181764   4.606   6.288   7.366  0.1115  0.5072 -0.2144
25639SOL    HW281765   4.757   6.295   7.374  0.1624 -1.6492  1.5602
25640SOL     OW81766   2.488   7.211   8.491  0.0612  0.2949  0.0983
25640SOL    HW181767   2.474   7.147   8.562  1.0954 -0.9413 -0.7716
25640SOL    HW281768   2.412   7.200   8.434  1.7527 -2.7045 -1.8616
25641SOL     OW81769   7.821   3.010   5.887 -0.2341 -0.2716 -0.0378
25641SOL    HW181770   7.730   3.029   5.868  0.4689  3.4822 -0.3461
25641SOL    HW281771   7.863   3.000   5.802 -0.1021 -0.6834  0.0703
25642SOL     OW81772   7.120   1.691   2.079 -0.1775  0.0310  0.2965
25642SOL    HW181773   7.051   1.737   2.126 -0.3062 -0.4095  0.5484
25642SOL    HW281774   7.201   1.721   2.120 -0.0329  2.0837 -1.3004
25643SOL     OW81775   8.025   6.120   9.570 -0.4861  0.0067 -0.0844
25643SOL    HW181776   7.987   6.187   9.513 -1.4305 -0.2658  0.2094
25643SOL    HW281777   8.000   6.146   9.658 -0.8419 -0.7009  0.0385
25644SOL     OW81778   3.145   6.729   3.258 -0.5048  0.7256 -0.1243
25644SOL    HW181779   3.122   6.706   3.348 -0.6846  0.2439 -0.2858
25644SOL    HW281780   3.068   6.702   3.207  0.0287 -0.0193 -0.5533
25645SOL     OW81781   6.327   7.710   6.113  0.2765  0.2037  0.0561
25645SOL    HW181782   6.305   7.637   6.054 -0.4804  0.6431 -0.2221
25645SOL    HW281783   6.388   7.673   6.176  1.4524 -0.1870 -1.2562
25646SOL     OW81784   6.674   0.178   3.485  0.5295 -0.5339 -0.4279
25646SOL    HW181785   6.703   0.124   3.559 -0.7163 -0.9872 -0.2519
25646SOL    HW281786   6.579   0.168   3.483  0.1413  2.2669  0.0824
25647SOL     OW81787   1.647   4.289   7.853 -0.0134  0.2545 -0.4488
25647SOL    HW181788   1.651   4.337   7.936  0.5473  1.2484 -1.0236
25647SOL    HW281789   1.561   4.247   7.853  0.0917  0.0011  0.7557
25648SOL     OW81790   0.846   7.815   4.664  0.2956 -0.1980 -0.0476
25648SOL    HW181791   0.889   7.732   4.686 -1.3843 -0.9181  0.7400
25648SOL    HW281792   0.764   7.813   4.714  0.3074  2.0498  0.1733
25649SOL     OW81793   2.117   0.479   2.095  0.1151  0.0771 -0.3302
25649SOL    HW181794   2.135   0.451   2.185  1.1968  0.0990 -0.5345
25649SOL    HW281795   2.202   0.479   2.052 -0.4061 -0.0452 -1.3928
25650SOL     OW81796   0.536   0.346   0.268 -0.2453  0.5379  0.7159
25650SOL    HW181797   0.484   0.379   0.195 -0.4741 -0.8026  0.2535
25650SOL    HW281798   0.483   0.363   0.345 -0.3251  1.3066  0.4963
25651SOL     OW81799   9.529   2.169   1.486 -0.2078 -0.3355  0.0381
25651SOL    HW181800   9.444   2.132   1.464 -0.3770  0.6302 -1.0757
25651SOL    HW281801   9.517   2.211   1.571 -0.6890 -0.6892  0.1435
25652SOL     OW81802   6.897   0.957   7.743 -0.0852  0.3488 -0.1748
25652SOL    HW181803   6.891   1.036   7.690  0.0729  1.8507  1.9200
25652SOL    HW281804   6.952   0.898   7.692 -1.0555  1.1541 -2.2727
25653SOL     OW81805   5.993   0.807   0.684  0.0515 -0.6998 -0.5255
25653SOL    HW181806   5.922   0.827   0.745  1.3350  0.5074  0.6230
25653SOL    HW281807   5.948   0.793   0.600 -1.5738 -0.4117  0.2485
25654SOL     OW81808   9.517   3.153   5.722  0.1201 -0.2336 -0.4009
25654SOL    HW181809   9.586   3.087   5.730 -0.1930 -0.6387 -0.9344
25654SOL    HW281810   9.438   3.102   5.703  0.2338  0.3798 -2.8549
25655SOL     OW81811   8.420   9.312   9.114  0.6673 -0.0883  0.3681
25655SOL    HW181812   8.383   9.399   9.131 -0.2827 -0.1233 -1.2853
25655SOL    HW281813   8.386   9.288   9.028  2.5781 -1.2260 -0.1299
25656SOL     OW81814   3.895   4.805   3.962  0.2440  0.5406 -0.4120
25656SOL    HW181815   3.893   4.710   3.950  2.4176  0.2504  1.0532
25656SOL    HW281816   3.841   4.821   4.040 -0.8254  0.6358 -1.1535
25657SOL     OW81817   7.564   2.552   7.671 -0.1378  0.4656 -0.3348
25657SOL    HW181818   7.617   2.476   7.697  0.2707  1.1981  1.0804
25657SOL    HW281819   7.478   2.536   7.710 -0.1266  0.6077 -0.2509
25658SOL     OW81820   1.041   2.005   2.792  0.3639 -0.4047 -0.1217
25658SOL    HW181821   0.984   2.049   2.729  1.0022  0.6327  0.0158
25658SOL    HW281822   1.118   2.061   2.799  1.5040 -1.8639 -0.4268
25659SOL     OW81823   4.273   5.803   1.116  0.4989  0.0338 -1.3480
25659SOL    HW181824   4.243   5.738   1.052  0.3718 -2.0360  0.6681
25659SOL    HW281825   4.350   5.763   1.156  0.3584  1.0998  0.0537
25660SOL     OW81826   4.762   6.880   1.267  0.1373 -0.1742 -0.1386
25660SOL    HW181827   4.838   6.888   1.325 -0.1224 -1.3260  0.3974
25660SOL    HW281828   4.704   6.952   1.293  0.2714 -0.3461  0.6650
25661SOL     OW81829   1.445   6.534   1.907 -0.1518 -0.0681  0.6963
25661SOL    HW181830   1.399   6.614   1.885 -0.3042 -0.7052 -1.5727
25661SOL    HW281831   1.535   6.549   1.877 -0.3824 -1.0087 -0.5579
25662SOL     OW81832   2.376   2.735   6.279 -0.0424  0.2829  0.0068
25662SOL    HW181833   2.363   2.791   6.355  2.5537  0.9743  0.0140
25662SOL    HW281834   2.437   2.668   6.309 -1.7596 -1.5985 -0.5045
25663SOL     OW81835   3.406   2.988   2.274  1.0173  0.0667  0.5621
25663SOL    HW181836   3.469   2.917   2.281  1.0241 -0.0371 -0.4263
25663SOL    HW281837   3.346   2.974   2.347  0.9619 -1.0017  0.3227
25664SOL     OW81838   2.932   2.278   2.915 -0.0371  0.2238 -0.1298
25664SOL    HW181839   2.856   2.303   2.968  0.6581 -1.8742  2.0784
25664SOL    HW281840   2.991   2.353   2.921 -0.4380  0.4675  1.2634
25665SOL     OW81841   7.665   7.121   8.027  0.3344 -0.0554 -0.0634
25665SOL    HW181842   7.660   7.177   7.949  1.6276  0.6133  0.3040
25665SOL    HW281843   7.736   7.159   8.079  0.7012 -1.5608  0.5862
25666SOL     OW81844   7.318   7.578   7.448 -0.2295  0.0734  0.1381
25666SOL    HW181845   7.240   7.568   7.393  0.3803  2.4796 -1.2787
25666SOL    HW281846   7.285   7.619   7.528 -0.4709  0.7721 -0.3155
25667SOL     OW81847   4.916   7.748   2.056 -0.2355 -0.3164  0.3931
25667SOL    HW181848   4.822   7.747   2.038 -0.4599 -1.0227  1.5381
25667SOL    HW281849   4.928   7.683   2.126  1.2803 -1.1862 -0.6131
25668SOL     OW81850   4.739   2.985   1.586  0.0967 -0.1870 -0.4655
25668SOL    HW181851   4.781   2.990   1.500  0.3154  0.1779 -0.3408
25668SOL    HW281852   4.652   3.021   1.573  0.3597  0.4882 -0.3939
25669SOL     OW81853   1.846   2.029   8.520  0.1709  0.2529 -0.1375
25669SOL    HW181854   1.869   2.096   8.456 -1.5905 -0.4982 -1.6658
25669SOL    HW281855   1.902   1.954   8.497  0.6670  0.5024  0.2410
25670SOL     OW81856   7.941   5.045   8.085  0.4569 -0.2940 -0.1451
25670SOL    HW181857   7.897   5.012   8.163  1.2128 -0.9934 -0.0063
25670SOL    HW281858   7.987   4.969   8.049 -0.8566 -0.2844 -1.9712
25671SOL     OW81859   8.862   4.245   9.523 -0.0041 -0.0876  0.1516
25671SOL    HW181860   8.794   4.306   9.495 -0.3905 -0.1069  1.0081
25671SOL    HW281861   8.833   4.160   9.489  0.9872  0.3015 -1.8119
25672SOL     OW81862   1.993   0.440   9.453  0.1181  0.4686  0.0028
25672SOL    HW181863   1.911   0.408   9.491 -0.7421  0.8204 -1.4633
25672SOL    HW281864   2.043   0.361   9.434  0.3256  0.2654  1.3036
25673SOL     OW81865   8.776   2.419   7.964 -0.1836 -0.2807  0.3915
25673SOL    HW181866   8.700   2.438   7.908  0.1040  1.1840  0.4651
25673SOL    HW281867   8.850   2.461   7.919  0.3592 -0.6079  0.9714
25674SOL     OW81868   5.935   4.585   0.403 -0.6734 -0.1204  0.0533
25674SOL    HW181869   5.969   4.652   0.343  0.0966 -0.6882 -0.1631
25674SOL    HW281870   5.910   4.633   0.481 -0.9555  0.5326 -0.4347
25675SOL     OW81871   2.863   7.590   6.683 -0.3795  0.2929 -0.1490
25675SOL    HW181872   2.893   7.565   6.771 -0.4137  0.0280 -0.2096
25675SOL    HW281873   2.921   7.661   6.657  0.8471 -0.8290 -0.6460
25676SOL     OW81874   5.340   7.529   7.030 -0.0277 -0.0643  0.8969
25676SOL    HW181875   5.295   7.511   7.113 -0.1141  1.6382  1.2555
25676SOL    HW281876   5.430   7.548   7.056  0.5421 -1.7784  0.3406
25677SOL     OW81877   3.246   9.555   4.569  0.1403 -0.0003 -0.0417
25677SOL    HW181878   3.311   9.491   4.596  0.1746 -0.6765 -1.6055
25677SOL    HW281879   3.202   9.515   4.494 -2.6769  0.0727  1.4259
25678SOL     OW81880   3.263   5.985   2.283  0.2286  0.2357  0.4632
25678SOL    HW181881   3.327   5.920   2.253  1.1185  1.4604 -0.3809
25678SOL    HW281882   3.228   6.023   2.203 -1.2184 -0.0589  0.9292
25679SOL     OW81883   3.573   3.536   7.220  0.1901 -0.0366  0.3915
25679SOL    HW181884   3.629   3.585   7.280  0.1841 -2.3948  2.5012
25679SOL    HW281885   3.573   3.587   7.139  4.1671  0.8392  0.7518
25680SOL     OW81886   6.936   2.234   1.036  0.1004 -0.4193  0.2938
25680SOL    HW181887   6.923   2.160   0.977  0.4683 -1.7720  1.8451
25680SOL    HW281888   6.878   2.302   1.003 -0.9059 -1.7107 -0.6625
25681SOL     OW81889   3.310   5.627   4.826  0.5078  0.4090  0.6147
25681SOL    HW181890   3.355   5.562   4.771 -1.0838 -0.5933  0.4479
25681SOL    HW281891   3.269   5.687   4.765 -1.3462 -0.7620  0.6270
25682SOL     OW81892   6.778   1.902   8.981 -0.0373  0.3507 -0.0252
25682SOL    HW181893   6.699   1.860   9.016 -0.4571  0.9729 -0.1953
25682SOL    HW281894   6.801   1.850   8.903  0.9112 -1.0496  1.1400
25683SOL     OW81895   4.220   6.024   4.214 -0.0562  0.5143  0.2775
25683SOL    HW181896   4.181   5.941   4.241  0.9049 -0.6092 -1.5568
25683SOL    HW281897   4.310   6.001   4.190  0.9482  2.5149  1.8318
25684SOL     OW81898   6.068   9.632   0.164  0.1801 -0.1875 -0.0046
25684SOL    HW181899   6.123   9.565   0.203  0.7575  0.7306  0.7977
25684SOL    HW281900   6.127   9.683   0.108  0.5766  1.7812  2.0669
25685SOL     OW81901   7.141   4.779   2.606 -0.5830 -0.3477 -0.3680
25685SOL    HW181902   7.141   4.726   2.527 -1.8759 -1.2859  0.2245
25685SOL    HW281903   7.064   4.835   2.597  1.4006  2.4391 -1.5587
25686SOL     OW81904   2.053   4.106   3.088 -0.1494 -0.0653 -0.0182
25686SOL    HW181905   1.991   4.164   3.133 -2.0714 -0.4672 -2.0128
25686SOL    HW281906   2.045   4.022   3.134  0.7993  0.5119  1.2787
25687SOL     OW81907   7.022   4.468   3.549  0.0805  0.5353  0.3052
25687SOL    HW181908   6.931   4.469   3.518  0.2953  0.0773 -0.3612
25687SOL    HW281909   7.051   4.378   3.535  1.1371  1.0433 -1.0202
25688SOL     OW81910   5.434   1.133   4.869 -0.0729  0.2616  0.3070
25688SOL    HW181911   5.413   1.205   4.928  1.2137  1.4774 -0.6293
25688SOL    HW281912   5.362   1.131   4.806 -1.6778 -1.3235  2.0640
25689SOL     OW81913   0.607   6.049   7.927 -0.4612 -0.0311  0.2860
25689SOL    HW181914   0.689   6.058   7.975 -0.3054 -1.1890  0.2552
25689SOL    HW281915   0.540   6.080   7.988 -0.4226 -2.6666  1.7788
25690SOL     OW81916   3.664   4.542   3.195  0.5279 -0.5583  0.8652
25690SOL    HW181917   3.644   4.632   3.220  0.5955 -0.3630  0.2457
25690SOL    HW281918   3.706   4.504   3.272 -0.3943 -0.3607  1.4747
25691SOL     OW81919   2.375   6.235   1.364 -0.0818 -0.7665  0.3038
25691SOL    HW181920   2.400   6.200   1.279  1.3717 -0.6307  0.6405
25691SOL    HW281921   2.456   6.233   1.416  0.0567  2.6894  0.4794
25692SOL     OW81922   8.210   1.792   1.624 -0.2469 -0.1409 -0.2602
25692SOL    HW181923   8.257   1.850   1.684 -0.8708 -0.3192  0.4009
25692SOL    HW281924   8.229   1.704   1.655 -1.0878 -0.2127  0.0718
25693SOL     OW81925   5.924   1.291   7.730  0.1411 -0.2133  0.6904
25693SOL    HW181926   5.883   1.340   7.802  0.2037  1.3966 -0.3343
25693SOL    HW281927   5.857   1.286   7.662  1.0722  1.0336 -0.3649
25694SOL     OW81928   8.942   9.379   4.857  0.2511 -0.3525 -0.4437
25694SOL    HW181929   8.870   9.439   4.876 -1.1975 -2.1499  0.1213
25694SOL    HW281930   8.991   9.373   4.939  0.5151  0.1849 -0.5585
25695SOL     OW81931   2.949   2.899   8.482  0.1521  0.2007  0.2876
25695SOL    HW181932   2.918   2.841   8.412  0.0913 -1.3595  1.5341
25695SOL    HW281933   2.922   2.855   8.562  0.8425  1.5852  1.3172
25696SOL     OW81934   1.161   7.498   7.800 -0.1133 -0.6219  0.0962
25696SOL    HW181935   1.138   7.548   7.879 -0.9857 -1.0059  0.1009
25696SOL    HW281936   1.240   7.449   7.825  0.3900  0.2703  0.2902
25697SOL     OW81937   7.430   3.609   3.267 -0.0267  0.2372  0.2900
25697SOL    HW181938   7.435   3.514   3.268 -0.3000  0.2247  0.8618
25697SOL    HW281939   7.372   3.631   3.340  0.6577  0.8764  0.6559
25698SOL     OW81940   0.534   4.021   1.800  0.0913 -0.0138 -0.1066
25698SOL    HW181941   0.605   4.029   1.864  1.3514 -1.1720 -1.2904
25698SOL    HW281942   0.505   3.930   1.809  0.1178 -0.1158 -1.0136
25699SOL     OW81943   0.648   1.921   8.757  0.2280 -0.4337 -0.2708
25699SOL    HW181944   0.686   1.859   8.819 -1.9399 -0.6236  0.9807
25699SOL    HW281945   0.561   1.939   8.792 -0.9352 -0.1903 -3.0325
25700SOL     OW81946   3.363   6.667   2.388 -0.1741  0.1998 -0.0419
25700SOL    HW181947   3.288   6.636   2.337  0.6550  0.5385 -1.5249
25700SOL    HW281948   3.383   6.753   2.350  2.6344 -1.0152 -1.5354
25701SOL     OW81949   7.388   0.692   6.076  0.1262 -0.2885  0.0834
25701SOL    HW181950   7.315   0.714   6.018  1.1533  1.1553 -0.7366
25701SOL    HW281951   7.351   0.692   6.164 -0.5699  2.0574 -0.1455
25702SOL     OW81952   2.577   9.613   7.937  0.0932  0.0567  0.3062
25702SOL    HW181953   2.606   9.526   7.910 -0.4674 -0.5280  1.5055
25702SOL    HW281954   2.644   9.643   8.000 -0.2123  0.0714  0.6303
25703SOL     OW81955   7.648   6.264   3.290  0.2239 -0.0050  0.6341
25703SOL    HW181956   7.599   6.202   3.343 -0.9588  0.9505  0.6934
25703SOL    HW281957   7.610   6.349   3.311  1.6318  0.7223  0.3611
25704SOL     OW81958   5.266   1.809   5.106  0.4089  0.8824 -0.2404
25704SOL    HW181959   5.257   1.824   5.012  2.9166 -0.5278 -0.8065
25704SOL    HW281960   5.311   1.887   5.139 -3.0492  2.7653  0.4770
25705SOL     OW81961   9.580   8.999   6.769 -0.5674 -0.1296  0.1214
25705SOL    HW181962   9.575   9.046   6.853  1.4524 -2.1802  1.4878
25705SOL    HW281963   9.670   9.013   6.740 -0.2600 -2.1370  0.0018
25706SOL     OW81964   8.713   9.321   8.436 -0.5715 -0.0234 -0.4414
25706SOL    HW181965   8.758   9.254   8.488 -2.1875 -0.0110  1.0763
25706SOL    HW281966   8.772   9.396   8.436  0.0850 -0.5299  0.1342
25707SOL     OW81967   7.844   1.199   0.948 -0.3903  0.5025  0.2197
25707SOL    HW181968   7.899   1.152   0.885 -2.9239  2.5221 -4.0220
25707SOL    HW281969   7.768   1.141   0.961 -0.2534  0.4380  0.7164
25708SOL     OW81970   0.573   5.309   2.211 -0.3285  0.3319  0.0422
25708SOL    HW181971   0.530   5.388   2.242  1.1366  0.5434  1.6973
25708SOL    HW281972   0.646   5.296   2.271  1.2011 -0.6802 -1.8897
25709SOL     OW81973   7.656   2.277   7.750  0.5104  0.7844 -0.3282
25709SOL    HW181974   7.574   2.276   7.700  1.3581 -2.2217 -1.8898
25709SOL    HW281975   7.644   2.208   7.816  1.3337  1.1783  0.2448
25710SOL     OW81976   1.935   7.414   4.243 -0.0925  0.0692 -0.2401
25710SOL    HW181977   1.840   7.414   4.236 -0.2423 -3.7679 -0.4478
25710SOL    HW281978   1.954   7.357   4.317  2.1164  2.0893  0.9026
25711SOL     OW81979   6.008   5.405   3.744  0.1223  0.2035  0.3112
25711SOL    HW181980   5.999   5.405   3.648  0.6021  1.2612  0.2457
25711SOL    HW281981   5.923   5.437   3.776 -0.6525 -1.7738  0.3490
25712SOL     OW81982   0.113   8.639   1.571 -0.2082  0.9353  0.2081
25712SOL    HW181983   0.155   8.725   1.562 -2.0889  1.7835 -1.0512
25712SOL    HW281984   0.038   8.643   1.512 -1.6757 -0.7561  1.8625
25713SOL     OW81985   2.862   4.450   6.781 -0.6836 -0.0315  0.2338
25713SOL    HW181986   2.890   4.521   6.723  0.8489 -0.0669  0.8694
25713SOL    HW281987   2.864   4.488   6.869  0.3222 -0.8751  0.6004
25714SOL     OW81988   4.861   6.062   0.668 -0.8861  0.4032 -0.2304
25714SOL    HW181989   4.827   5.972   0.664  1.9628 -0.8151  0.4765
25714SOL    HW281990   4.844   6.090   0.758 -0.8529  0.1746 -0.1515
25715SOL     OW81991   2.579   8.056   8.515  0.1979 -0.3606  0.1193
25715SOL    HW181992   2.638   8.130   8.526  0.3326 -0.1812 -1.6097
25715SOL    HW281993   2.516   8.065   8.587 -0.5529  2.1723 -0.7346
25716SOL     OW81994   8.294   9.068   8.106  0.1301  0.1077 -0.0825
25716SOL    HW181995   8.365   9.005   8.119  0.0485 -0.2841 -1.4254
25716SOL    HW281996   8.271   9.096   8.195  0.5960 -1.2659  0.5024
25717SOL     OW81997   8.944   4.784   3.971  0.3085 -0.5477  0.6226
25717SOL    HW181998   8.943   4.719   4.041  3.2281 -0.0254  1.2894
25717SOL    HW281999   8.852   4.805   3.956 -0.5460 -2.6139  2.4489
25718SOL     OW82000   7.717   9.681   4.752  1.0299  0.2684  0.0243
25718SOL    HW182001   7.628   9.689   4.717  1.6275 -0.2156 -1.7116
25718SOL    HW282002   7.756   9.767   4.737  0.9924  0.3549  0.4091
25719SOL     OW82003   6.300   8.714   0.201  0.5833 -0.1132 -0.2960
25719SOL    HW182004   6.295   8.759   0.117  1.3398 -0.3789 -0.4862
25719SOL    HW282005   6.219   8.740   0.246  0.1820  0.0500 -1.0864
25720SOL     OW82006   4.643   0.454   9.536 -0.3487 -0.5554  0.0676
25720SOL    HW182007   4.729   0.484   9.567 -0.3488  0.7854 -1.1331
25720SOL    HW282008   4.648   0.460   9.441 -2.1839  0.7881 -0.0061
25721SOL     OW82009   6.508   5.526   8.448 -0.7271  0.4159  0.2501
25721SOL    HW182010   6.464   5.503   8.366  0.0516  0.2503 -0.1334
25721SOL    HW282011   6.600   5.508   8.431 -0.5229  0.6576  1.0725
25722SOL     OW82012   1.472   7.249   2.658 -0.0590 -0.1607 -0.1920
25722SOL    HW182013   1.402   7.213   2.712 -0.8011  1.0365 -0.3220
25722SOL    HW282014   1.495   7.179   2.598 -0.5298 -0.8681  0.4440
25723SOL     OW82015   1.360   4.310   8.523  0.3940 -0.0630 -0.1586
25723SOL    HW182016   1.417   4.272   8.590  2.7733  0.7851 -1.5845
25723SOL    HW282017   1.300   4.239   8.500  1.1965 -1.1799  1.0424
25724SOL     OW82018   8.914   5.537   7.220 -0.6593 -0.5444 -0.0728
25724SOL    HW182019   8.939   5.474   7.153 -0.9353 -2.2274  1.3445
25724SOL    HW282020   8.935   5.494   7.303 -0.0579  1.5844  0.9465
25725SOL     OW82021   2.942   0.720   6.641  0.0981 -0.3241 -0.1711
25725SOL    HW182022   2.847   0.729   6.645  0.0960 -0.5811  0.6794
25725SOL    HW282023   2.968   0.705   6.732  0.7078 -2.6634 -0.6603
25726SOL     OW82024   8.864   6.649   2.481  0.0681 -0.3996 -0.4934
25726SOL    HW182025   8.957   6.665   2.495 -0.1832 -0.2007  1.1165
25726SOL    HW282026   8.847   6.564   2.522 -0.3157 -0.8402 -1.5155
25727SOL     OW82027   3.009   9.654   7.316 -0.5459  0.7256  0.1717
25727SOL    HW182028   2.947   9.684   7.382 -1.7861  0.7112 -0.9496
25727SOL    HW282029   3.053   9.734   7.287 -4.0393  1.7795 -3.0148
25728SOL     OW82030   7.012   6.445   0.110  0.4072 -0.3749  0.0770
25728SOL    HW182031   6.957   6.406   0.042 -1.3614 -0.1354  1.2923
25728SOL    HW282032   6.971   6.419   0.192  2.4115 -0.5565  1.0967
25729SOL     OW82033   9.057   9.577   8.235 -0.5970  0.4020  0.8455
25729SOL    HW182034   9.004   9.545   8.162  0.6089 -0.1527  0.1772
25729SOL    HW282035   9.090   9.662   8.205  1.1074 -0.4674  0.0540
25730SOL     OW82036   7.657   6.319   6.925 -0.0993  0.4574 -0.2655
25730SOL    HW182037   7.732   6.378   6.935 -0.2556  1.5712 -4.0955
25730SOL    HW282038   7.582   6.378   6.918 -0.7350 -0.3977 -0.7768
25731SOL     OW82039   1.517   7.790   8.859 -0.2122 -0.0979 -0.0298
25731SOL    HW182040   1.550   7.835   8.781  1.3903  0.1866  0.7844
25731SOL    HW282041   1.551   7.701   8.850 -1.4413 -0.5446 -0.4717
25732SOL     OW82042   3.605   7.246   7.372  0.5099  0.7819 -0.0974
25732SOL    HW182043   3.561   7.165   7.396  1.2954  0.0296 -1.1183
25732SOL    HW282044   3.551   7.283   7.302 -0.6824  1.9549  1.3716
25733SOL     OW82045   6.716   0.135   4.865 -0.5230  0.0434  0.0668
25733SOL    HW182046   6.685   0.137   4.775  0.7941  1.6734 -0.4018
25733SOL    HW282047   6.676   0.211   4.906 -0.5077 -0.2609  0.6664
25734SOL     OW82048   1.318   6.781   3.849  0.0736 -0.0819  0.0805
25734SOL    HW182049   1.276   6.709   3.896  0.4703  0.1955  0.8749
25734SOL    HW282050   1.368   6.739   3.780 -0.7054 -0.4833 -0.2541
25735SOL     OW82051   2.272   0.371   1.766 -0.0022  0.4554  0.0696
25735SOL    HW182052   2.179   0.394   1.773  0.0385  0.0842  2.3598
25735SOL    HW282053   2.287   0.310   1.838  1.6524 -0.8270 -1.2921
25736SOL     OW82054   1.600   8.309   9.086 -0.6639 -0.2902  0.6963
25736SOL    HW182055   1.531   8.330   9.149 -1.3354  0.3531 -0.2210
25736SOL    HW282056   1.554   8.303   9.002  0.1726 -1.3525  0.2906
25737SOL     OW82057   1.426   9.046   5.765 -0.1134  0.1845 -0.4552
25737SOL    HW182058   1.406   8.968   5.818 -0.7736  0.7404  0.1408
25737SOL    HW282059   1.517   9.066   5.785 -0.0721 -0.1743 -0.2678
25738SOL     OW82060   2.088   4.429   6.220 -0.2102 -0.0750  0.4114
25738SOL    HW182061   2.073   4.470   6.134 -1.4741 -0.5397  0.3905
25738SOL    HW282062   2.183   4.415   6.223 -0.1361 -0.0435 -0.9164
25739SOL     OW82063   0.413   1.266   1.735 -0.3079 -0.2784 -0.3043
25739SOL    HW182064   0.327   1.262   1.694  0.1887  0.6664 -1.4904
25739SOL    HW282065   0.396   1.302   1.822 -1.0362  0.5820 -0.7843
25740SOL     OW82066   0.642   4.301   4.789  0.5596  0.6627 -0.3975
25740SOL    HW182067   0.577   4.371   4.802  0.2034  0.4208 -0.8227
25740SOL    HW282068   0.593   4.220   4.802  1.1821  0.4862  1.0176
25741SOL     OW82069   5.238   4.127   5.747  0.6850  0.4076  0.2433
25741SOL    HW182070   5.198   4.209   5.717  0.4215  0.3355  0.3860
25741SOL    HW282071   5.170   4.087   5.802  0.1500 -0.7138 -1.1767
25742SOL     OW82072   3.155   8.100   3.757 -0.1669 -0.1137 -0.0451
25742SOL    HW182073   3.228   8.047   3.789 -0.4087 -0.2440  0.2964
25742SOL    HW282074   3.166   8.100   3.662 -0.0917 -0.6672 -0.0396
25743SOL     OW82075   2.952   3.553   1.165 -0.3846  0.2518 -0.2058
25743SOL    HW182076   2.903   3.503   1.100 -0.6598  0.4766 -0.1706
25743SOL    HW282077   3.009   3.610   1.114 -1.6214  1.4651 -0.2830
25744SOL     OW82078   1.421   6.066   4.779  0.1182 -0.0537  0.3282
25744SOL    HW182079   1.356   6.081   4.848 -0.7953 -0.3955 -0.4295
25744SOL    HW282080   1.496   6.120   4.804 -1.2383  2.0546  0.1859
25745SOL     OW82081   6.465   5.311   6.762 -0.3772  0.8816 -0.5040
25745SOL    HW182082   6.372   5.319   6.781 -0.3009  3.3600 -0.8355
25745SOL    HW282083   6.469   5.292   6.668 -0.5483 -0.5581 -0.2344
25746SOL     OW82084   0.824   0.252   9.457  0.4487 -0.2533 -0.2039
25746SOL    HW182085   0.759   0.315   9.488 -1.3255 -1.2649 -1.6910
25746SOL    HW282086   0.783   0.210   9.382  3.2955 -0.1585 -1.9634
25747SOL     OW82087   8.705   2.007   5.755 -0.0894 -0.3640  0.5164
25747SOL    HW182088   8.688   2.061   5.678  2.0799 -1.0989 -0.5475
25747SOL    HW282089   8.671   1.921   5.732 -0.1434 -0.3958  0.7083
25748SOL     OW82090   0.516   8.681   1.815  0.4877  0.1959 -0.1291
25748SOL    HW182091   0.456   8.608   1.826 -0.8955  0.9325 -2.1086
25748SOL    HW282092   0.600   8.650   1.850 -0.5233 -1.6183  0.7889
25749SOL     OW82093   5.887   8.716   0.581 -0.0460  0.3311  0.3619
25749SOL    HW182094   5.961   8.672   0.624 -0.7824  0.0281  1.3327
25749SOL    HW282095   5.856   8.652   0.516  0.4647  0.4170  0.0245
25750SOL     OW82096   6.825   3.652   0.087 -0.1002  0.1749 -0.5492
25750SOL    HW182097   6.891   3.699   0.035  0.5963  0.4437  0.5348
25750SOL    HW282098   6.876   3.610   0.156 -0.5602 -2.9536 -1.9349
25751SOL     OW82099   5.508   8.592   7.286  0.3490 -0.1243 -0.9307
25751SOL    HW182100   5.547   8.570   7.370 -0.8472 -1.4196 -0.6770
25751SOL    HW282101   5.459   8.673   7.303  1.3022  0.4360 -0.7775
25752SOL     OW82102   3.482   4.983   3.291 -0.4497 -0.2617  0.6655
25752SOL    HW182103   3.449   5.062   3.334 -1.2139 -0.3189  0.2083
25752SOL    HW282104   3.415   4.963   3.225  0.7095 -0.1396 -0.5832
25753SOL     OW82105   5.995   6.343   6.387 -0.7972 -0.3157 -0.5091
25753SOL    HW182106   6.044   6.387   6.317 -1.1699 -1.6456 -1.6566
25753SOL    HW282107   6.006   6.250   6.368  0.5040 -0.8180  2.1938
25754SOL     OW82108   4.716   7.051   8.301 -0.4547 -0.1036  0.3198
25754SOL    HW182109   4.683   7.053   8.211  0.9998 -2.3580 -0.3343
25754SOL    HW282110   4.651   7.101   8.351 -0.7982  2.1162 -2.0933
25755SOL     OW82111   5.692   1.481   8.520  0.1412 -0.3014  0.8342
25755SOL    HW182112   5.603   1.501   8.551  0.6624  0.5578  1.8305
25755SOL    HW282113   5.679   1.417   8.450 -1.3067  0.2660  0.5532
25756SOL     OW82114   5.218   9.701   2.447 -0.0952  0.7025  0.0124
25756SOL    HW182115   5.146   9.756   2.478 -1.1138 -0.7070  0.2471
25756SOL    HW282116   5.267   9.678   2.526  0.5655  1.5746 -0.1343
25757SOL     OW82117   8.707   1.100   8.712  0.0303  0.0515 -0.5987
25757SOL    HW182118   8.665   1.041   8.774  1.8241 -1.5738 -0.8382
25757SOL    HW282119   8.773   1.146   8.763  1.3678 -1.1367 -1.2163
25758SOL     OW82120   6.721   8.747   8.962 -0.0021  0.2302 -0.0046
25758SOL    HW182121   6.787   8.744   8.893 -0.1355 -0.4030 -0.1033
25758SOL    HW282122   6.767   8.788   9.036  0.7848 -0.9917  0.2221
25759SOL     OW82123   6.405   0.904   8.827  0.1059 -0.2342 -0.8979
25759SOL    HW182124   6.352   0.824   8.830  1.1513 -0.9823 -1.3915
25759SOL    HW282125   6.471   0.886   8.760  0.7498  0.8045 -0.5662
25760SOL     OW82126   0.245   8.824   1.419 -0.3247 -0.6780 -0.0378
25760SOL    HW182127   0.228   8.899   1.361  1.2870 -0.7465 -0.6578
25760SOL    HW282128   0.274   8.754   1.360 -0.2191 -1.2641  0.7003
25761SOL     OW82129   9.616   1.385   4.458  0.5078  0.3490 -0.0914
25761SOL    HW182130   9.598   1.408   4.367  0.6972 -0.5089 -0.3539
25761SOL    HW282131   9.577   1.456   4.509 -0.3256  0.4075 -0.7986
25762SOL     OW82132   0.721   0.808   8.866  0.5975 -0.1125 -0.0151
25762SOL    HW182133   0.728   0.899   8.838  0.0051 -0.6724 -2.1801
25762SOL    HW282134   0.643   0.807   8.922  1.5110  0.9533  1.3619
25763SOL     OW82135   5.819   2.416   1.743  0.2755 -0.4963 -0.0024
25763SOL    HW182136   5.729   2.445   1.732  0.4420 -0.2395 -0.7197
25763SOL    HW282137   5.815   2.350   1.813 -0.7246 -1.7375 -1.1728
25764SOL     OW82138   1.465   5.734   0.907 -0.3639  0.4964 -0.2962
25764SOL    HW182139   1.535   5.798   0.914 -0.0101  0.2120 -1.1674
25764SOL    HW282140   1.497   5.657   0.955 -0.1065  0.3892 -0.6392
25765SOL     OW82141   8.880   1.135   7.089 -0.3946 -0.3096 -0.6204
25765SOL    HW182142   8.852   1.078   7.017  0.0667 -1.2465 -0.0860
25765SOL    HW282143   8.901   1.074   7.161  1.6268  0.4075 -0.5355
25766SOL     OW82144   2.312   1.728   8.198 -0.2865 -0.4428  0.1982
25766SOL    HW182145   2.230   1.742   8.151 -0.0786 -0.9935 -0.3489
25766SOL    HW282146   2.355   1.656   8.151  1.9997  1.8825 -1.5295
25767SOL     OW82147   7.007   7.779   8.958  0.6859 -0.5834  0.0447
25767SOL    HW182148   7.010   7.872   8.977 -1.4619  0.0089 -1.9059
25767SOL    HW282149   7.037   7.772   8.867 -0.4850 -1.5337 -0.3100
25768SOL     OW82150   3.670   4.136   4.847  0.0020  0.1988 -0.0565
25768SOL    HW182151   3.726   4.143   4.769 -0.3524  2.2605 -0.2104
25768SOL    HW282152   3.610   4.210   4.838  0.5135  1.0242  2.6234
25769SOL     OW82153   9.282   9.180   5.825  0.4902  0.7168  0.6062
25769SOL    HW182154   9.260   9.089   5.806 -2.4689  1.9111 -2.6586
25769SOL    HW282155   9.372   9.191   5.793  0.8064 -0.9652  0.8615
25770SOL     OW82156   2.515   5.001   2.729 -0.7535 -0.0065 -0.1680
25770SOL    HW182157   2.457   4.926   2.746 -1.6286  0.5891 -0.4462
25770SOL    HW282158   2.503   5.057   2.805 -0.9358  0.3609 -0.4669
25771SOL     OW82159   8.651   5.744   0.148  0.9251  0.2272  0.0221
25771SOL    HW182160   8.627   5.837   0.150  1.4806  0.3764 -0.1259
25771SOL    HW282161   8.746   5.743   0.153  0.8673 -0.4262  2.9256
25772SOL     OW82162   4.655   4.227   2.237 -0.1255  0.1689 -0.3066
25772SOL    HW182163   4.596   4.174   2.290 -0.1877  0.8684  0.3329
25772SOL    HW282164   4.718   4.165   2.200 -0.1927 -0.3426  0.4393
25773SOL     OW82165   5.733   1.065   7.959  0.5693 -0.2074  0.2084
25773SOL    HW182166   5.762   0.977   7.934  0.8642  0.0737 -0.4598
25773SOL    HW282167   5.707   1.056   8.051 -0.2346 -1.1904 -0.0985
25774SOL     OW82168   8.583   7.178   9.275  0.2149 -0.2921  0.1158
25774SOL    HW182169   8.568   7.112   9.343  0.6586 -1.3777 -0.8080
25774SOL    HW282170   8.603   7.127   9.197 -1.1928  0.8867 -1.0752
25775SOL     OW82171   2.122   3.067   1.302 -0.0275  0.3290  1.2271
25775SOL    HW182172   2.080   3.014   1.370 -0.3149  0.2596  0.9967
25775SOL    HW282173   2.091   3.156   1.318 -0.6726  0.1961  0.7451
25776SOL     OW82174   0.314   8.369   4.863  0.2656  0.1868  0.1727
25776SOL    HW182175   0.379   8.302   4.883  2.2934  1.8061 -0.6117
25776SOL    HW282176   0.309   8.421   4.944  0.0072  0.1003  0.2111
25777SOL     OW82177   6.700   4.882   4.891 -0.3727 -0.2160  0.3827
25777SOL    HW182178   6.704   4.936   4.971 -1.2158 -0.3869  0.5475
25777SOL    HW282179   6.790   4.883   4.858 -0.1061  0.2428  1.0799
25778SOL     OW82180   1.706   4.502   2.356 -0.1620  0.3419  0.2927
25778SOL    HW182181   1.757   4.422   2.357  1.9154  1.5766  1.7984
25778SOL    HW282182   1.661   4.503   2.441 -2.5394 -0.5433 -0.8605
25779SOL     OW82183   1.580   3.760   3.057  0.1032  0.5809  0.3707
25779SOL    HW182184   1.579   3.847   3.016 -0.1727 -0.2411 -1.4424
25779SOL    HW282185   1.489   3.732   3.056  0.3080 -0.0898  0.1255
25780SOL     OW82186   6.134   5.757   0.720  0.2725  0.6096  0.6002
25780SOL    HW182187   6.188   5.715   0.654 -1.4438 -0.4627 -0.1620
25780SOL    HW282188   6.115   5.844   0.684 -0.9870 -0.1106 -0.5508
25781SOL     OW82189   6.435   4.753   1.191  0.5169 -0.5622  0.0266
25781SOL    HW182190   6.456   4.713   1.107 -0.2071  0.1251 -0.4899
25781SOL    HW282191   6.519   4.758   1.236  0.7836 -1.6939 -0.3099
25782SOL     OW82192   1.893   2.876   1.220 -0.3046  0.2780 -0.3142
25782SOL    HW182193   1.901   2.884   1.125 -1.4689 -2.3087 -0.7001
25782SOL    HW282194   1.830   2.806   1.233 -0.3358  0.7101  2.4017
25783SOL     OW82195   8.158   8.699   4.322  0.1593  0.1291 -0.0342
25783SOL    HW182196   8.151   8.629   4.257 -0.2318  0.4269 -0.3135
25783SOL    HW282197   8.070   8.708   4.358 -0.0231  1.1310 -0.6889
25784SOL     OW82198   6.697   1.729   1.662 -0.6504  0.2955 -0.0415
25784SOL    HW182199   6.769   1.728   1.599 -0.6849  0.1645 -0.0787
25784SOL    HW282200   6.723   1.795   1.727 -0.9367  0.9380 -0.5654
25785SOL     OW82201   7.194   8.506   8.740 -0.3262 -0.1655  0.4626
25785SOL    HW182202   7.220   8.427   8.693 -0.5143 -0.1150  0.2668
25785SOL    HW282203   7.269   8.565   8.732 -0.7734  0.2706 -0.7543
25786SOL     OW82204   5.783   3.041   9.259 -0.3793 -0.2826 -0.5673
25786SOL    HW182205   5.715   3.087   9.209 -2.1169 -0.6823  1.3121
25786SOL    HW282206   5.735   2.989   9.323  1.6459 -2.2981 -0.5596
25787SOL     OW82207   1.157   5.352   9.522 -0.4128  0.2838  0.0270
25787SOL    HW182208   1.215   5.344   9.597 -0.9398  1.1071  0.5432
25787SOL    HW282209   1.197   5.420   9.468 -0.4645  0.2722 -0.0262
25788SOL     OW82210   4.208   9.092   2.919 -0.2907  0.1104  0.0412
25788SOL    HW182211   4.268   9.024   2.887  1.0060  1.6200 -0.9178
25788SOL    HW282212   4.244   9.173   2.884 -2.2656  1.2216  0.4378
25789SOL     OW82213   5.151   4.901   6.964 -0.1056 -0.2635  0.6175
25789SOL    HW182214   5.243   4.876   6.975 -0.3758 -1.6708 -0.1522
25789SOL    HW282215   5.121   4.924   7.052  0.7162 -0.7141  1.0258
25790SOL     OW82216   4.778   3.082   5.829 -0.3446 -0.3772  0.4728
25790SOL    HW182217   4.803   3.002   5.876 -1.2929 -1.2128 -0.4038
25790SOL    HW282218   4.683   3.084   5.834 -0.3381  0.6905  0.4447
25791SOL     OW82219   7.475   8.495   1.517 -0.1013  0.3902 -0.0081
25791SOL    HW182220   7.465   8.402   1.534  0.6822  0.0997 -1.0791
25791SOL    HW282221   7.417   8.537   1.581 -1.1832 -0.8537 -0.1191
25792SOL     OW82222   7.112   0.288   3.577 -0.7885  0.1460 -0.3659
25792SOL    HW182223   7.149   0.362   3.625  0.4163  0.3567 -1.5667
25792SOL    HW282224   7.024   0.278   3.614 -1.3958  2.8240 -0.8703
25793SOL     OW82225   4.379   2.925   1.182 -0.2248 -0.8822  0.2888
25793SOL    HW182226   4.474   2.922   1.164 -0.3105 -1.5104 -0.1010
25793SOL    HW282227   4.353   3.013   1.154  0.2727 -0.6458  0.5502
25794SOL     OW82228   5.820   8.884   6.696 -0.3188 -0.0343 -0.5947
25794SOL    HW182229   5.908   8.878   6.659 -0.6392 -0.7318 -1.2546
25794SOL    HW282230   5.762   8.889   6.621 -0.8492  0.5622 -0.1602
25795SOL     OW82231   2.231   8.131   2.043 -0.3324  0.6165 -0.6976
25795SOL    HW182232   2.287   8.092   1.975 -0.6794 -0.3588 -0.4421
25795SOL    HW282233   2.192   8.208   2.001  0.6450  0.9072 -1.1006
25796SOL     OW82234   1.241   5.027   4.200 -0.0009  0.1859  0.2748
25796SOL    HW182235   1.199   5.105   4.163 -1.2656 -0.6965 -0.2065
25796SOL    HW282236   1.227   5.034   4.294 -0.8153  0.1528  0.1626
25797SOL     OW82237   9.662   2.400   7.799 -0.1404 -0.2162  0.2998
25797SOL    HW182238   9.674   2.490   7.827 -1.6980 -0.4004  1.7997
25797SOL    HW282239   9.672   2.348   7.880  1.1412 -1.4377 -0.5989
25798SOL     OW82240   8.653   4.550   2.953 -0.0470  0.0962 -0.0153
25798SOL    HW182241   8.663   4.634   2.908 -1.3391  0.1712 -0.2026
25798SOL    HW282242   8.592   4.501   2.898 -1.6518  0.1801  1.6155
25799SOL     OW82243   2.249   4.330   9.609 -0.4828 -0.4114 -0.5022
25799SOL    HW182244   2.238   4.328   9.514 -1.4289  1.2640 -0.4626
25799SOL    HW282245   2.241   4.239   9.636  0.3701 -0.9916 -2.0703
25800SOL     OW82246   9.217   3.743   5.705 -0.1769  0.2551  0.2232
25800SOL    HW182247   9.260   3.688   5.639 -0.3237  2.1746 -1.6040
25800SOL    HW282248   9.130   3.704   5.716 -0.0300 -0.2967 -0.4900
25801SOL     OW82249   3.789   6.857   7.111  0.5549 -0.1435 -0.1399
25801SOL    HW182250   3.699   6.881   7.132  0.7193 -0.1349  0.5965
25801SOL    HW282251   3.783   6.768   7.076  0.4068 -0.7144  1.2925
25802SOL     OW82252   1.631   9.521   4.942 -0.6126 -0.2581  0.0163
25802SOL    HW182253   1.684   9.591   4.902  0.0717 -2.1637 -2.7268
25802SOL    HW282254   1.541   9.545   4.922 -0.3849 -0.1124 -0.8996
25803SOL     OW82255   6.903   1.329   6.616  0.1195 -0.2948  0.6771
25803SOL    HW182256   6.824   1.275   6.610 -0.4577  0.6094 -0.1671
25803SOL    HW282257   6.904   1.360   6.707 -1.1547  0.6199  0.4036
25804SOL     OW82258   0.186   1.424   9.088  0.4415  0.0761 -0.4047
25804SOL    HW182259   0.247   1.494   9.113  0.5098 -0.1012 -0.0762
25804SOL    HW282260   0.241   1.345   9.083 -0.0604 -0.4430  1.6415
25805SOL     OW82261   2.929   2.325   2.604 -0.1840 -0.5969 -0.3517
25805SOL    HW182262   2.973   2.410   2.600 -2.8050  0.8219 -1.3201
25805SOL    HW282263   2.904   2.315   2.695 -0.2035 -0.1572 -0.3075
25806SOL     OW82264   6.142   7.662   2.571 -0.1989 -0.2569 -0.1897
25806SOL    HW182265   6.176   7.573   2.560  1.7932  0.2191  1.4643
25806SOL    HW282266   6.219   7.715   2.594 -1.8247  1.1028  2.8450
25807SOL     OW82267   0.444   7.086   8.270  0.2162  0.3141 -0.0199
25807SOL    HW182268   0.420   7.105   8.361 -0.1717 -0.2772  0.0075
25807SOL    HW282269   0.447   6.991   8.265 -0.9031  0.2966 -0.9041
25808SOL     OW82270   0.066   6.128   6.213 -0.2107 -0.4710 -0.0952
25808SOL    HW182271   0.097   6.091   6.130  0.9113  0.4150 -0.0938
25808SOL    HW282272   0.083   6.222   6.205 -3.6926  0.2788 -0.4292
25809SOL     OW82273   0.494   4.052   7.900 -0.2180 -0.3638 -0.0096
25809SOL    HW182274   0.531   4.134   7.931  0.5337 -0.5826 -0.2965
25809SOL    HW282275   0.514   4.050   7.806 -1.6105 -0.1562 -0.3284
25810SOL     OW82276   1.151   8.643   6.756  0.3696 -0.4603  0.1671
25810SOL    HW182277   1.208   8.597   6.694  0.2287 -0.9817  0.4221
25810SOL    HW282278   1.207   8.710   6.795  0.8454 -1.0493  0.5074
25811SOL     OW82279   6.687   4.153   6.981  1.0658 -0.0247  0.1421
25811SOL    HW182280   6.773   4.158   7.022  0.9602  1.6170  0.2442
25811SOL    HW282281   6.704   4.160   6.887  1.0793 -0.0648  0.1418
25812SOL     OW82282   6.790   3.124   5.676  0.2979  0.4824 -0.4939
25812SOL    HW182283   6.755   3.039   5.647  0.2257 -0.4464  2.0464
25812SOL    HW282284   6.882   3.106   5.694 -0.2245  0.2244  2.3159
25813SOL     OW82285   4.003   1.620   2.582  0.0407 -0.1794  0.2120
25813SOL    HW182286   4.023   1.658   2.496  0.6178  1.3527  0.9865
25813SOL    HW282287   3.915   1.585   2.572  0.3373 -0.6061 -1.1935
25814SOL     OW82288   8.402   6.518   3.536  0.4039 -0.3250 -0.1358
25814SOL    HW182289   8.342   6.454   3.498  0.7094 -0.6885 -0.0036
25814SOL    HW282290   8.471   6.528   3.470  0.0664  0.2978 -0.4101
25815SOL     OW82291   6.855   3.250   3.471 -0.0240 -0.5092  0.1182
25815SOL    HW182292   6.795   3.323   3.489 -0.7597 -1.6982  3.0381
25815SOL    HW282293   6.927   3.263   3.532  1.3544 -0.6369 -1.4301
25816SOL     OW82294   0.240   6.630   4.630 -0.5190 -0.1306  0.3618
25816SOL    HW182295   0.224   6.693   4.560 -0.9610  0.5877  1.0906
25816SOL    HW282296   0.183   6.658   4.701 -1.6388 -2.0790  0.3010
25817SOL     OW82297   8.776   6.587   1.951  0.2935  0.7756  0.4106
25817SOL    HW182298   8.733   6.630   1.877  1.0287  0.2300 -0.3441
25817SOL    HW282299   8.853   6.641   1.969  0.0384  0.9881  0.8775
25818SOL     OW82300   3.120   0.292   9.437  0.7164 -0.3093  0.2355
25818SOL    HW182301   3.112   0.380   9.401 -1.0500 -0.8634 -0.8786
25818SOL    HW282302   3.090   0.299   9.527  3.9007  0.8373  1.3443
25819SOL     OW82303   4.929   1.964   4.270 -0.0823  0.1704 -0.1228
25819SOL    HW182304   4.981   1.975   4.350 -0.6768  2.2185  0.0473
25819SOL    HW282305   4.994   1.943   4.203  0.6842  0.3171  0.5432
25820SOL     OW82306   6.892   6.083   3.308 -0.0334  0.3539  0.0375
25820SOL    HW182307   6.948   6.048   3.378  2.3655  3.0576 -0.3360
25820SOL    HW282308   6.848   6.158   3.348 -2.3967 -0.8476 -0.1218
25821SOL     OW82309   9.116   9.498   7.693 -0.3370  0.2002 -0.3178
25821SOL    HW182310   9.047   9.563   7.681 -1.2348 -0.5898  0.4279
25821SOL    HW282311   9.132   9.464   7.604 -1.0700  0.2298 -0.4645
25822SOL     OW82312   3.631   6.507   6.042  0.3771 -0.2884 -1.0673
25822SOL    HW182313   3.619   6.413   6.058 -0.4157 -0.1277 -0.6559
25822SOL    HW282314   3.596   6.549   6.120 -1.0013  0.4213 -2.0309
25823SOL     OW82315   4.357   8.527   6.489 -0.4930 -0.4939 -0.5773
25823SOL    HW182316   4.441   8.572   6.474 -0.8766  1.2486  1.9537
25823SOL    HW282317   4.380   8.434   6.495  2.0394  0.1420  3.7248
25824SOL     OW82318   1.538   4.318   0.783  0.0082  0.2077 -0.6999
25824SOL    HW182319   1.449   4.319   0.818  0.8073  0.7480  1.4967
25824SOL    HW282320   1.549   4.229   0.750 -1.2098 -0.0020 -0.5851
25825SOL     OW82321   5.195   8.466   2.273  0.2380 -0.1786 -0.5178
25825SOL    HW182322   5.166   8.526   2.205 -0.1427 -0.6062 -0.7356
25825SOL    HW282323   5.140   8.487   2.349 -1.8018 -2.0162 -1.3774
25826SOL     OW82324   0.072   6.802   0.560 -0.0509 -0.4117 -0.0135
25826SOL    HW182325   0.042   6.837   0.644  0.7657  2.1432 -0.6867
25826SOL    HW282326   0.026   6.718   0.551  0.1177 -0.9541  3.1104
25827SOL     OW82327   5.079   1.949   0.808  0.2380 -0.4349  0.2288
25827SOL    HW182328   5.098   1.880   0.744  1.8472  0.5110 -0.3850
25827SOL    HW282329   5.020   1.908   0.871  0.4409 -2.1007 -0.6045
25828SOL     OW82330   6.913   3.813   7.602 -0.0115 -0.2471  0.1043
25828SOL    HW182331   6.866   3.862   7.534  2.5338  1.1333 -0.8138
25828SOL    HW282332   6.908   3.869   7.679 -0.3879 -0.4257  0.2158
25829SOL     OW82333   4.904   2.057   2.577  0.9557  0.0568  0.6455
25829SOL    HW182334   4.991   2.024   2.553  0.4368 -0.2412 -0.9741
25829SOL    HW282335   4.871   2.098   2.497 -2.1598 -3.6990 -0.3332
25830SOL     OW82336   8.712   0.687   7.708  0.2834  0.3492  0.4793
25830SOL    HW182337   8.762   0.618   7.666  0.3186  0.2934  0.6102
25830SOL    HW282338   8.743   0.768   7.668 -0.0139  0.2633  0.0685
25831SOL     OW82339   7.913   4.218   7.537  0.0278 -0.1687 -0.3425
25831SOL    HW182340   7.957   4.141   7.573 -0.7567 -0.3328  0.3058
25831SOL    HW282341   7.904   4.199   7.443 -3.3270 -2.5548  0.2904
25832SOL     OW82342   4.217   0.351   0.979  0.2166 -0.0813 -0.7194
25832SOL    HW182343   4.176   0.388   1.057 -0.4420  1.8223 -1.9093
25832SOL    HW282344   4.144   0.309   0.933 -0.5297  3.0391 -2.6831
25833SOL     OW82345   7.616   5.680   4.349 -0.0618  0.0829 -1.2211
25833SOL    HW182346   7.611   5.774   4.335  1.3220  0.6271  1.2224
25833SOL    HW282347   7.710   5.661   4.351 -0.2485 -0.9372  0.2869
25834SOL     OW82348   3.061   6.023   1.127 -0.1916 -0.8649 -0.2538
25834SOL    HW182349   3.131   6.088   1.128 -0.8987 -0.0925 -0.3258
25834SOL    HW282350   2.981   6.073   1.143 -0.4590 -2.0806  3.1091
25835SOL     OW82351   2.462   1.181   2.227 -0.1115  0.5623 -0.4251
25835SOL    HW182352   2.397   1.135   2.175 -1.2010  0.6755  0.7853
25835SOL    HW282353   2.412   1.223   2.297  1.4446 -1.3519  2.0119
25836SOL     OW82354   5.946   7.254   4.154 -0.2589  0.6576  0.2973
25836SOL    HW182355   6.020   7.314   4.143 -0.2379  0.6648  0.4654
25836SOL    HW282356   5.935   7.247   4.249 -0.2506  0.3838  0.2782
25837SOL     OW82357   2.706   1.126   1.923  0.5166  0.1139  0.0926
25837SOL    HW182358   2.703   1.065   1.997 -0.8772 -0.4918 -0.4147
25837SOL    HW282359   2.728   1.070   1.848  2.0410  0.7435  0.0422
25838SOL     OW82360   9.228   1.414   9.696  0.4039 -0.2081  0.2995
25838SOL    HW182361   9.306   1.360   9.706  1.0728  0.2721 -1.8076
25838SOL    HW282362   9.240   1.459   9.612 -2.0020  0.1294  0.0566
25839SOL     OW82363   2.788   6.862   0.259 -0.4817  0.7110  0.0635
25839SOL    HW182364   2.699   6.831   0.276 -0.2205 -0.5850 -0.8162
25839SOL    HW282365   2.830   6.791   0.211  1.2510  1.0192  1.0326
25840SOL     OW82366   4.902   2.034   8.177 -0.4475 -0.4250 -0.0433
25840SOL    HW182367   4.880   2.065   8.265  2.3626  2.7462 -0.2495
25840SOL    HW282368   4.952   1.954   8.191  1.1089  0.7412  1.4123
25841SOL     OW82369   6.100   9.226   1.210 -0.4430  0.5244 -0.3464
25841SOL    HW182370   6.008   9.246   1.225 -0.2445 -0.1032  2.0819
25841SOL    HW282371   6.145   9.310   1.216 -0.6613  0.5938  0.3676
25842SOL     OW82372   3.001   3.930   4.917  0.0466 -0.4895 -0.2023
25842SOL    HW182373   3.011   3.859   4.853 -0.6129 -0.3150 -0.5045
25842SOL    HW282374   2.926   3.904   4.970 -1.6656  1.0331 -1.7489
25843SOL     OW82375   2.284   6.091   7.194 -0.1704  0.1343  0.1517
25843SOL    HW182376   2.294   6.183   7.218 -0.7003 -0.4229  2.7972
25843SOL    HW282377   2.238   6.093   7.110 -1.3094  2.2640  0.7618
25844SOL     OW82378   5.675   3.806   6.844 -0.0822  0.0338 -0.2064
25844SOL    HW182379   5.759   3.764   6.861 -0.4417 -0.9508 -0.7730
25844SOL    HW282380   5.625   3.795   6.924 -0.6838 -1.9162 -0.7971
25845SOL     OW82381   7.325   3.887   5.453 -0.3474 -0.2378  0.4360
25845SOL    HW182382   7.300   3.969   5.496 -0.3765  1.5677 -2.6793
25845SOL    HW282383   7.407   3.909   5.408 -0.9768 -1.5382 -1.4241
25846SOL     OW82384   3.877   7.419   7.049  0.0420 -0.4487  0.1644
25846SOL    HW182385   3.866   7.325   7.037 -0.3230 -0.3132 -0.5789
25846SOL    HW282386   3.892   7.453   6.961  0.9696  0.0890  0.5115
25847SOL     OW82387   7.203   5.088   0.907  0.4982  0.2519  0.0869
25847SOL    HW182388   7.279   5.139   0.880  0.6550 -0.4134 -0.7803
25847SOL    HW282389   7.165   5.057   0.825  0.4317 -1.0521  0.5948
25848SOL     OW82390   4.361   0.110   5.195  0.0301  0.0374  0.0754
25848SOL    HW182391   4.302   0.037   5.213  1.0545 -1.0984 -0.9719
25848SOL    HW282392   4.312   0.166   5.135 -0.3344 -0.4243 -0.0670
25849SOL     OW82393   8.997   8.704   8.679 -0.9422  0.2420  0.1271
25849SOL    HW182394   9.028   8.751   8.756  1.1802  0.0488 -0.5328
25849SOL    HW282395   8.993   8.612   8.707 -1.2537  0.3093  0.3096
25850SOL     OW82396   9.275   6.509   1.037  0.3650  0.1229  0.9953
25850SOL    HW182397   9.196   6.510   1.092 -0.2176 -0.2546  0.1790
25850SOL    HW282398   9.331   6.577   1.075 -0.6401  0.8852  1.1575
25851SOL     OW82399   3.025   8.974   2.408 -0.0498 -0.0976  0.2414
25851SOL    HW182400   2.968   9.031   2.357  2.4582  1.4462 -1.0745
25851SOL    HW282401   3.027   8.892   2.358  0.7183  0.6837 -1.0932
25852SOL     OW82402   4.272   5.688   4.972  0.3026  0.3874  0.1239
25852SOL    HW182403   4.329   5.622   5.012 -0.0526  0.0196  0.0352
25852SOL    HW282404   4.306   5.772   5.002  0.4427  0.1399  0.6618
25853SOL     OW82405   6.044   4.440   0.738  0.0704 -0.1504  0.0121
25853SOL    HW182406   6.125   4.395   0.761  1.2847  1.7550 -0.3476
25853SOL    HW282407   6.056   4.466   0.647 -0.4895  1.0718  0.2721
25854SOL     OW82408   3.312   8.341   4.665 -0.2927 -0.1629 -0.0416
25854SOL    HW182409   3.401   8.321   4.694 -0.5676 -0.7657  0.4038
25854SOL    HW282410   3.324   8.393   4.586  0.4633 -2.2875 -1.3981
25855SOL     OW82411   2.396   9.296   2.748  0.3578  1.0786 -0.0390
25855SOL    HW182412   2.373   9.372   2.801  0.1794  0.8925  0.1535
25855SOL    HW282413   2.333   9.296   2.676  1.6209  2.2813 -1.1910
25856SOL     OW82414   8.517   6.767   9.493  0.0667  0.0258  0.0525
25856SOL    HW182415   8.470   6.742   9.573  1.9912  1.9040  1.8902
25856SOL    HW282416   8.484   6.854   9.472 -0.3191 -0.3899 -1.1816
25857SOL     OW82417   0.689   2.790   2.996  0.0009 -0.4609 -0.6240
25857SOL    HW182418   0.748   2.814   3.068  2.0300  0.4737 -2.4980
25857SOL    HW282419   0.635   2.868   2.982 -0.4788 -0.6853 -0.0738
25858SOL     OW82420   6.027   7.628   3.382  0.0595 -0.1489  0.3806
25858SOL    HW182421   6.084   7.552   3.387 -1.0202 -0.9654  0.7182
25858SOL    HW282422   6.086   7.703   3.379  1.1469 -1.0045 -0.2078
25859SOL     OW82423   0.939   2.278   9.478 -0.4613  0.0471 -0.1941
25859SOL    HW182424   0.878   2.351   9.472  0.2469  0.7363  0.6741
25859SOL    HW282425   0.999   2.291   9.404  0.7708  1.4405  0.9643
25860SOL     OW82426   8.039   2.686   6.673  0.2120 -0.1132  0.4309
25860SOL    HW182427   7.944   2.695   6.682  0.2350 -0.3527  0.9122
25860SOL    HW282428   8.070   2.774   6.653 -0.1870 -0.1538 -0.4375
25861SOL     OW82429   3.470   2.506   7.267 -0.3488  0.0618 -0.0537
25861SOL    HW182430   3.516   2.423   7.254  1.0438  0.9689 -1.0803
25861SOL    HW282431   3.456   2.511   7.362 -0.6969 -1.4598 -0.0020
25862SOL     OW82432   5.882   8.583   8.400 -0.1399 -0.0719  0.3427
25862SOL    HW182433   5.844   8.568   8.487  0.4916 -2.2325  0.3010
25862SOL    HW282434   5.823   8.537   8.340 -1.2316  2.3663 -0.5965
25863SOL     OW82435   6.727   1.900   5.007  0.0098  0.5692 -0.0447
25863SOL    HW182436   6.766   1.857   4.931  1.9585  1.5283  0.3564
25863SOL    HW282437   6.786   1.973   5.027 -0.1957  0.0887  2.6724
25864SOL     OW82438   7.309   7.991   8.687 -0.3363  0.3014 -0.1434
25864SOL    HW182439   7.303   8.003   8.592  1.4142 -2.4526 -0.7132
25864SOL    HW282440   7.221   8.011   8.719 -0.3499  3.8512 -1.9000
25865SOL     OW82441   2.430   6.959   7.991 -0.2565 -0.2276  0.2907
25865SOL    HW182442   2.359   7.021   7.979  0.5268  0.6311 -0.0206
25865SOL    HW282443   2.425   6.901   7.914 -1.5237 -1.1224  1.0194
25866SOL     OW82444   4.505   6.805   9.062  0.0924 -0.1268  0.2596
25866SOL    HW182445   4.479   6.890   9.026 -2.1298 -1.8431 -2.6219
25866SOL    HW282446   4.437   6.784   9.125  1.1279  0.5472  1.6524
25867SOL     OW82447   4.091   8.420   8.212  0.1652  0.3166 -0.5986
25867SOL    HW182448   4.059   8.417   8.302 -0.6868 -1.4308 -0.9085
25867SOL    HW282449   4.015   8.444   8.159  0.7249  1.6008 -0.8400
25868SOL     OW82450   3.333   8.873   3.041 -0.1286 -0.1063 -0.5505
25868SOL    HW182451   3.310   8.944   2.981  0.2180 -0.8126 -1.5456
25868SOL    HW282452   3.420   8.898   3.074  0.0976 -0.1615 -1.0768
25869SOL     OW82453   2.011   2.829   9.460 -0.3810 -0.6892 -0.0367
25869SOL    HW182454   2.047   2.745   9.489  0.2833 -0.1817  0.6050
25869SOL    HW282455   2.079   2.867   9.406 -0.6824 -0.5512 -0.3241
25870SOL     OW82456   7.988   6.341   8.907 -0.1633 -0.4003  0.5338
25870SOL    HW182457   7.995   6.324   8.813  0.3013 -0.7616  0.6283
25870SOL    HW282458   8.022   6.261   8.948  0.1906 -0.0116  1.0080
25871SOL     OW82459   5.047   6.270   4.392  0.1733  0.1466  0.2304
25871SOL    HW182460   5.069   6.353   4.350 -1.3830 -0.0679 -1.1130
25871SOL    HW282461   5.107   6.264   4.466  1.2631  1.7929 -0.4535
25872SOL     OW82462   4.239   7.500   5.934  0.1068  0.0905 -0.4350
25872SOL    HW182463   4.241   7.421   5.988 -1.1426  0.4087  0.1221
25872SOL    HW282464   4.203   7.567   5.993  1.6619  1.2106 -0.7226
25873SOL     OW82465   0.648   0.495   2.014 -0.4895  0.5135  0.4491
25873SOL    HW182466   0.633   0.589   2.024  0.0975  0.7591 -0.7958
25873SOL    HW282467   0.625   0.476   1.923 -2.1197 -0.8753  1.0941
25874SOL     OW82468   6.685   2.993   3.812 -0.0264 -0.0103  0.3677
25874SOL    HW182469   6.773   3.003   3.847  0.0199  1.1990 -0.0588
25874SOL    HW282470   6.675   2.898   3.799  1.0109 -0.2045  0.8942
25875SOL     OW82471   2.669   5.657   4.967 -0.1240 -0.1950  0.0062
25875SOL    HW182472   2.671   5.748   4.997 -2.2014  0.4061 -1.4253
25875SOL    HW282473   2.707   5.659   4.880  0.2640 -0.8040  0.1559
25876SOL     OW82474   0.111   9.383   3.776  0.2288 -0.4312  0.1349
25876SOL    HW182475   0.157   9.299   3.773 -1.3235 -1.3289  0.3307
25876SOL    HW282476   0.135   9.420   3.861  1.6244 -0.2279 -0.3176
25877SOL     OW82477   8.640   1.265   2.471  0.5093 -0.0155 -0.0020
25877SOL    HW182478   8.654   1.186   2.419 -0.7329  0.6536 -1.4456
25877SOL    HW282479   8.547   1.284   2.460  0.7809  1.6510  0.3046
25878SOL     OW82480   4.974   9.740   4.729  0.4425 -0.0693  0.2412
25878SOL    HW182481   4.925   9.759   4.649  1.2886  0.9800 -0.0575
25878SOL    HW282482   4.926   9.785   4.798  1.2065  1.3850 -0.1272
25879SOL     OW82483   0.483   3.955   9.073  0.0626  0.1230 -0.2372
25879SOL    HW182484   0.564   3.953   9.124 -1.1979  0.3938  1.8939
25879SOL    HW282485   0.487   3.876   9.020  1.5539 -0.0604  0.0838
25880SOL     OW82486   9.026   4.332   6.627 -0.0172  0.2581 -0.0295
25880SOL    HW182487   9.030   4.365   6.717  0.2016  0.4195 -0.0984
25880SOL    HW282488   8.937   4.352   6.598  0.1074  0.7756 -0.0628
25881SOL     OW82489   1.273   1.837   1.435  0.3757 -0.4413 -0.1655
25881SOL    HW182490   1.303   1.752   1.467  0.9056 -0.1276  0.1731
25881SOL    HW282491   1.332   1.858   1.362 -0.3520 -0.7999 -0.8828
25882SOL     OW82492   5.934   6.794   9.501 -1.1789 -0.5998  0.3447
25882SOL    HW182493   5.842   6.814   9.514 -1.4423  0.2519 -2.2586
25882SOL    HW282494   5.981   6.856   9.557 -2.1571  0.8276 -0.3877
25883SOL     OW82495   3.151   4.005   5.540 -0.1152 -0.0795  0.0626
25883SOL    HW182496   3.095   4.067   5.587  0.0283 -1.4734  2.1951
25883SOL    HW282497   3.240   4.031   5.562 -0.0612 -1.5137  1.7298
25884SOL     OW82498   2.365   4.421   7.006  0.4560  0.6080  0.0123
25884SOL    HW182499   2.354   4.442   6.913 -0.3315  0.0527 -0.0240
25884SOL    HW282500   2.372   4.326   7.010  0.1678  0.6042  0.5574
25885SOL     OW82501   6.305   1.524   2.657 -0.2390  0.3350  0.0776
25885SOL    HW182502   6.264   1.537   2.571 -1.1018 -1.0268  0.2424
25885SOL    HW282503   6.291   1.606   2.703 -0.2256  0.9032 -0.8947
25886SOL     OW82504   6.355   1.003   8.169 -0.0799 -0.4034 -0.3239
25886SOL    HW182505   6.377   0.914   8.196 -0.0358 -0.5798 -0.9129
25886SOL    HW282506   6.382   1.007   8.077  1.6317  0.7859  0.1750
25887SOL     OW82507   7.136   4.263   6.163  0.5544  0.1816 -0.1784
25887SOL    HW182508   7.174   4.207   6.095 -2.1960 -1.8046 -0.2513
25887SOL    HW282509   7.065   4.309   6.120 -0.4691 -0.1950  1.0373
25888SOL     OW82510   8.334   5.344   8.520  0.1213 -0.1264 -0.2221
25888SOL    HW182511   8.254   5.296   8.538  0.0826  0.0653  0.1245
25888SOL    HW282512   8.331   5.361   8.425 -2.3173  3.4540  0.2784
25889SOL     OW82513   3.412   8.224   5.595 -0.1757 -0.3004  0.1511
25889SOL    HW182514   3.367   8.199   5.675 -3.2965  0.9504 -1.0632
25889SOL    HW282515   3.348   8.210   5.525  1.5287  1.0357 -1.8344
25890SOL     OW82516   6.950   5.488   3.643 -0.2426 -0.1709  0.5669
25890SOL    HW182517   6.861   5.476   3.610 -0.5598  1.0319  0.9151
25890SOL    HW282518   6.941   5.556   3.710  0.6258 -1.4354  2.0175
25891SOL     OW82519   1.545   9.486   7.222 -0.2676 -0.0988  0.7501
25891SOL    HW182520   1.538   9.499   7.128  3.6735 -0.5796  0.1914
25891SOL    HW282521   1.534   9.392   7.234 -0.1321 -0.1297  0.6426
25892SOL     OW82522   0.404   9.069   1.473  0.2380  0.2907 -0.1567
25892SOL    HW182523   0.474   9.012   1.440  0.0631  0.4312 -0.7821
25892SOL    HW282524   0.329   9.049   1.418  0.1534  1.0726 -0.3331
25893SOL     OW82525   1.443   2.805   4.762  0.4656  0.0471  0.1359
25893SOL    HW182526   1.531   2.786   4.730 -0.2074  0.7653 -2.3838
25893SOL    HW282527   1.444   2.898   4.784  0.3803  0.0259  0.2300
25894SOL     OW82528   7.365   9.113   6.469 -0.6198 -0.7193 -0.1547
25894SOL    HW182529   7.416   9.033   6.455  1.5081  0.5275  0.0891
25894SOL    HW282530   7.301   9.090   6.537  0.9580 -1.8100  1.0150
25895SOL     OW82531   4.518   0.149   1.655  0.4798 -0.2293  0.0520
25895SOL    HW182532   4.594   0.124   1.602 -0.9298 -0.4501 -1.9313
25895SOL    HW282533   4.484   0.066   1.688 -0.5212 -0.4016 -1.3707
25896SOL     OW82534   2.244   8.557   9.176  0.4248  0.6844  0.4629
25896SOL    HW182535   2.185   8.628   9.153  0.0751  0.2654  0.0498
25896SOL    HW282536   2.252   8.563   9.271  0.2577  1.1625  0.4521
25897SOL     OW82537   0.461   3.518   9.525 -0.1125 -0.0323  0.4613
25897SOL    HW182538   0.469   3.457   9.598 -0.9424 -0.1392  0.4712
25897SOL    HW282539   0.480   3.604   9.563  1.2270 -0.2788  0.4132
25898SOL     OW82540   5.520   2.674   5.706  0.3205 -0.2857  0.0666
25898SOL    HW182541   5.541   2.706   5.793 -0.1138 -0.0783  0.0969
25898SOL    HW282542   5.596   2.700   5.652 -0.2025  1.2130 -0.0089
25899SOL     OW82543   4.343   3.474   7.567 -0.3559  0.0048 -0.6364
25899SOL    HW182544   4.355   3.379   7.562  1.0679  0.1912 -1.1997
25899SOL    HW282545   4.429   3.508   7.590 -1.7339  0.8920  4.7420
25900SOL     OW82546   9.516   5.634   3.705  0.9517  0.0216 -0.0405
25900SOL    HW182547   9.587   5.575   3.732  1.3630 -0.5637 -2.2142
25900SOL    HW282548   9.550   5.680   3.629  0.5921  3.1010  1.4952
25901SOL     OW82549   0.859   7.461   5.884 -0.1171  0.5265 -0.0973
25901SOL    HW182550   0.922   7.474   5.813 -0.9280 -1.9874 -1.4192
25901SOL    HW282551   0.775   7.454   5.840 -1.0933  1.8362  1.4493
25902SOL     OW82552   8.442   2.421   4.913 -0.3198  0.2352 -0.3403
25902SOL    HW182553   8.456   2.327   4.899 -0.3301 -0.0186  1.2080
25902SOL    HW282554   8.358   2.439   4.870 -0.0006 -0.3042 -1.2228
25903SOL     OW82555   9.713   3.306   2.492  0.4462  0.3051  0.6642
25903SOL    HW182556   9.675   3.221   2.473 -0.2526  0.4188  1.4932
25903SOL    HW282557   9.673   3.332   2.575  0.7106  1.3962  0.4642
25904SOL     OW82558   1.803   2.047   7.034 -0.1258 -0.3308 -0.0202
25904SOL    HW182559   1.889   2.044   7.074 -0.0337  2.0412  0.1062
25904SOL    HW282560   1.762   1.964   7.058  1.8196 -1.1658  0.5712
25905SOL     OW82561   6.720   0.086   0.015 -0.0931  0.1816 -0.1877
25905SOL    HW182562   6.639   0.138   0.017  0.1470  0.5463  0.0506
25905SOL    HW282563   6.692   0.001  -0.018 -0.5464  0.3610 -0.2798
25906SOL     OW82564   8.360   3.058   5.734  0.3569  0.3450  0.2792
25906SOL    HW182565   8.349   3.037   5.827 -0.4317  0.3103  0.1878
25906SOL    HW282566   8.412   2.985   5.699  0.3985  0.2058  0.6313
25907SOL     OW82567   9.107   2.421   6.010 -0.5234  0.2522  0.6607
25907SOL    HW182568   9.127   2.432   5.917 -0.5038  1.4429  0.7867
25907SOL    HW282569   9.160   2.489   6.053 -1.1308  0.2240  1.4588
25908SOL     OW82570   5.154   5.430   8.220 -0.2219 -0.1473 -0.9822
25908SOL    HW182571   5.197   5.469   8.296  1.1564  1.1546 -2.3725
25908SOL    HW282572   5.063   5.462   8.225 -0.8332 -1.9480  1.3130
25909SOL     OW82573   1.958   3.743   4.845 -0.2657 -0.0954 -0.3895
25909SOL    HW182574   1.941   3.702   4.760 -2.9742  0.3787 -0.1668
25909SOL    HW282575   2.016   3.817   4.825 -0.2155 -0.4590 -1.6833
25910SOL     OW82576   7.140   0.171   5.254 -0.2941  0.1945 -0.0007
25910SOL    HW182577   7.227   0.177   5.215  0.2797 -2.0280  0.7975
25910SOL    HW282578   7.082   0.155   5.180  0.0265  1.1381 -0.4748
25911SOL     OW82579   6.501   7.768   3.642 -0.6432 -0.0404 -0.8531
25911SOL    HW182580   6.533   7.762   3.732  1.5426 -0.4225 -1.5751
25911SOL    HW282581   6.425   7.710   3.639 -1.3221  0.6878  0.9309
25912SOL     OW82582   1.432   4.591   0.029 -0.5834 -0.4407 -0.4548
25912SOL    HW182583   1.451   4.499   0.009 -0.3228 -0.5112  0.1171
25912SOL    HW282584   1.396   4.590   0.117 -2.5562 -0.2185 -1.2044
25913SOL     OW82585   4.610   5.108   9.328  0.0438  0.5164  0.5569
25913SOL    HW182586   4.703   5.113   9.308  0.0451  1.2654  0.7411
25913SOL    HW282587   4.567   5.143   9.251 -0.0842  0.2425  0.5026
25914SOL     OW82588   2.480   9.186   6.708 -0.1325  0.1299 -0.3524
25914SOL    HW182589   2.394   9.143   6.708  0.1563 -0.4853  1.1384
25914SOL    HW282590   2.532   9.136   6.645 -0.8302  0.4882 -1.2458
25915SOL     OW82591   0.864   3.523   9.038 -0.5992 -1.3424  0.0251
25915SOL    HW182592   0.853   3.446   9.095  0.9941 -3.1733 -1.9515
25915SOL    HW282593   0.798   3.512   8.970  0.1432 -1.4214 -0.6972
25916SOL     OW82594   5.162   6.375   8.759 -0.0097 -0.5087 -0.5082
25916SOL    HW182595   5.217   6.301   8.733  0.8872 -0.1024  0.1719
25916SOL    HW282596   5.194   6.448   8.706  1.7665  0.3046  1.5423
25917SOL     OW82597   2.326   4.238   4.214  0.4516 -0.0846  0.2761
25917SOL    HW182598   2.358   4.166   4.269  1.1412  0.3503  0.4480
25917SOL    HW282599   2.232   4.220   4.205  0.2786 -0.0848  1.7364
25918SOL     OW82600   7.454   0.310   3.652  0.5041  0.3982  0.2122
25918SOL    HW182601   7.466   0.281   3.743 -0.7059 -0.3329  0.1593
25918SOL    HW282602   7.449   0.405   3.658 -0.1172  0.3262  0.9939
25919SOL     OW82603   7.095   8.690   1.011  0.2309 -0.5740 -0.2935
25919SOL    HW182604   7.157   8.677   1.082 -0.5201  0.4918  0.5936
25919SOL    HW282605   7.050   8.605   1.003 -0.4807 -0.3901  1.3215
25920SOL     OW82606   5.363   2.424   8.953  0.3562 -0.0036  0.6978
25920SOL    HW182607   5.344   2.365   9.025 -1.2917  0.6446  0.8499
25920SOL    HW282608   5.421   2.375   8.895  2.6740 -0.1312  2.9769
25921SOL     OW82609   6.090   6.756   1.647 -0.0771 -0.0824  0.0660
25921SOL    HW182610   6.015   6.705   1.678  0.8715 -1.3038  0.4575
25921SOL    HW282611   6.141   6.694   1.594  1.1075  0.4551  0.5355
25922SOL     OW82612   6.501   1.383   6.475  0.2086  0.3160 -0.1076
25922SOL    HW182613   6.434   1.316   6.486 -0.1389  0.5792 -0.5838
25922SOL    HW282614   6.572   1.356   6.533  0.1545 -0.5693 -0.4363
25923SOL     OW82615   3.668   3.803   9.019 -0.1443  0.2519  0.4730
25923SOL    HW182616   3.706   3.744   8.954 -1.9884  0.0182 -0.4620
25923SOL    HW282617   3.603   3.750   9.065 -0.0502  0.8859  1.3677
25924SOL     OW82618   9.035   0.608   4.757  0.4924 -0.4169  0.2086
25924SOL    HW182619   8.990   0.539   4.709 -1.3661  0.6861  0.2761
25924SOL    HW282620   9.067   0.668   4.689 -0.7170  0.2913  0.2250
25925SOL     OW82621   5.960   0.528   5.791 -0.2947  0.4904 -0.0710
25925SOL    HW182622   6.054   0.543   5.800 -0.1453  0.3312 -1.1603
25925SOL    HW282623   5.941   0.551   5.700 -1.0554 -0.7421 -0.2472
25926SOL     OW82624   2.357   1.379   2.027 -0.6079  0.1215 -0.3055
25926SOL    HW182625   2.370   1.473   2.020  0.8983 -0.0128  0.4654
25926SOL    HW282626   2.445   1.342   2.037 -1.1211 -1.4149 -1.0568
25927SOL     OW82627   7.734   4.044   3.131 -0.2623  0.4970  0.0518
25927SOL    HW182628   7.803   3.977   3.131  0.0598  0.8210  1.1948
25927SOL    HW282629   7.679   4.020   3.056  0.3822 -0.4950 -0.1323
25928SOL     OW82630   3.973   3.808   3.239 -0.1622  0.3018  0.0707
25928SOL    HW182631   4.036   3.847   3.300  0.5420  0.8276 -0.9670
25928SOL    HW282632   3.956   3.721   3.275  1.7522 -0.1534 -0.0313
25929SOL     OW82633   4.221   9.183   8.960 -0.0420  0.7454 -0.7154
25929SOL    HW182634   4.186   9.183   9.049  0.8059  0.0947 -0.3719
25929SOL    HW282635   4.185   9.104   8.920  0.4185  0.4662 -0.5948
25930SOL     OW82636   2.287   0.168   7.230 -0.2389 -0.6942 -0.5447
25930SOL    HW182637   2.325   0.082   7.211 -0.8674 -0.9236 -0.7841
25930SOL    HW282638   2.264   0.164   7.323  0.1450 -0.6211 -0.4445
25931SOL     OW82639   5.861   4.884   5.936  0.2606 -0.0023 -0.1990
25931SOL    HW182640   5.911   4.865   6.016 -0.1143 -0.5668 -0.0872
25931SOL    HW282641   5.770   4.866   5.961  0.1149  0.0537 -0.6857
25932SOL     OW82642   7.759   2.679   6.665  0.1460  0.2121 -0.1326
25932SOL    HW182643   7.752   2.709   6.575  2.3566  1.1028 -0.0488
25932SOL    HW282644   7.695   2.732   6.713 -1.1124 -0.3284 -1.1228
25933SOL     OW82645   0.025   0.322   5.573 -0.0376 -0.1511 -0.3002
25933SOL    HW182646   0.120   0.335   5.573  0.1542 -1.3974 -0.7653
25933SOL    HW282647   0.010   0.256   5.641 -0.1957 -2.1075 -2.1174
25934SOL     OW82648   5.677   2.194   1.523  0.7649  0.1364  0.0694
25934SOL    HW182649   5.770   2.171   1.522  0.9578  0.7810  1.2235
25934SOL    HW282650   5.632   2.109   1.526  1.3115 -0.1789 -0.4328
25935SOL     OW82651   2.762   3.419   7.668  0.1188 -0.5156  0.1484
25935SOL    HW182652   2.755   3.347   7.730 -1.3807 -0.5190  0.0179
25935SOL    HW282653   2.805   3.489   7.716  1.9283 -1.5942  0.1665
25936SOL     OW82654   2.487   6.511   0.404  0.2703  0.3652 -0.2239
25936SOL    HW182655   2.435   6.557   0.469  0.7754  0.6417 -0.0030
25936SOL    HW282656   2.570   6.494   0.448  0.3590 -0.0851 -0.5584
25937SOL     OW82657   4.402   7.515   3.102 -0.4836 -0.6928  0.5845
25937SOL    HW182658   4.423   7.603   3.071  1.8038 -0.6679  1.9383
25937SOL    HW282659   4.401   7.461   3.023  2.7882 -0.2113  0.0761
25938SOL     OW82660   1.033   1.065   4.381 -0.1945  0.3957  0.1056
25938SOL    HW182661   0.999   1.139   4.331  0.1971  0.0234 -0.7321
25938SOL    HW282662   1.128   1.069   4.369 -0.2143 -0.6537 -0.5502
25939SOL     OW82663   8.607   3.493   2.808  0.4012  0.2232  0.1907
25939SOL    HW182664   8.672   3.450   2.864 -0.2694 -0.0255  0.7945
25939SOL    HW282665   8.646   3.492   2.721  1.6510  0.9751  0.6983
25940SOL     OW82666   3.418   1.623   3.430 -0.0794 -0.2000  0.3540
25940SOL    HW182667   3.423   1.530   3.453  1.5641 -1.1309 -3.1582
25940SOL    HW282668   3.478   1.666   3.491  0.3935 -1.6774  0.9852
25941SOL     OW82669   3.961   0.022   9.179 -0.1677 -0.2866  0.1523
25941SOL    HW182670   4.054   0.003   9.196  0.1478  0.4948 -0.5919
25941SOL    HW282671   3.951   0.113   9.205 -0.5878 -0.2055 -0.2889
25942SOL     OW82672   3.223   8.024   1.819  0.1554 -0.3375  0.6064
25942SOL    HW182673   3.208   7.930   1.829  2.5687 -0.8094  0.5202
25942SOL    HW282674   3.306   8.039   1.864 -0.4023  1.8583  0.9997
25943SOL     OW82675   8.102   5.849   7.697 -0.2279 -0.8295 -0.0473
25943SOL    HW182676   8.043   5.906   7.746 -2.5667 -1.1473 -2.2961
25943SOL    HW282677   8.121   5.777   7.758  3.1674  2.2653  3.0510
25944SOL     OW82678   6.782   4.128   2.780 -0.3183  0.1652 -0.3709
25944SOL    HW182679   6.795   4.201   2.719  1.6659  2.5320  2.5487
25944SOL    HW282680   6.736   4.168   2.854  1.1877 -1.4017  1.4983
25945SOL     OW82681   3.129   8.267   2.641  0.1467 -0.2544  0.1765
25945SOL    HW182682   3.145   8.285   2.549  0.8377  0.0879  0.3571
25945SOL    HW282683   3.088   8.346   2.675 -0.8904 -0.6911 -0.0175
25946SOL     OW82684   4.836   6.571   8.729  0.6749  0.2014  0.5542
25946SOL    HW182685   4.910   6.560   8.789  2.1546 -0.6255 -1.2914
25946SOL    HW282686   4.857   6.651   8.680  1.1658 -0.7968 -0.9653
25947SOL     OW82687   7.044   7.173   7.293 -0.3743 -0.1885 -0.6276
25947SOL    HW182688   6.991   7.113   7.344 -0.9366  0.0740 -0.8986
25947SOL    HW282689   7.013   7.164   7.203 -0.9675  1.0194 -0.5667
25948SOL     OW82690   9.508   8.568   0.400  0.2336  0.0406  0.1861
25948SOL    HW182691   9.549   8.515   0.469  1.0246  0.5995  0.1548
25948SOL    HW282692   9.577   8.628   0.372 -0.5973  0.9438  0.0637
25949SOL     OW82693   7.254   3.370   0.270 -0.1502  0.0206 -0.0974
25949SOL    HW182694   7.235   3.294   0.324 -0.2590 -0.6449 -1.0434
25949SOL    HW282695   7.317   3.338   0.205  1.2765  1.2144  0.6165
25950SOL     OW82696   8.076   4.362   7.989  0.2889 -0.1556 -0.1054
25950SOL    HW182697   8.047   4.347   8.079 -0.4795  1.6940  0.0036
25950SOL    HW282698   8.167   4.335   7.988  0.2032 -0.5397  1.1394
25951SOL     OW82699   4.603   3.901   1.041  0.4507  0.2005 -0.0264
25951SOL    HW182700   4.582   3.974   0.983  1.3062  0.1992 -0.3484
25951SOL    HW282701   4.560   3.825   1.001  0.1978  0.3841 -0.1031
25952SOL     OW82702   9.283   8.491   1.256  0.4341  0.3800  0.1935
25952SOL    HW182703   9.234   8.409   1.257  0.9797 -0.0308 -2.2959
25952SOL    HW282704   9.364   8.471   1.305  0.8405 -0.7746 -0.9109
25953SOL     OW82705   8.190   2.607   2.780 -0.5858 -0.1275  0.0811
25953SOL    HW182706   8.163   2.692   2.815 -0.5776 -0.2299  0.3410
25953SOL    HW282707   8.110   2.555   2.778 -0.6839  0.0435 -0.5416
25954SOL     OW82708   6.229   8.382   6.008  0.0367  0.4265  0.2603
25954SOL    HW182709   6.237   8.361   6.101 -0.6677 -1.3204 -0.0179
25954SOL    HW282710   6.319   8.383   5.976  0.3103  1.4349  1.0155
25955SOL     OW82711   0.560   0.317   8.354 -0.0626 -0.4767 -0.2168
25955SOL    HW182712   0.623   0.354   8.417 -1.8491  1.3108  0.6388
25955SOL    HW282713   0.504   0.261   8.408 -0.5797 -0.2739 -0.5499
25956SOL     OW82714   6.289   6.272   7.506  0.0840  0.2139  0.0867
25956SOL    HW182715   6.366   6.217   7.496 -0.5176 -0.4902 -0.8073
25956SOL    HW282716   6.226   6.237   7.444 -0.1271  2.2684 -0.9496
25957SOL     OW82717   3.056   7.989   9.219  0.1083 -0.0159  0.3302
25957SOL    HW182718   3.074   7.896   9.203  0.2959  0.2398 -1.0450
25957SOL    HW282719   2.962   7.991   9.237  0.0645 -0.4536  0.1842
25958SOL     OW82720   2.695   9.298   4.031  0.2585  0.1713  0.0322
25958SOL    HW182721   2.720   9.290   3.939  1.4761 -0.6201  0.3882
25958SOL    HW282722   2.751   9.234   4.075  0.1839  1.0182  1.4041
25959SOL     OW82723   4.207   7.821   1.565 -0.0644 -0.1527  0.3395
25959SOL    HW182724   4.141   7.753   1.556 -1.3043  0.8808  1.1633
25959SOL    HW282725   4.205   7.845   1.658  1.4732 -0.0837  0.3756
25960SOL     OW82726   7.759   3.768   5.812  0.0817 -0.3392 -0.3566
25960SOL    HW182727   7.679   3.759   5.760 -0.4344 -1.2150  0.5285
25960SOL    HW282728   7.750   3.852   5.857  0.4989  0.3862 -1.5875
25961SOL     OW82729   5.024   4.972   9.658 -0.3785  0.5555  0.1224
25961SOL    HW182730   4.995   4.920   9.584  1.5538  0.9695 -0.9873
25961SOL    HW282731   5.041   4.908   9.727 -1.3061  0.0760 -0.0771
25962SOL     OW82732   0.486   3.921   2.381  0.4375 -0.1291  0.0576
25962SOL    HW182733   0.541   3.845   2.401  2.0738  1.0168  0.0966
25962SOL    HW282734   0.486   3.972   2.461  1.4275  1.1227 -0.7000
25963SOL     OW82735   1.766   9.245   9.698  0.1426  0.4752 -0.2258
25963SOL    HW182736   1.704   9.190   9.650 -1.1326  2.3676 -0.8643
25963SOL    HW282737   1.711   9.302   9.752  1.4882 -0.2512  2.0570
25964SOL     OW82738   2.645   5.652   4.029 -0.0036 -0.4226 -0.2771
25964SOL    HW182739   2.717   5.595   4.001  0.8517  1.0975 -1.3380
25964SOL    HW282740   2.596   5.669   3.949  0.7334  1.6198 -0.3447
25965SOL     OW82741   2.260   2.836   6.562 -0.3780  0.4797  0.2943
25965SOL    HW182742   2.179   2.790   6.586  0.5236 -1.4139 -0.0811
25965SOL    HW282743   2.321   2.815   6.633  0.8353 -1.1681 -1.1269
25966SOL     OW82744   8.114   4.345   6.479  0.0867  0.2404 -0.0325
25966SOL    HW182745   8.200   4.302   6.474 -0.4009 -0.6452 -1.4281
25966SOL    HW282746   8.109   4.397   6.399 -0.4125  0.8135  0.3663
25967SOL     OW82747   7.583   0.579   5.118  0.3378 -0.3813  0.6569
25967SOL    HW182748   7.600   0.625   5.200 -0.9399  1.2123  0.0846
25967SOL    HW282749   7.622   0.634   5.051 -1.8965  0.3888 -0.1163
25968SOL     OW82750   8.667   6.506   8.908  0.0499  0.2853 -0.5174
25968SOL    HW182751   8.571   6.509   8.903 -0.1411  0.8835  2.0744
25968SOL    HW282752   8.695   6.480   8.820 -2.5148 -0.9737 -1.0458
25969SOL     OW82753   9.351   6.891   7.785  1.3394 -0.9022  0.0593
25969SOL    HW182754   9.278   6.912   7.726  1.5114 -3.5062 -1.2326
25969SOL    HW282755   9.331   6.938   7.865 -1.6145 -1.2254 -0.3690
25970SOL     OW82756   8.534   7.878   6.633  0.0952 -0.1684  0.2152
25970SOL    HW182757   8.475   7.888   6.558 -0.7455 -0.3835  0.8361
25970SOL    HW282758   8.550   7.784   6.638  0.5961 -0.0970 -0.0274
25971SOL     OW82759   5.962   5.733   3.086 -0.5846 -0.0529 -0.3723
25971SOL    HW182760   5.882   5.770   3.123  0.0401  0.5349  0.4102
25971SOL    HW282761   5.949   5.638   3.089 -1.3074  0.0457 -0.3912
25972SOL     OW82762   5.278   0.201   0.390  0.4312  0.1637  0.0818
25972SOL    HW182763   5.374   0.209   0.392  0.4651 -0.2998  0.6014
25972SOL    HW282764   5.247   0.283   0.428  0.7230 -1.0195  3.1536
25973SOL     OW82765   3.585   8.355   1.333 -0.2836  0.0244 -0.3692
25973SOL    HW182766   3.494   8.327   1.321 -0.6574  1.2148 -0.4015
25973SOL    HW282767   3.582   8.421   1.402  0.6447 -0.3546  0.0500
25974SOL     OW82768   9.747   4.795   2.100 -0.2422  0.1137  0.1015
25974SOL    HW182769   9.710   4.825   2.017 -0.0949  0.9058  0.3036
25974SOL    HW282770   9.699   4.716   2.122  1.1301 -1.3206 -1.7762
25975SOL     OW82771   0.155   1.851   6.627 -0.0936  0.6347 -0.3587
25975SOL    HW182772   0.108   1.774   6.659  1.6218 -0.6365 -0.7303
25975SOL    HW282773   0.133   1.920   6.689 -3.3331  0.4804 -1.1551
25976SOL     OW82774   8.823   5.162   8.976 -0.0142 -0.6617 -0.1907
25976SOL    HW182775   8.734   5.197   8.982 -0.0577 -0.7570 -0.2842
25976SOL    HW282776   8.876   5.221   9.029 -0.0184 -0.2199 -0.6740
25977SOL     OW82777   5.288   7.418   3.896  0.3323 -0.3529 -0.3754
25977SOL    HW182778   5.342   7.357   3.844  1.6008 -0.9837  1.5776
25977SOL    HW282779   5.210   7.367   3.919  0.1807 -0.3655 -0.9059
25978SOL     OW82780   2.367   5.766   2.908  0.0670 -0.0957 -0.4153
25978SOL    HW182781   2.439   5.712   2.941 -0.3403 -1.5381 -1.7371
25978SOL    HW282782   2.408   5.827   2.848  0.1665 -1.3087 -1.6294
25979SOL     OW82783   4.044   2.895   9.140 -0.2700 -0.0077  0.1087
25979SOL    HW182784   3.996   2.879   9.059 -0.3931  3.2549 -0.6023
25979SOL    HW282785   3.978   2.894   9.209 -0.5199 -0.6123 -0.1426
25980SOL     OW82786   1.915   6.332   1.603 -0.2736 -0.9043 -0.0490
25980SOL    HW182787   1.990   6.351   1.545 -1.5633  0.5177 -1.3316
25980SOL    HW282788   1.939   6.373   1.686  0.1967 -0.0116 -0.5956
25981SOL     OW82789   3.793   0.096   2.490 -0.5195  0.1683  0.3572
25981SOL    HW182790   3.743   0.039   2.432 -2.0888  1.9682 -0.1657
25981SOL    HW282791   3.727   0.149   2.535  0.8334  1.3372  1.0473
25982SOL     OW82792   8.259   8.624   8.941 -0.4322  0.2451  0.0022
25982SOL    HW182793   8.171   8.595   8.916 -0.4085 -0.1729  0.3918
25982SOL    HW282794   8.290   8.557   9.002 -0.9218  1.8261  2.0962
25983SOL     OW82795   9.429   3.892   6.325 -0.2493  0.3608  0.6541
25983SOL    HW182796   9.437   3.863   6.416 -0.4029 -0.1497  0.5051
25983SOL    HW282797   9.508   3.860   6.282  0.2511  1.3589  0.8049
25984SOL     OW82798   8.109   5.464   7.313  0.0891  0.0460  0.1996
25984SOL    HW182799   8.182   5.467   7.252 -1.3093 -0.4043 -1.5719
25984SOL    HW282800   8.042   5.411   7.269 -1.2359  0.2458  1.8487
25985SOL     OW82801   6.612   4.686   3.455 -0.7398 -0.0595  0.3779
25985SOL    HW182802   6.544   4.753   3.458 -1.1835 -0.3627 -1.4280
25985SOL    HW282803   6.685   4.728   3.411 -0.2236 -0.1277  1.1615
25986SOL     OW82804   8.431   5.409   9.736  0.0331 -0.3237  0.2296
25986SOL    HW182805   8.480   5.418   9.817 -0.2246 -0.1619  0.3706
25986SOL    HW282806   8.406   5.498   9.713  0.3421 -0.3390 -0.1774
25987SOL     OW82807   7.553   4.399   0.409 -0.8075  0.3757  0.6725
25987SOL    HW182808   7.605   4.393   0.489  1.7107 -0.4894 -0.8848
25987SOL    HW282809   7.577   4.320   0.360 -1.4335  1.3957 -1.3812
25988SOL     OW82810   8.371   6.580   5.351 -0.0720 -0.3654 -0.4253
25988SOL    HW182811   8.350   6.506   5.294  1.6664 -0.8811 -0.4384
25988SOL    HW282812   8.433   6.632   5.300  1.1875 -0.6144  0.7872
25989SOL     OW82813   2.844   9.504   5.003  0.0763  0.3746 -0.0439
25989SOL    HW182814   2.806   9.434   5.056  0.3690  1.0058  1.0136
25989SOL    HW282815   2.921   9.533   5.052 -0.3112  1.7692 -0.2289
25990SOL     OW82816   3.761   0.939   8.729 -0.0380  0.0068  0.1145
25990SOL    HW182817   3.689   0.999   8.712 -0.2480 -0.2868 -0.0561
25990SOL    HW282818   3.816   0.945   8.651 -1.2221 -1.6530 -0.9250
25991SOL     OW82819   0.638   6.593   0.216 -0.1131  0.5162 -0.0402
25991SOL    HW182820   0.593   6.618   0.297 -0.5973  0.7359 -0.3690
25991SOL    HW282821   0.602   6.507   0.195  0.6552  0.0645  0.4369
25992SOL     OW82822   5.355   8.563   5.964 -0.3792  0.2856 -0.1876
25992SOL    HW182823   5.364   8.625   5.892 -0.6900 -1.5091 -1.8446
25992SOL    HW282824   5.439   8.518   5.968  0.1249  1.2744  1.5236
25993SOL     OW82825   9.588   8.158   0.262  0.9277  0.0428  0.1707
25993SOL    HW182826   9.669   8.206   0.275  0.5933  1.0150 -1.1474
25993SOL    HW282827   9.572   8.161   0.168  0.4572 -1.9693  0.1301
25994SOL     OW82828   3.751   1.499   6.335  0.3929  0.2190 -0.4897
25994SOL    HW182829   3.749   1.405   6.318  1.0230 -0.0046  0.5739
25994SOL    HW282830   3.830   1.512   6.387  0.3023  1.3369 -0.6151
25995SOL     OW82831   5.724   2.611   4.117 -0.4054  0.2552  0.7301
25995SOL    HW182832   5.660   2.680   4.137  0.7707  0.7138  3.1995
25995SOL    HW282833   5.792   2.655   4.066 -1.9053 -0.2356 -1.9183
25996SOL     OW82834   3.438   0.815   8.498 -0.2021 -0.6664  0.5913
25996SOL    HW182835   3.478   0.745   8.550  0.1556 -0.3841  0.7037
25996SOL    HW282836   3.503   0.886   8.500  0.2031 -0.9666 -0.9574
25997SOL     OW82837   1.925   6.880   3.202  0.4310 -0.4257  0.1574
25997SOL    HW182838   1.925   6.841   3.289  0.9323 -1.0033 -0.1029
25997SOL    HW282839   1.897   6.971   3.217 -0.0570 -0.6813  0.8434
25998SOL     OW82840   7.644   3.732   6.957  0.5662 -0.1249  0.1665
25998SOL    HW182841   7.678   3.671   7.022  2.8005  1.3334  0.4882
25998SOL    HW282842   7.687   3.815   6.977  0.5352  0.6415 -2.5171
25999SOL     OW82843   9.526   1.220   6.153  0.8733  0.4666 -0.1302
25999SOL    HW182844   9.563   1.146   6.105 -0.1400 -0.0493 -0.1276
25999SOL    HW282845   9.479   1.181   6.226  2.7520  1.2457  1.6169
26000SOL     OW82846   6.389   2.685   2.952 -0.0046 -0.5496  0.8696
26000SOL    HW182847   6.444   2.763   2.945  0.3387 -0.7368  1.4267
26000SOL    HW282848   6.449   2.612   2.936 -0.7150 -0.6545 -1.8379
26001SOL     OW82849   2.446   0.695   9.087 -0.1810 -0.0589 -0.1070
26001SOL    HW182850   2.372   0.702   9.027  0.5385 -0.3891 -1.0611
26001SOL    HW282851   2.431   0.763   9.152 -0.5072  0.9398 -1.2031
26002SOL     OW82852   2.401   6.092   5.232  0.0096  0.3917 -0.0028
26002SOL    HW182853   2.377   6.170   5.182  0.0973  1.0449  0.9431
26002SOL    HW282854   2.319   6.044   5.243 -0.0157  0.2620 -0.7228
26003SOL     OW82855   2.364   3.537   3.888 -0.2610  0.6777  0.1512
26003SOL    HW182856   2.355   3.445   3.866  1.9736  0.4408  0.0243
26003SOL    HW282857   2.450   3.544   3.930 -1.2009  2.3772  1.9981
26004SOL     OW82858   1.275   4.179   4.439  0.0943 -0.6318 -0.3185
26004SOL    HW182859   1.218   4.255   4.428  1.7920  0.6363 -0.7521
26004SOL    HW282860   1.356   4.204   4.395  0.8584 -2.5320 -0.0665
26005SOL     OW82861   5.418   1.760   5.458  0.3894 -0.4879 -0.0441
26005SOL    HW182862   5.454   1.845   5.432 -1.3309  0.4732  0.5465
26005SOL    HW282863   5.396   1.771   5.551 -0.8534 -1.2066 -0.2346
26006SOL     OW82864   5.355   1.781   3.933 -0.2173  0.2406 -0.0846
26006SOL    HW182865   5.442   1.821   3.929  0.4718 -1.2897 -2.6899
26006SOL    HW282866   5.369   1.690   3.908 -2.4401 -0.3254  0.5021
26007SOL     OW82867   6.175   1.509   2.166 -0.1673  0.0439  0.3429
26007SOL    HW182868   6.238   1.445   2.131  1.9762  2.1975 -0.0512
26007SOL    HW282869   6.117   1.528   2.092  3.1373  3.1096 -1.8470
26008SOL     OW82870   4.473   2.576   3.055  0.1009  0.1773 -0.4765
26008SOL    HW182871   4.409   2.624   3.109  0.8106  1.6545 -0.9259
26008SOL    HW282872   4.556   2.586   3.102  0.6806  1.2727 -1.6829
26009SOL     OW82873   0.029   1.508   1.119  0.1720  0.2086  0.4191
26009SOL    HW182874   0.068   1.519   1.032  1.7415 -1.1722  0.9023
26009SOL    HW282875  -0.036   1.578   1.125 -0.7518 -0.2822 -2.2706
26010SOL     OW82876   6.652   0.358   9.257  0.5518  0.0087 -0.1910
26010SOL    HW182877   6.620   0.376   9.346  2.3432  0.7172  0.3609
26010SOL    HW282878   6.742   0.328   9.270  1.5130  1.9373 -1.8535
26011SOL     OW82879   0.966   4.327   6.111  0.2145  0.4374  0.2269
26011SOL    HW182880   0.927   4.410   6.138  0.6924  0.4173  1.0022
26011SOL    HW282881   1.055   4.329   6.145 -0.1632 -0.9417  1.4366
26012SOL     OW82882   2.355   6.071   6.871  0.3096 -0.0533 -0.3266
26012SOL    HW182883   2.443   6.106   6.857  0.3729 -0.1600 -0.1937
26012SOL    HW282884   2.299   6.127   6.818  0.4913 -0.1589 -0.6365
26013SOL     OW82885   9.299   8.388   1.646 -0.1042  0.0696  0.2960
26013SOL    HW182886   9.252   8.450   1.702 -2.2002  0.3773 -1.6167
26013SOL    HW282887   9.389   8.419   1.645 -1.1597  3.5663 -1.0132
26014SOL     OW82888   6.962   7.003   4.057 -0.5022  0.0083 -0.3284
26014SOL    HW182889   6.907   7.024   4.132 -0.2185  0.2378 -0.1798
26014SOL    HW282890   6.927   7.058   3.986  0.4748  1.3251  0.1565
26015SOL     OW82891   6.650   3.680   5.697  0.0193  0.7815  0.1852
26015SOL    HW182892   6.561   3.713   5.685 -0.3664  0.4991  2.0591
26015SOL    HW282893   6.659   3.613   5.629 -2.1523 -1.0228  1.5554
26016SOL     OW82894   0.801   7.885   8.861 -0.2153 -0.2655 -0.1959
26016SOL    HW182895   0.794   7.800   8.818 -0.5280 -0.6447  0.5731
26016SOL    HW282896   0.717   7.896   8.905  0.5777 -0.5518  1.4646
26017SOL     OW82897   1.160   4.203   9.400  0.0299 -1.2140 -0.0853
26017SOL    HW182898   1.194   4.289   9.423 -1.8627 -0.3902 -0.2538
26017SOL    HW282899   1.146   4.207   9.306 -0.5321 -1.5480 -0.0167
26018SOL     OW82900   7.188   4.724   7.609  0.0236  0.0699 -0.1959
26018SOL    HW182901   7.284   4.728   7.610  0.0670  0.1521 -1.9190
26018SOL    HW282902   7.168   4.631   7.601 -0.0978 -0.0823  1.5786
26019SOL     OW82903   1.945   0.320   4.390 -1.0005 -0.0268  0.0748
26019SOL    HW182904   1.908   0.364   4.466 -1.6187 -0.8890  0.2910
26019SOL    HW282905   2.036   0.302   4.414 -1.1661 -0.2145  0.5728
26020SOL     OW82906   5.016   6.818   4.079  0.0724 -0.8424  0.3409
26020SOL    HW182907   5.109   6.839   4.071 -0.1553 -0.0104 -0.1863
26020SOL    HW282908   4.974   6.866   4.008 -0.9829  0.2043  1.6250
26021SOL     OW82909   5.763   2.925   6.748  0.5607  0.1513 -0.0682
26021SOL    HW182910   5.849   2.961   6.727  0.3230  0.3767 -0.6999
26021SOL    HW282911   5.702   2.998   6.737  0.3269  0.0761  0.6975
26022SOL     OW82912   0.764   0.812   8.165 -0.0535 -0.2239  0.3272
26022SOL    HW182913   0.854   0.778   8.164  1.3594  3.0227 -2.7300
26022SOL    HW282914   0.758   0.863   8.245  2.0047  1.9358 -0.7785
26023SOL     OW82915   1.386   0.103   1.149  0.2096 -0.1821  0.1174
26023SOL    HW182916   1.467   0.077   1.105  2.1664  0.5621  3.0078
26023SOL    HW282917   1.365   0.188   1.110  1.6715  0.2943  0.2827
26024SOL     OW82918   4.655   9.643   3.482 -0.0325  0.1154  0.2471
26024SOL    HW182919   4.640   9.572   3.544 -1.4913 -0.3728 -0.6111
26024SOL    HW282920   4.571   9.690   3.479  0.3164  0.7069 -0.6374
26025SOL     OW82921   8.583   6.904   4.362  0.2653 -0.4834  0.4967
26025SOL    HW182922   8.606   6.996   4.370 -1.8158  0.1848 -0.4309
26025SOL    HW282923   8.628   6.874   4.283  0.3047 -0.0405  0.3516
26026SOL     OW82924   4.722   2.136   5.364  0.3606 -0.0277  0.1971
26026SOL    HW182925   4.746   2.225   5.388 -0.5367  0.6020 -1.1414
26026SOL    HW282926   4.639   2.119   5.409  0.5900 -0.2463  0.5468
26027SOL     OW82927   0.006   0.589   6.374 -0.5581  0.0313 -0.2077
26027SOL    HW182928  -0.081   0.549   6.377  0.2180 -1.6712  1.3812
26027SOL    HW282929   0.050   0.545   6.302 -0.7607  0.4167 -0.5766
26028SOL     OW82930   6.832   7.474   3.936  0.2900 -0.1024 -0.1691
26028SOL    HW182931   6.739   7.481   3.911 -0.6700 -0.8584  2.7892
26028SOL    HW282932   6.831   7.475   4.031  3.7135  4.1658  0.1036
26029SOL     OW82933   9.254   0.354   7.064  0.1778  0.0701  0.6311
26029SOL    HW182934   9.345   0.324   7.053  0.0835  0.1597 -0.5545
26029SOL    HW282935   9.202   0.292   7.012 -0.1944  1.2549 -0.4686
26030SOL     OW82936   5.848   4.741   6.990  0.0360 -0.2065  0.6662
26030SOL    HW182937   5.769   4.728   7.043 -1.7081  0.4848 -1.6384
26030SOL    HW282938   5.857   4.836   6.983  1.3419 -0.2646  1.2027
26031SOL     OW82939   5.462   0.334   1.098  0.4702  0.7652 -0.7818
26031SOL    HW182940   5.431   0.365   1.182 -1.5923  1.2902 -1.6827
26031SOL    HW282941   5.558   0.342   1.103  0.3010  2.3136  0.8931
26032SOL     OW82942   3.969   0.496   8.936 -0.2097 -0.0926 -0.6136
26032SOL    HW182943   3.963   0.441   8.858 -0.3732  2.2495 -2.3566
26032SOL    HW282944   4.003   0.579   8.904  1.9092  0.2786  2.2176
26033SOL     OW82945   8.069   6.436   1.599  0.8275 -0.2385  0.0926
26033SOL    HW182946   8.016   6.442   1.678  1.1929 -1.5865  0.4578
26033SOL    HW282947   8.030   6.364   1.549  1.9624 -0.8988  0.1217
26034SOL     OW82948   0.710   3.629   2.247  0.0337  0.6879  0.1861
26034SOL    HW182949   0.656   3.615   2.324 -0.6170 -0.0445 -0.3814
26034SOL    HW282950   0.671   3.705   2.203  0.7424  1.4564  0.8472
26035SOL     OW82951   2.447   5.041   3.172 -0.2966 -0.2369  0.7532
26035SOL    HW182952   2.462   5.096   3.249  2.0595  1.8161 -1.0260
26035SOL    HW282953   2.529   4.992   3.162 -1.0559 -1.4458  0.2347
26036SOL     OW82954   7.669   0.847   9.611  0.2865 -0.6129  0.2062
26036SOL    HW182955   7.655   0.769   9.557  1.7197 -0.3409 -0.6127
26036SOL    HW282956   7.687   0.917   9.549 -0.3594  0.2420  0.9599
26037SOL     OW82957   9.521   1.161   2.920  0.3304 -0.6774 -0.2092
26037SOL    HW182958   9.481   1.158   3.007  0.4753 -1.1726 -0.1559
26037SOL    HW282959   9.537   1.069   2.897 -0.4598 -0.6098 -1.1093
26038SOL     OW82960   7.136   3.371   7.396  0.4881  0.0637  0.2793
26038SOL    HW182961   7.055   3.348   7.350 -0.5896 -0.7585  2.4344
26038SOL    HW282962   7.135   3.466   7.402 -0.1715  0.0735  0.0520
26039SOL     OW82963   1.392   7.562   3.416  0.0445  0.6699  0.6238
26039SOL    HW182964   1.298   7.554   3.402  0.1256  1.0929 -0.2313
26039SOL    HW282965   1.401   7.634   3.479 -0.1993  0.7644  0.5523
26040SOL     OW82966   0.017   6.269   3.097 -0.0593  0.2072 -0.6752
26040SOL    HW182967   0.003   6.183   3.137  0.2540 -0.3949 -1.8077
26040SOL    HW282968  -0.037   6.328   3.149 -2.2409 -1.0772 -1.3317
26041SOL     OW82969   4.109   4.161   7.713 -1.0452 -1.0331 -0.0419
26041SOL    HW182970   4.048   4.149   7.786  0.4297 -0.5175  1.3450
26041SOL    HW282971   4.141   4.251   7.724 -0.2114 -1.2207 -0.8599
26042SOL     OW82972   5.330   6.519   5.141  0.3649 -0.3556  0.4164
26042SOL    HW182973   5.238   6.508   5.114  0.2388  1.1282  0.1427
26042SOL    HW282974   5.360   6.596   5.092  1.1220  0.4487  2.0853
26043SOL     OW82975   0.061   0.945   9.599 -0.4638  0.0473  0.4738
26043SOL    HW182976   0.028   0.941   9.689  0.2622 -1.1718  0.7079
26043SOL    HW282977   0.036   1.032   9.569 -0.8998  0.4104  1.7852
26044SOL     OW82978   0.625   7.084   9.633 -0.0677  0.1363 -0.2961
26044SOL    HW182979   0.631   7.164   9.580 -0.0105  1.0942  1.0976
26044SOL    HW282980   0.619   7.013   9.569  3.7566  0.8668 -1.7162
26045SOL     OW82981   8.880   2.486   2.169 -0.3993 -0.7292 -0.1170
26045SOL    HW182982   8.848   2.397   2.185 -1.6992 -0.3567 -0.5795
26045SOL    HW282983   8.805   2.533   2.134  0.6508  0.1977 -1.2102
26046SOL     OW82984   4.123   2.551   1.272 -1.1013 -0.0174  0.0737
26046SOL    HW182985   4.087   2.536   1.185 -0.5200 -1.3914  0.0484
26046SOL    HW282986   4.054   2.522   1.332 -1.3983  0.6804  0.0747
26047SOL     OW82987   4.162   5.780   5.818  0.1105 -0.6738 -0.1524
26047SOL    HW182988   4.200   5.696   5.843 -0.7716 -0.8595  0.6184
26047SOL    HW282989   4.172   5.835   5.895  0.2994 -0.1926 -0.5106
26048SOL     OW82990   0.655   9.533   7.234  0.3874  0.0018 -0.0881
26048SOL    HW182991   0.688   9.570   7.152  1.6687  0.4089  0.5756
26048SOL    HW282992   0.732   9.533   7.292 -0.3883 -0.6863  0.9638
26049SOL     OW82993   9.331   5.972   6.995  0.5097 -0.1534  0.1535
26049SOL    HW182994   9.329   5.882   7.027 -1.2575  0.3457  1.5915
26049SOL    HW282995   9.261   5.977   6.930  0.4126  0.2408  0.2808
26050SOL     OW82996   8.961   7.872   3.895  0.3427 -0.7223  0.2941
26050SOL    HW182997   8.891   7.905   3.839  2.1580  0.8771 -1.1486
26050SOL    HW282998   8.957   7.777   3.884 -0.7069 -0.5661 -0.8893
26051SOL     OW82999   1.213   3.197   8.602 -0.2796  0.6263  0.0037
26051SOL    HW183000   1.123   3.185   8.634 -1.0060  1.0936 -1.7467
26051SOL    HW283001   1.255   3.113   8.616 -1.0718  0.3103  0.5677
26052SOL     OW83002   0.909   7.126   1.023 -0.3035  0.2191  0.2065
26052SOL    HW183003   0.816   7.123   1.004 -0.1317  0.1488 -0.6544
26052SOL    HW283004   0.914   7.118   1.119 -1.2388  1.7057  0.4115
26053SOL     OW83005   4.409   4.592   7.989 -0.4917 -0.4799 -0.2677
26053SOL    HW183006   4.361   4.532   8.046  0.1759 -1.0081 -0.2632
26053SOL    HW283007   4.472   4.635   8.047 -1.0944  0.3800 -0.2282
26054SOL     OW83008   3.182   3.164   1.975 -0.7536  0.5192  0.0839
26054SOL    HW183009   3.152   3.158   1.884 -3.6551 -3.4258  1.0164
26054SOL    HW283010   3.120   3.223   2.017 -1.7239 -0.5085  0.1514
26055SOL     OW83011   4.194   8.085   2.860  0.2449 -0.1311  0.2533
26055SOL    HW183012   4.172   8.004   2.906  1.3044 -1.3786 -1.3279
26055SOL    HW283013   4.259   8.127   2.916  0.8649 -1.1876  0.3503
26056SOL     OW83014   4.658   6.656   1.655 -0.0931  0.6898  0.1510
26056SOL    HW183015   4.601   6.726   1.623  0.4838  2.1186  2.0734
26056SOL    HW283016   4.603   6.578   1.655 -1.7059  1.7715  0.7709
26057SOL     OW83017   1.566   1.294   6.785  0.0615  0.1901  0.3443
26057SOL    HW183018   1.613   1.352   6.726  0.1598  0.4281  0.6573
26057SOL    HW283019   1.520   1.353   6.845 -1.2484 -0.0060 -0.4203
26058SOL     OW83020   3.530   4.895   0.015  0.3956  0.0975 -0.0910
26058SOL    HW183021   3.614   4.941   0.010  0.8581 -0.7623 -0.3951
26058SOL    HW283022   3.534   4.830  -0.056 -0.2215 -0.4579  0.3721
26059SOL     OW83023   6.843   5.648   4.186  0.4390  0.3085  0.1078
26059SOL    HW183024   6.821   5.577   4.247  2.3635  0.8397  1.5237
26059SOL    HW283025   6.771   5.711   4.195 -0.5729 -0.7711 -0.1122
26060SOL     OW83026   6.807   3.269   2.466 -0.0255  0.1563 -0.0982
26060SOL    HW183027   6.765   3.198   2.418  0.2644 -0.1165  0.0478
26060SOL    HW283028   6.834   3.229   2.549  1.0069  0.1817 -0.4094
26061SOL     OW83029   9.435   0.437   2.274  0.2198  0.3529  0.3649
26061SOL    HW183030   9.351   0.457   2.233  0.5133  0.2043 -0.3253
26061SOL    HW283031   9.485   0.519   2.267 -0.2822  0.8189  1.8592
26062SOL     OW83032   9.662   1.742   8.907 -0.0534 -0.1361  0.4853
26062SOL    HW183033   9.578   1.733   8.952  0.2186  0.0133  1.0400
26062SOL    HW283034   9.689   1.832   8.926  1.4992 -0.9667  2.6095
26063SOL     OW83035   9.645   3.285   9.498  0.2739  0.6347  0.2181
26063SOL    HW183036   9.706   3.227   9.543  0.9971  0.1275 -1.3266
26063SOL    HW283037   9.607   3.339   9.567  1.3644 -0.0532  1.3990
26064SOL     OW83038   5.086   7.531   4.287 -0.0175 -0.3799 -0.5684
26064SOL    HW183039   5.127   7.558   4.369 -0.2567  1.2717 -0.9516
26064SOL    HW283040   5.136   7.454   4.260 -0.3644 -1.3881  1.4391
26065SOL     OW83041   3.604   8.014   5.539 -0.3356 -0.0341  0.6545
26065SOL    HW183042   3.520   8.043   5.576  0.0029  0.9207  0.7023
26065SOL    HW283043   3.603   8.049   5.450  0.8206  1.6850  1.2631
26066SOL     OW83044   4.688   6.171   1.640  0.4311 -0.7263 -0.0306
26066SOL    HW183045   4.626   6.105   1.672  2.2971 -2.3486  0.4049
26066SOL    HW283046   4.710   6.141   1.551  2.1993 -1.4208  0.6059
26067SOL     OW83047   2.410   1.526   5.017 -0.1438 -0.2835  0.0380
26067SOL    HW183048   2.358   1.604   4.997  0.1790 -0.5610 -2.1605
26067SOL    HW283049   2.349   1.453   5.003  0.4275 -0.5450 -1.1983
26068SOL     OW83050   7.045   2.978   1.465 -0.3804  0.1325 -0.1617
26068SOL    HW183051   7.089   3.039   1.405  1.4366  0.6233  1.5701
26068SOL    HW283052   7.104   2.972   1.540 -3.0202  0.3558  2.0800
26069SOL     OW83053   3.607   9.043   7.213 -0.2269 -0.2772  0.1573
26069SOL    HW183054   3.668   8.981   7.252  0.2436 -0.7312 -1.2235
26069SOL    HW283055   3.587   9.105   7.283 -1.0904 -2.2169  1.7195
26070SOL     OW83056   2.797   1.214   9.102 -0.2220 -0.0240  0.1698
26070SOL    HW183057   2.753   1.282   9.154 -1.9969 -1.7889  1.1419
26070SOL    HW283058   2.849   1.165   9.166  1.6431  0.7907 -0.6416
26071SOL     OW83059   4.411   8.024   6.276  0.2804  0.3801 -0.4815
26071SOL    HW183060   4.373   8.015   6.189 -0.9436  0.0179  0.0595
26071SOL    HW283061   4.503   7.999   6.266 -0.1540 -0.9206 -1.4194
26072SOL     OW83062   3.922   5.044   5.040  0.0461  0.3782 -0.2267
26072SOL    HW183063   3.884   4.957   5.037  0.7702  0.0366  0.2987
26072SOL    HW283064   3.927   5.065   5.133  1.2705  0.3578 -0.2791
26073SOL     OW83065   1.906   3.059   2.109 -0.1572 -0.2456  0.3566
26073SOL    HW183066   1.925   3.098   2.024 -0.8628  1.6712  1.0087
26073SOL    HW283067   1.987   3.070   2.159 -0.0272 -0.5567  0.2142
26074SOL     OW83068   1.579   7.989   7.136 -0.6016 -0.0591 -0.0536
26074SOL    HW183069   1.529   7.914   7.105 -1.1052  0.6395 -0.9955
26074SOL    HW283070   1.651   7.998   7.074  0.6186 -0.9424  1.1885
26075SOL     OW83071   7.231   8.468   9.003 -0.3624 -0.4059 -0.1754
26075SOL    HW183072   7.163   8.508   9.058  0.4654 -1.0305  1.3614
26075SOL    HW283073   7.212   8.500   8.915 -2.7010 -0.6196  0.1684
26076SOL     OW83074   6.512   5.245   4.274  0.0738 -0.0764  0.0172
26076SOL    HW183075   6.506   5.340   4.272 -2.1343 -0.1673 -0.3391
26076SOL    HW283076   6.602   5.226   4.250  0.6064  1.9181  0.2746
26077SOL     OW83077   7.204   6.072   3.517 -0.0649  0.1637 -0.2443
26077SOL    HW183078   7.174   6.066   3.608  0.9644 -0.9841  0.0557
26077SOL    HW283079   7.232   5.983   3.495  4.7555  1.2761  0.1847
26078SOL     OW83080   8.247   6.852   5.391  0.5933 -0.7199 -0.0247
26078SOL    HW183081   8.293   6.775   5.425 -0.9527 -1.3625  0.6913
26078SOL    HW283082   8.156   6.823   5.381  0.1178  0.8199 -0.3978
26079SOL     OW83083   1.498   0.560   6.525 -0.0443 -0.3353  0.0237
26079SOL    HW183084   1.534   0.474   6.502  2.2481  0.9701 -1.6555
26079SOL    HW283085   1.545   0.585   6.605  1.1631  0.3841 -0.8852
26080SOL     OW83086   5.937   4.096   4.121 -0.1271 -0.0288 -0.5526
26080SOL    HW183087   5.909   4.014   4.081  0.0820 -0.6753  0.6083
26080SOL    HW283088   5.945   4.077   4.214 -1.4027  1.6795 -0.0469
26081SOL     OW83089   5.725   0.643   3.672  0.0550 -0.0447 -0.3767
26081SOL    HW183090   5.775   0.592   3.609 -0.6612 -2.0650  0.5799
26081SOL    HW283091   5.635   0.610   3.663 -0.2878  0.4971  0.8181
26082SOL     OW83092   9.691   6.334   4.900  0.4890 -0.2884  0.0792
26082SOL    HW183093   9.727   6.341   4.812  0.7977  0.1462  0.2389
26082SOL    HW283094   9.611   6.387   4.897  0.9388  0.4271  0.2838
26083SOL     OW83095   7.989   2.611   7.201 -0.8000 -0.2524  0.0559
26083SOL    HW183096   7.952   2.658   7.126 -2.0748 -2.2210 -0.6535
26083SOL    HW283097   8.045   2.544   7.162  0.2915  0.1030  0.9750
26084SOL     OW83098   8.593   5.590   7.526 -0.2101  0.4634 -0.3046
26084SOL    HW183099   8.658   5.537   7.573 -1.1812  0.4519  1.0905
26084SOL    HW283100   8.509   5.568   7.568 -0.8831  1.7087 -0.9443
26085SOL     OW83101   3.609   1.928   8.938  0.9644  0.0811  0.2925
26085SOL    HW183102   3.664   1.878   8.998  1.7542  0.8911  0.2636
26085SOL    HW283103   3.527   1.879   8.934  1.1189 -0.3133  1.5518
26086SOL     OW83104   4.295   2.305   3.015  0.3035  1.0339 -0.7870
26086SOL    HW183105   4.232   2.266   3.076 -1.3833  1.5583 -2.0965
26086SOL    HW283106   4.315   2.391   3.053 -0.2524  1.1058 -0.6484
26087SOL     OW83107   2.671   3.274   2.183  0.3042  0.2282  0.1041
26087SOL    HW183108   2.663   3.237   2.095  1.4605 -3.0957  1.2026
26087SOL    HW283109   2.581   3.293   2.210 -0.3890 -1.4692 -0.8224
26088SOL     OW83110   0.914   4.587   6.187 -0.5669 -0.2139 -0.0706
26088SOL    HW183111   0.882   4.629   6.267 -1.0555  0.1627 -0.4651
26088SOL    HW283112   0.847   4.604   6.122  0.3571  0.4737 -0.8753
26089SOL     OW83113   2.027   7.708   4.273  0.0154  0.0628 -0.4788
26089SOL    HW183114   1.988   7.626   4.244  1.0347 -0.6491  0.1078
26089SOL    HW283115   2.116   7.685   4.297 -0.4646  0.7500  2.3178
26090SOL     OW83116   5.186   7.783   2.112  0.0654 -0.0296 -0.4676
26090SOL    HW183117   5.203   7.689   2.111  1.3878  0.2033 -0.7141
26090SOL    HW283118   5.116   7.795   2.047  0.7469 -0.6833 -1.3397
26091SOL     OW83119   6.753   7.766   5.357 -0.5224 -0.0841 -0.5534
26091SOL    HW183120   6.686   7.705   5.390 -1.5509  1.6597  0.7189
26091SOL    HW283121   6.704   7.843   5.329  0.6757 -0.1072 -2.9864
26092SOL     OW83122   3.580   3.366   2.590 -0.2207  0.2931  0.3330
26092SOL    HW183123   3.516   3.434   2.612  0.1021 -0.1619  3.1793
26092SOL    HW283124   3.612   3.336   2.675  2.9233 -0.3295 -0.9441
26093SOL     OW83125   6.547   0.995   2.571  0.3031  0.6298 -0.2494
26093SOL    HW183126   6.582   1.080   2.543 -0.5100  0.7183 -1.0110
26093SOL    HW283127   6.538   0.944   2.490 -0.1529  0.1630  0.0882
26094SOL     OW83128   1.117   9.519   2.966 -0.0504 -0.1962  0.4623
26094SOL    HW183129   1.084   9.429   2.970  0.4707 -0.5630 -1.9326
26094SOL    HW283130   1.171   9.528   3.045  0.0614 -2.0583  0.6469
26095SOL     OW83131   7.816   1.458   0.336 -0.4520  0.2810  0.9422
26095SOL    HW183132   7.743   1.397   0.328  0.5520 -0.7782 -1.0690
26095SOL    HW283133   7.779   1.535   0.378 -2.4039 -0.7089  1.1392
26096SOL     OW83134   9.643   8.715   3.619  0.3512 -0.0883 -0.1209
26096SOL    HW183135   9.632   8.725   3.524 -0.8686  0.5320  0.0598
26096SOL    HW283136   9.646   8.805   3.652  1.5430 -0.2914  0.3650
26097SOL     OW83137   1.121   7.889   6.586 -0.3006  0.7706  0.3142
26097SOL    HW183138   1.048   7.937   6.545  0.2209  1.1457 -0.1866
26097SOL    HW283139   1.197   7.944   6.571  0.4002 -0.4242 -0.6531
26098SOL     OW83140   0.113   5.412   6.852  0.6583 -0.9446  0.0798
26098SOL    HW183141   0.130   5.427   6.945 -0.7906  1.6159  0.0196
26098SOL    HW283142   0.026   5.373   6.848 -1.0525  2.4702 -0.1898
26099SOL     OW83143   3.187   8.384   2.387 -0.0878 -0.0192  0.4037
26099SOL    HW183144   3.265   8.414   2.340  0.2622 -2.1734 -0.4988
26099SOL    HW283145   3.126   8.359   2.318 -0.5892 -0.7607  1.0950
26100SOL     OW83146   1.645   0.950   8.717  0.3446 -0.2589  0.1084
26100SOL    HW183147   1.730   0.930   8.754 -0.2997 -0.8646  1.3336
26100SOL    HW283148   1.593   0.980   8.792 -0.0999  1.5327 -0.8598
26101SOL     OW83149   5.859   8.786   8.024 -0.0408 -0.0673 -0.5715
26101SOL    HW183150   5.901   8.764   8.107  0.3512  0.1419 -0.7093
26101SOL    HW283151   5.916   8.747   7.958 -1.3708 -1.9439 -0.6989
26102SOL     OW83152   2.325   9.701   5.425 -0.1895 -0.0845  0.4353
26102SOL    HW183153   2.299   9.790   5.403  0.1603  0.1494  0.9363
26102SOL    HW283154   2.400   9.682   5.369  0.7116  0.5149  1.3845
26103SOL     OW83155   3.262   6.626   6.756  0.2732 -0.5252 -0.1415
26103SOL    HW183156   3.350   6.646   6.789 -0.1448 -1.1211  1.4175
26103SOL    HW283157   3.237   6.546   6.803 -1.5651  0.2818  0.3172
26104SOL     OW83158   8.457   0.433   5.052 -0.1792 -0.2946 -0.0876
26104SOL    HW183159   8.478   0.525   5.036 -1.5116 -0.1289 -1.0310
26104SOL    HW283160   8.512   0.409   5.126  0.5540  1.1198 -0.1327
26105SOL     OW83161   8.874   0.924   8.387 -0.3368  0.2090  0.1665
26105SOL    HW183162   8.779   0.927   8.397 -0.5183  2.3783 -1.3935
26105SOL    HW283163   8.888   0.872   8.308 -0.2407  0.0843  0.2645
26106SOL     OW83164   7.674   4.879   8.699 -0.1860  0.0220  0.7678
26106SOL    HW183165   7.676   4.925   8.615  0.7910  0.6340  1.1175
26106SOL    HW283166   7.637   4.793   8.678  1.1340 -0.2728 -0.5088
26107SOL     OW83167   0.945   9.140   5.335  0.4340  0.1656 -0.2674
26107SOL    HW183168   0.902   9.129   5.251  1.2163  0.5275 -0.7321
26107SOL    HW283169   0.895   9.086   5.396 -1.1390  1.2044 -0.6038
26108SOL     OW83170   5.722   7.343   0.914 -0.2162  0.0931  0.2944
26108SOL    HW183171   5.792   7.281   0.899 -1.2811 -1.0625 -0.0436
26108SOL    HW283172   5.665   7.300   0.978 -1.4133  0.3431 -0.5770
26109SOL     OW83173   8.820   3.721   7.357  0.1153 -0.0147 -0.2618
26109SOL    HW183174   8.803   3.769   7.438 -0.6865 -0.0974 -0.3713
26109SOL    HW283175   8.832   3.630   7.385 -1.2748 -0.2386 -0.3259
26110SOL     OW83176   1.306   8.382   6.376  0.0407 -0.3609 -0.4937
26110SOL    HW183177   1.309   8.351   6.467 -1.6507  0.0456 -0.2679
26110SOL    HW283178   1.260   8.465   6.381 -0.0319 -0.3162 -1.7341
26111SOL     OW83179   6.085   3.546   9.193  0.2723 -0.1271 -0.4230
26111SOL    HW183180   6.020   3.502   9.248 -0.5101  1.1543 -0.2654
26111SOL    HW283181   6.085   3.497   9.111 -1.6788  0.4260 -0.8047
26112SOL     OW83182   0.981   4.805   7.191 -0.0173  0.3990  0.4563
26112SOL    HW183183   0.961   4.751   7.114 -1.7771  2.6632 -0.8309
26112SOL    HW283184   1.062   4.850   7.168  0.0748  0.2094  0.4112
26113SOL     OW83185   5.863   4.580   3.139 -0.0556  0.7983  0.1965
26113SOL    HW183186   5.919   4.595   3.215  1.2342  0.3084 -0.6179
26113SOL    HW283187   5.902   4.632   3.069  0.4477 -0.8962 -0.8462
26114SOL     OW83188   8.409   3.234   1.248 -0.5017 -0.1581  0.6321
26114SOL    HW183189   8.349   3.180   1.299  0.1970 -0.0433  1.6209
26114SOL    HW283190   8.406   3.198   1.160 -2.5754  0.3286  0.4731
26115SOL     OW83191   6.487   3.729   0.085 -0.6150  0.4564 -0.0406
26115SOL    HW183192   6.563   3.765   0.132 -1.0306 -0.1389  1.1447
26115SOL    HW283193   6.523   3.657   0.034 -0.5860 -1.0090  1.9084
26116SOL     OW83194   3.119   2.967   3.556  0.1762  0.0533  0.1048
26116SOL    HW183195   3.133   2.945   3.648 -1.3528 -1.1850  0.0924
26116SOL    HW283196   3.064   3.045   3.558 -1.7845 -1.2605  0.3376
26117SOL     OW83197   1.228   2.536   9.700  0.9090 -0.0607  0.1949
26117SOL    HW183198   1.183   2.620   9.707 -0.4927 -0.5548 -2.0269
26117SOL    HW283199   1.231   2.502   9.790 -0.1872  1.4896  0.8501
26118SOL     OW83200   4.380   4.315   4.137  0.0566  0.0941  0.1120
26118SOL    HW183201   4.369   4.252   4.208 -1.7408 -0.1104 -0.3019
26118SOL    HW283202   4.416   4.263   4.065  0.5281 -0.0056  0.4150
26119SOL     OW83203   5.885   4.920   7.912 -0.0914 -0.1983 -0.0533
26119SOL    HW183204   5.871   4.916   7.817  2.7273  1.2398 -0.6175
26119SOL    HW283205   5.939   4.844   7.931 -0.3300 -0.2663  0.3618
26120SOL     OW83206   7.050   7.276   0.416 -0.1347 -0.0190  0.2823
26120SOL    HW183207   6.976   7.276   0.355 -1.3669 -2.5677  1.5962
26120SOL    HW283208   7.122   7.317   0.367 -1.7513  0.3586 -1.9214
26121SOL     OW83209   1.585   8.521   0.207  0.1969 -0.9095  0.1683
26121SOL    HW183210   1.614   8.453   0.146 -1.9855 -2.6265  0.9142
26121SOL    HW283211   1.510   8.482   0.252  0.5006  1.0337  2.5501
26122SOL     OW83212   9.539   3.863   9.277 -0.0169  0.0113  0.2260
26122SOL    HW183213   9.512   3.933   9.218  0.1920 -0.1683 -0.0840
26122SOL    HW283214   9.609   3.901   9.330  1.5444 -0.5469 -1.3209
26123SOL     OW83215   8.819   8.480   0.960  0.0285  0.2958 -0.4803
26123SOL    HW183216   8.729   8.459   0.936 -0.6609  3.3530 -1.0085
26123SOL    HW283217   8.823   8.466   1.054 -1.1040  0.4198 -0.3992
26124SOL     OW83218   6.987   2.280   9.244  0.1302  0.4584 -0.4617
26124SOL    HW183219   7.028   2.290   9.330 -1.5005 -1.6516  0.6303
26124SOL    HW283220   6.966   2.187   9.237 -4.2243  1.2796 -1.0203
26125SOL     OW83221   3.519   6.581   1.280 -0.1112 -0.1158 -0.0653
26125SOL    HW183222   3.444   6.599   1.223 -0.0313 -0.9707 -0.4493
26125SOL    HW283223   3.521   6.655   1.341 -0.9775  0.1527 -0.3529
26126SOL     OW83224   7.424   8.676   7.849  0.0645  0.4992  0.3059
26126SOL    HW183225   7.400   8.588   7.878  0.6393 -0.0422 -0.8150
26126SOL    HW283226   7.506   8.695   7.896 -0.1475  0.5113  0.6760
26127SOL     OW83227   1.918   5.743   9.678 -0.2327  0.0868 -0.1357
26127SOL    HW183228   1.960   5.660   9.654  0.6519  0.6598 -0.6269
26127SOL    HW283229   1.886   5.729   9.767  1.2963 -0.2751  0.3797
26128SOL     OW83230   0.616   1.770   5.328  0.3532 -0.6336 -0.4973
26128SOL    HW183231   0.573   1.780   5.243 -0.0645  0.5318 -0.1595
26128SOL    HW283232   0.701   1.731   5.307 -0.5089 -2.2127 -1.2616
26129SOL     OW83233   5.223   6.674   2.110 -0.4970 -0.4960 -0.3869
26129SOL    HW183234   5.143   6.626   2.091 -0.7152  0.1639 -1.1871
26129SOL    HW283235   5.277   6.612   2.159 -1.7051 -0.7632  0.6558
26130SOL     OW83236   1.716   2.357   5.899 -0.0726 -0.3120 -0.3715
26130SOL    HW183237   1.783   2.352   5.968 -0.5259 -0.3768  0.0726
26130SOL    HW283238   1.650   2.418   5.934  0.2394  0.5445 -1.2348
26131SOL     OW83239   7.567   7.846   1.196 -0.4599  0.0253  0.2329
26131SOL    HW183240   7.500   7.833   1.129 -0.1508  0.8054 -0.2394
26131SOL    HW283241   7.612   7.926   1.170  0.3018 -0.1920  0.8420
26132SOL     OW83242   6.420   1.587   1.638 -0.1441 -0.2455  0.0552
26132SOL    HW183243   6.396   1.665   1.688 -0.8435  0.0043 -0.6665
26132SOL    HW283244   6.515   1.595   1.626 -0.3319  0.9622 -0.7942
26133SOL     OW83245   3.853   3.138   6.092  1.2957  0.3450  0.0530
26133SOL    HW183246   3.916   3.140   6.165 -0.9542  0.1698  2.1245
26133SOL    HW283247   3.854   3.047   6.062  0.6628 -0.1350  1.3995
26134SOL     OW83248   5.669   9.542   5.859  0.1455  0.0664 -0.1044
26134SOL    HW183249   5.642   9.501   5.941 -0.0014 -0.9460 -0.6408
26134SOL    HW283250   5.588   9.548   5.808  0.5223 -0.9170 -0.8449
26135SOL     OW83251   0.129   5.004   1.892 -0.6239 -0.1701  0.1940
26135SOL    HW183252   0.078   5.065   1.946 -1.2049 -1.8931  1.6963
26135SOL    HW283253   0.198   4.973   1.951  0.0676 -0.5040 -0.7575
26136SOL     OW83254   7.709   8.203   7.657  0.0906  0.0209  0.2282
26136SOL    HW183255   7.795   8.182   7.622 -0.7148 -1.4825 -0.9843
26136SOL    HW283256   7.704   8.156   7.740  0.1419 -0.5965 -0.1127
26137SOL     OW83257   4.326   9.540   4.585  0.1786 -0.1147 -0.2255
26137SOL    HW183258   4.367   9.454   4.592 -0.2075 -0.1812  1.7313
26137SOL    HW283259   4.248   9.525   4.532 -0.1347 -1.0888  0.4845
26138SOL     OW83260   9.649   6.588   2.460  0.6366  0.0038  0.0083
26138SOL    HW183261   9.656   6.580   2.555 -0.1962 -1.3100 -0.0092
26138SOL    HW283262   9.700   6.514   2.426 -1.4081 -1.2933 -0.4481
26139SOL     OW83263   8.874   6.182   5.116  0.1113 -0.2077  0.4330
26139SOL    HW183264   8.860   6.221   5.202 -0.7583  4.1592 -1.4082
26139SOL    HW283265   8.966   6.199   5.097  0.0506 -0.2395  0.1033
26140SOL     OW83266   3.077   5.708   4.175  0.0036 -0.2403  0.6288
26140SOL    HW183267   3.152   5.733   4.122  0.4194 -1.9056  0.3615
26140SOL    HW283268   3.059   5.617   4.148 -0.9795 -0.4650  1.9691
26141SOL     OW83269   2.317   0.997   0.448 -0.4676 -0.5678 -0.1311
26141SOL    HW183270   2.406   0.997   0.411 -0.8477 -1.2766 -1.0964
26141SOL    HW283271   2.322   1.057   0.522  1.0868 -1.4142  0.4911
26142SOL     OW83272   7.952   6.097   5.604  0.2362  0.4591  0.3108
26142SOL    HW183273   8.045   6.088   5.583 -0.1729  0.2484 -1.5764
26142SOL    HW283274   7.949   6.098   5.700  2.2661  1.4982  0.4144
26143SOL     OW83275   5.849   7.933   1.307  0.3471 -0.2438 -0.3657
26143SOL    HW183276   5.860   7.966   1.396  0.2573 -0.1155 -0.4021
26143SOL    HW283277   5.763   7.891   1.307  0.6459 -0.8759 -0.1973
26144SOL     OW83278   5.014   6.868   7.931  0.3948  0.0784  0.3479
26144SOL    HW183279   4.946   6.815   7.974 -1.4441  1.5233 -0.6460
26144SOL    HW283280   5.007   6.845   7.838  2.3151 -0.8185  0.3743
26145SOL     OW83281   7.946   9.575   2.927  0.0878  0.4636  0.7152
26145SOL    HW183282   7.921   9.641   2.862  1.2790  0.2146 -0.0252
26145SOL    HW283283   7.945   9.493   2.878 -1.1536 -0.0665  1.5731
26146SOL     OW83284   8.849   0.439   8.711  0.2061  0.7881 -0.2774
26146SOL    HW183285   8.914   0.477   8.653  1.5840  0.7167  1.1425
26146SOL    HW283286   8.881   0.459   8.799 -1.2209 -0.0617  0.4802
26147SOL     OW83287   1.310   7.920   8.955  0.2983 -0.1094  0.3239
26147SOL    HW183288   1.386   7.869   8.927  0.3677  0.0947  0.1356
26147SOL    HW283289   1.327   8.008   8.921 -1.2194 -0.6296 -1.9765
26148SOL     OW83290   0.180   5.976   2.486 -0.2659  0.6415  0.0723
26148SOL    HW183291   0.103   5.958   2.540 -1.6541  0.8736 -1.7195
26148SOL    HW283292   0.156   6.054   2.436  0.9518  0.4565 -0.8387
26149SOL     OW83293   8.020   3.728   0.867 -0.4035  0.0326 -0.0780
26149SOL    HW183294   8.061   3.802   0.821  0.2331 -0.9146 -1.0947
26149SOL    HW283295   8.087   3.697   0.927 -0.5541  0.0807  0.1138
26150SOL     OW83296   4.616   8.497   4.139 -0.0528  0.2245  0.1976
26150SOL    HW183297   4.562   8.418   4.141 -2.0360  1.4233 -1.5442
26150SOL    HW283298   4.562   8.561   4.093  2.6027  1.7362 -1.0406
26151SOL     OW83299   9.143   8.223   2.185  0.0197 -0.3889  0.3316
26151SOL    HW183300   9.122   8.279   2.259 -0.0264 -1.6312  1.2834
26151SOL    HW283301   9.151   8.284   2.111 -0.3938  0.8194  1.2429
26152SOL     OW83302   9.330   5.342   4.209 -0.0115  0.0622 -0.0989
26152SOL    HW183303   9.345   5.397   4.132  0.3876 -0.6626 -0.5399
26152SOL    HW283304   9.380   5.263   4.193 -3.0075 -1.8425 -0.9302
26153SOL     OW83305   1.635   1.302   7.859 -0.0990  0.0747  0.1260
26153SOL    HW183306   1.703   1.357   7.821 -0.7014  1.0148  0.3577
26153SOL    HW283307   1.553   1.349   7.841 -0.3544  1.2561  3.5925
26154SOL     OW83308   6.440   6.292   7.252 -0.1097  0.1508  0.2419
26154SOL    HW183309   6.433   6.213   7.306 -0.5692 -0.1434 -0.2385
26154SOL    HW283310   6.533   6.313   7.253  0.2252 -1.1207 -0.6230
26155SOL     OW83311   0.762   0.972   0.361 -0.1239  0.2958 -0.6463
26155SOL    HW183312   0.854   0.993   0.377 -0.0545 -0.1156 -0.4971
26155SOL    HW283313   0.715   1.008   0.436  0.3179 -2.5809  1.1600
26156SOL     OW83314   4.465   3.264   1.298 -0.1896  0.1775 -0.2079
26156SOL    HW183315   4.423   3.263   1.212  1.2510 -0.1848 -0.9421
26156SOL    HW283316   4.414   3.326   1.349 -0.2049  1.5223 -1.7766
26157SOL     OW83317   4.100   3.080   2.972  0.0073 -0.2330  0.3138
26157SOL    HW183318   4.029   3.027   2.935  0.3766 -0.4041 -0.1555
26157SOL    HW283319   4.152   3.018   3.022  0.5328 -0.3549 -0.3688
26158SOL     OW83320   3.708   5.223   4.987  0.0306  0.1371 -0.4921
26158SOL    HW183321   3.737   5.229   4.896  1.8403  1.8105  0.1369
26158SOL    HW283322   3.769   5.161   5.028  0.5482  0.9755  0.0328
26159SOL     OW83323   3.201   7.232   1.200 -0.1977 -0.2543 -0.1491
26159SOL    HW183324   3.208   7.234   1.104 -1.8711  1.6950 -0.2987
26159SOL    HW283325   3.113   7.265   1.218 -0.0883 -1.0266  2.0759
26160SOL     OW83326   8.040   7.284   0.758 -0.3929  0.0575 -0.3611
26160SOL    HW183327   7.989   7.348   0.809  0.2467 -0.3227  0.7834
26160SOL    HW283328   8.025   7.310   0.667 -0.2998  1.7378  0.0568
26161SOL     OW83329   3.867   7.127   7.044 -0.4498  0.0233  0.8667
26161SOL    HW183330   3.831   7.058   7.099 -2.3989 -0.2599 -0.6621
26161SOL    HW283331   3.862   7.092   6.955  2.3883  0.5488  0.3986
26162SOL     OW83332   2.543   8.481   7.915  0.1891 -0.0343  0.0804
26162SOL    HW183333   2.462   8.468   7.965  0.0012  2.5032  0.5502
26162SOL    HW283334   2.523   8.552   7.854  1.8237  0.0825 -0.3720
26163SOL     OW83335   2.185   0.548   4.256  0.0997 -0.1671  0.0739
26163SOL    HW183336   2.142   0.562   4.172  2.3135 -0.2520 -1.1404
26163SOL    HW283337   2.239   0.470   4.243  1.2339  0.3904  1.2415
26164SOL     OW83338   6.800   6.995   6.130  0.2656  0.1809 -0.5974
26164SOL    HW183339   6.869   6.986   6.197 -0.2238 -1.6141 -0.2827
26164SOL    HW283340   6.729   7.040   6.175  0.3002 -0.1740 -0.1820
26165SOL     OW83341   0.623   6.094   2.051 -0.2190 -0.1960  0.1198
26165SOL    HW183342   0.712   6.091   2.087  0.7416  1.2585 -1.9054
26165SOL    HW283343   0.589   6.005   2.063  2.0540 -1.1887 -0.2971
26166SOL     OW83344   0.970   3.871   3.811  0.1744 -0.5902  0.0012
26166SOL    HW183345   0.977   3.930   3.886 -0.5676 -2.1957  1.4214
26166SOL    HW283346   1.008   3.919   3.738 -1.3746  2.0337  0.8026
26167SOL     OW83347   3.986   3.668   4.376 -0.0918  0.1523 -0.1786
26167SOL    HW183348   4.032   3.690   4.295 -0.6393 -0.3224 -0.6220
26167SOL    HW283349   3.946   3.583   4.359 -0.9927  0.4774  0.2622
26168SOL     OW83350   4.170   5.441   9.588  0.5354 -0.2948  0.2410
26168SOL    HW183351   4.093   5.426   9.533  0.2005 -0.4162  0.7331
26168SOL    HW283352   4.134   5.471   9.672  1.1009  1.4748 -0.1156
26169SOL     OW83353   4.293   2.344   6.805 -0.0195 -0.3645 -0.2291
26169SOL    HW183354   4.283   2.429   6.850  1.0162 -0.6547  0.6168
26169SOL    HW283355   4.381   2.349   6.766  0.4521 -1.3955  0.6568
26170SOL     OW83356   6.668   6.319   2.425  0.1512 -0.2245 -0.1100
26170SOL    HW183357   6.632   6.407   2.408  1.2222 -0.0549 -1.8415
26170SOL    HW283358   6.756   6.336   2.458  0.6400 -0.6193 -1.1601
26171SOL     OW83359   4.620   7.699   9.366  0.4006  1.0748  0.3043
26171SOL    HW183360   4.550   7.653   9.320  0.1770  0.1792  1.5158
26171SOL    HW283361   4.641   7.773   9.309 -0.5539  0.5588 -0.7479
26172SOL     OW83362   1.331   1.110   7.725  0.3581 -0.2756  0.0359
26172SOL    HW183363   1.358   1.023   7.695  0.4150  0.2395 -1.5070
26172SOL    HW283364   1.235   1.107   7.724  0.3425 -0.0539 -0.9615
26173SOL     OW83365   5.613   8.934   1.536 -0.3574  0.2921 -0.2886
26173SOL    HW183366   5.675   8.963   1.469  0.2265 -0.0011  0.1195
26173SOL    HW283367   5.625   8.839   1.541  1.3708  0.5515  1.9344
26174SOL     OW83368   8.328   7.320   0.385 -0.1271  0.1198  0.0513
26174SOL    HW183369   8.355   7.316   0.293 -2.0648  0.6933 -0.6026
26174SOL    HW283370   8.240   7.283   0.386 -1.8033  3.6559  0.8875
26175SOL     OW83371   1.470   0.839   9.372 -0.1025  0.8260  0.3135
26175SOL    HW183372   1.402   0.809   9.312 -0.4158  2.4020 -0.1415
26175SOL    HW283373   1.442   0.806   9.458 -0.1733 -0.5560 -0.2049
26176SOL     OW83374   5.068   4.360   5.435  0.8266 -0.2928 -0.4471
26176SOL    HW183375   5.038   4.269   5.440  0.3768 -0.0799  2.5395
26176SOL    HW283376   5.091   4.382   5.525 -1.7530  3.4364 -0.5089
26177SOL     OW83377   4.146   3.318   9.326 -0.3385 -0.2732 -0.2274
26177SOL    HW183378   4.117   3.270   9.248  0.0712 -0.1009 -0.4898
26177SOL    HW283379   4.111   3.406   9.315 -1.0518 -0.4901  0.2334
26178SOL     OW83380   8.529   6.631   5.747  0.2272 -0.0618 -0.2658
26178SOL    HW183381   8.506   6.555   5.694 -0.9574 -1.2697  1.8167
26178SOL    HW283382   8.445   6.669   5.772  0.5031 -1.2803  3.0206
26179SOL     OW83383   0.399   7.420   4.150  0.2265  0.1489  0.3428
26179SOL    HW183384   0.406   7.413   4.055  0.7436  2.6999  0.1399
26179SOL    HW283385   0.390   7.513   4.167  1.3884 -0.1203  2.8941
26180SOL     OW83386   7.848   5.382   5.320 -0.0893 -0.2182  0.8905
26180SOL    HW183387   7.883   5.300   5.284 -2.2249 -0.7460 -0.1615
26180SOL    HW283388   7.794   5.355   5.393 -1.9381  0.0422 -0.3173
26181SOL     OW83389   1.173   2.660   2.425  0.4264  0.6611  0.4546
26181SOL    HW183390   1.266   2.640   2.424 -0.0795 -2.0494 -0.2159
26181SOL    HW283391   1.157   2.711   2.345  1.1654  0.3287  0.0946
26182SOL     OW83392   4.710   6.221   1.919  0.1977 -0.1517 -0.2948
26182SOL    HW183393   4.618   6.244   1.929  0.0442 -0.8867  0.0515
26182SOL    HW283394   4.720   6.202   1.825 -0.0080 -0.0875 -0.3303
26183SOL     OW83395   4.804   3.216   1.793 -0.2357 -0.0560  0.1531
26183SOL    HW183396   4.892   3.180   1.800 -0.4525 -1.0099 -1.3816
26183SOL    HW283397   4.753   3.171   1.861  0.3319  0.1050  0.6898
26184SOL     OW83398   5.266   8.454   7.312 -0.2807  0.2142 -0.7921
26184SOL    HW183399   5.302   8.365   7.310 -1.5565 -0.3832 -3.8409
26184SOL    HW283400   5.336   8.509   7.279  0.6562  0.4941  1.4892
26185SOL     OW83401   5.439   6.217   3.087  0.0854  0.6999  0.4332
26185SOL    HW183402   5.462   6.307   3.066 -2.3570  1.0816 -0.9142
26185SOL    HW283403   5.441   6.213   3.183  0.4157  2.1270  0.4946
26186SOL     OW83404   2.469   2.871   0.537 -0.0582 -0.0031  0.8666
26186SOL    HW183405   2.512   2.902   0.457 -0.6399 -2.6255 -0.5602
26186SOL    HW283406   2.540   2.834   0.590  0.1449  0.6415  1.0677
26187SOL     OW83407   5.038   9.491   8.352  0.4898 -0.2837 -0.3751
26187SOL    HW183408   5.094   9.437   8.296  1.5529  1.1921 -0.8073
26187SOL    HW283409   5.086   9.498   8.434  0.3096 -0.0980 -0.2853
26188SOL     OW83410   7.420   1.226   4.197  0.0242 -0.3709 -0.5604
26188SOL    HW183411   7.365   1.259   4.126  1.4300 -0.7685 -1.9039
26188SOL    HW283412   7.406   1.131   4.195 -0.3598 -0.3331  0.0915
26189SOL     OW83413   3.975   3.518   2.343  0.0242  0.1287  0.3523
26189SOL    HW183414   3.895   3.559   2.309  0.4570  0.7522  0.0640
26189SOL    HW283415   3.945   3.435   2.380 -0.9788  0.9879  1.5627
26190SOL     OW83416   0.725   1.613   3.564  0.1655  0.1342  0.0516
26190SOL    HW183417   0.642   1.566   3.555  0.6620 -0.9196  0.7235
26190SOL    HW283418   0.726   1.643   3.655  0.1253  0.9324 -0.2059
26191SOL     OW83419   0.573   4.109   2.227  0.0068  0.1559 -0.2096
26191SOL    HW183420   0.499   4.105   2.167 -0.0922  0.4499 -0.1065
26191SOL    HW283421   0.556   4.040   2.292 -0.5647  0.7298  0.2598
26192SOL     OW83422   6.938   9.487   8.041 -0.0726  0.0078 -0.2250
26192SOL    HW183423   6.985   9.560   8.002  0.9143  0.5137  1.7531
26192SOL    HW283424   6.940   9.418   7.974  0.4227  1.2104 -1.4950
26193SOL     OW83425   2.051   5.342   1.364 -0.5507  0.0223 -0.6672
26193SOL    HW183426   2.013   5.347   1.451  0.6978  1.2936 -0.1474
26193SOL    HW283427   2.145   5.354   1.378 -0.1916 -0.8372 -2.0902
26194SOL     OW83428   0.913   2.806   5.576 -0.1059 -0.1059 -0.5982
26194SOL    HW183429   0.932   2.827   5.484 -1.3967  1.0740 -0.6356
26194SOL    HW283430   0.846   2.737   5.571 -0.6672  0.4262 -0.5720
26195SOL     OW83431   4.768   4.350   0.179  0.0007 -0.0013  0.1754
26195SOL    HW183432   4.685   4.367   0.135 -0.5117  1.4356  1.5812
26195SOL    HW283433   4.810   4.436   0.184  1.4921 -0.6673 -0.3051
26196SOL     OW83434   7.818   4.685   1.946 -0.1211  0.3590  0.6566
26196SOL    HW183435   7.835   4.662   1.855  0.4302  0.1713  0.8022
26196SOL    HW283436   7.905   4.685   1.987 -0.3596  0.4993  1.1659
26197SOL     OW83437   9.279   7.356   9.544  0.0201  0.2536  0.0459
26197SOL    HW183438   9.265   7.395   9.457  0.7042 -3.3347 -1.8765
26197SOL    HW283439   9.357   7.401   9.577  0.5125  0.8638 -1.7827
26198SOL     OW83440   5.263   4.299   9.220  0.1840  0.5005  0.1285
26198SOL    HW183441   5.308   4.248   9.153 -1.3667 -0.4319 -0.2379
26198SOL    HW283442   5.284   4.254   9.302 -0.7140 -0.4132 -0.1296
26199SOL     OW83443   8.766   7.291   1.043 -0.1026 -0.3336 -0.2161
26199SOL    HW183444   8.686   7.340   1.063 -0.8495 -1.3223 -0.7204
26199SOL    HW283445   8.829   7.358   1.017 -0.5446  0.5258  0.8236
26200SOL     OW83446   4.145   7.874   3.036  0.0068 -0.0229 -0.3375
26200SOL    HW183447   4.196   7.895   3.114 -0.3326  1.4687 -0.4873
26200SOL    HW283448   4.059   7.848   3.069  0.5300 -1.5589 -0.1321
26201SOL     OW83449   9.705   6.326   8.941 -0.2555 -0.7588  0.2262
26201SOL    HW183450   9.641   6.338   8.872  0.3956 -2.1312 -0.6515
26201SOL    HW283451   9.680   6.244   8.984 -0.6232  0.0415  1.6308
26202SOL     OW83452   2.704   6.851   9.632 -0.5738  0.5689 -0.4768
26202SOL    HW183453   2.703   6.795   9.554 -0.2367  0.7118 -0.5842
26202SOL    HW283454   2.796   6.857   9.656 -0.6922  0.3745  0.0453
26203SOL     OW83455   8.739   9.652   7.018 -0.3609 -0.0819 -0.2013
26203SOL    HW183456   8.825   9.691   7.037 -1.6751  2.8735  0.2741
26203SOL    HW283457   8.757   9.558   7.009  2.7168  0.2585  0.9872
26204SOL     OW83458   9.408   6.539   2.150 -0.3798 -0.5155 -0.0193
26204SOL    HW183459   9.407   6.571   2.240  0.1368 -0.0403 -0.1793
26204SOL    HW283460   9.386   6.615   2.096  0.1215 -0.6002 -0.3495
26205SOL     OW83461   8.080   0.847   2.731 -0.4228 -0.3094 -0.3446
26205SOL    HW183462   8.040   0.934   2.735 -1.9678 -0.9351 -1.3472
26205SOL    HW283463   8.119   0.844   2.643 -0.1126 -0.5288 -0.2001
26206SOL     OW83464   9.633   3.178   8.618  0.2489 -0.3413 -0.0673
26206SOL    HW183465   9.648   3.130   8.537 -1.7813 -0.4280 -0.4582
26206SOL    HW283466   9.633   3.110   8.686 -0.7918 -0.6673 -0.3771
26207SOL     OW83467   3.765   5.060   3.903  0.1061  0.2072 -0.4678
26207SOL    HW183468   3.812   5.016   3.832 -1.3662 -2.0440 -0.1542
26207SOL    HW283469   3.787   5.009   3.981 -0.2469  1.1536  0.2715
26208SOL     OW83470   2.227   5.633   1.488  0.0606 -0.1047 -0.1835
26208SOL    HW183471   2.268   5.549   1.469  0.9704  0.1197  0.7075
26208SOL    HW283472   2.182   5.620   1.571  2.1286  0.8841  1.1805
26209SOL     OW83473   0.231   2.980   7.238 -0.3847 -0.0833 -0.0601
26209SOL    HW183474   0.175   2.998   7.313  0.0309  0.9813  0.0065
26209SOL    HW283475   0.199   2.897   7.203 -1.9438  0.4612  0.0309
26210SOL     OW83476   3.998   2.250   5.367 -0.4020 -0.2800 -0.4158
26210SOL    HW183477   3.924   2.190   5.361 -0.9482  0.3932 -0.4783
26210SOL    HW283478   4.050   2.216   5.440 -1.5754  0.1038  0.6371
26211SOL     OW83479   7.568   7.111   7.327  0.2539 -0.3870 -0.3247
26211SOL    HW183480   7.523   7.181   7.278 -1.8394 -1.7188 -0.4183
26211SOL    HW283481   7.499   7.049   7.349  1.5219 -0.9775  2.4130
26212SOL     OW83482   3.185   9.162   7.069  0.0539 -0.0423  0.4154
26212SOL    HW183483   3.111   9.222   7.084 -1.4097 -1.9408  1.2226
26212SOL    HW283484   3.257   9.219   7.041 -1.7350  1.8891 -0.5412
26213SOL     OW83485   2.527   2.109   8.458 -0.1261  0.3787 -0.1596
26213SOL    HW183486   2.467   2.038   8.437  1.7845 -1.5451  0.4859
26213SOL    HW283487   2.602   2.095   8.401  2.1102 -0.7657  2.7751
26214SOL     OW83488   4.685   2.529   0.711  0.1917  0.1087  0.3739
26214SOL    HW183489   4.755   2.464   0.706 -0.6152 -0.7162 -0.9273
26214SOL    HW283490   4.668   2.540   0.805  0.4110 -1.4936  0.6203
26215SOL     OW83491   0.145   8.807   6.555 -0.2305 -0.8153  0.2908
26215SOL    HW183492   0.066   8.855   6.528  0.1888 -0.6955 -0.7794
26215SOL    HW283493   0.111   8.731   6.603 -0.9195  0.2064  1.4912
26216SOL     OW83494   4.990   3.540   4.071 -0.1015  0.1810  0.3521
26216SOL    HW183495   5.013   3.530   3.979 -0.5543  0.2959  0.2246
26216SOL    HW283496   4.940   3.622   4.075  0.2277  0.3711  0.7603
26217SOL     OW83497   7.170   0.193   5.523 -0.5678  0.4050  0.1646
26217SOL    HW183498   7.152   0.178   5.430 -0.6769  1.8194 -0.0680
26217SOL    HW283499   7.119   0.125   5.568 -0.3464 -0.4353 -0.8018
26218SOL     OW83500   6.667   0.692   3.398 -0.1763  0.1607  0.2221
26218SOL    HW183501   6.686   0.599   3.410 -0.4066  0.3542  2.3407
26218SOL    HW283502   6.753   0.734   3.396 -0.0938 -0.0187 -0.0773
26219SOL     OW83503   3.063   5.228   5.668  0.1956  0.0286  0.0420
26219SOL    HW183504   3.113   5.260   5.593 -1.5076  3.1170  0.0425
26219SOL    HW283505   3.081   5.291   5.738 -1.7762 -0.1601  0.7762
26220SOL     OW83506   5.465   5.410   7.567 -0.7454 -0.1784  0.6752
26220SOL    HW183507   5.397   5.438   7.629 -1.4246 -1.0906  0.3558
26220SOL    HW283508   5.521   5.351   7.618 -0.4731  0.1797  0.7986
26221SOL     OW83509   7.448   4.578   0.654  0.4482  0.4450 -0.1005
26221SOL    HW183510   7.444   4.674   0.648 -0.8077  0.4411  0.2856
26221SOL    HW283511   7.477   4.561   0.744 -2.4755  0.5096  0.9692
26222SOL     OW83512   5.680   9.581   2.890 -0.0689 -0.0422  0.0927
26222SOL    HW183513   5.727   9.503   2.862  2.3984  0.8122  1.5848
26222SOL    HW283514   5.595   9.548   2.919 -0.2483 -1.7267 -2.1236
26223SOL     OW83515   1.078   6.794   3.255  0.3097 -0.5290 -0.0460
26223SOL    HW183516   1.010   6.740   3.296 -0.2411  0.9041  1.0114
26223SOL    HW283517   1.113   6.846   3.327 -0.2847  1.6574 -1.2592
26224SOL     OW83518   2.322   4.311   6.205 -0.1400  0.4692 -0.2986
26224SOL    HW183519   2.410   4.335   6.235 -0.3751  1.0446 -0.0364
26224SOL    HW283520   2.336   4.250   6.133  0.4979  1.2867 -0.8930
26225SOL     OW83521   7.280   2.794   9.539  0.0216  0.0970  0.0515
26225SOL    HW183522   7.281   2.853   9.463  1.2606  1.1755  0.8600
26225SOL    HW283523   7.372   2.779   9.559 -0.2437  0.7431  1.9881
26226SOL     OW83524   7.452   0.407   1.929 -0.0161  0.3913 -0.3042
26226SOL    HW183525   7.362   0.437   1.921  0.3030  1.0906 -1.5477
26226SOL    HW283526   7.484   0.448   2.009 -0.6611  0.4851 -0.0894
26227SOL     OW83527   8.415   1.767   0.521  0.4580  0.3666  0.0161
26227SOL    HW183528   8.467   1.766   0.602 -0.4690  0.7592  0.6330
26227SOL    HW283529   8.333   1.725   0.545  1.2804 -2.3716 -1.5561
26228SOL     OW83530   5.577   0.270   5.643 -0.3697  0.0355 -0.1664
26228SOL    HW183531   5.652   0.241   5.695  0.0833  1.5069  0.0626
26228SOL    HW283532   5.525   0.322   5.704 -1.5977 -0.9623 -0.3273
26229SOL     OW83533   0.528   0.047   4.462  0.2179  0.1118 -0.7573
26229SOL    HW183534   0.527   0.140   4.438  2.2350  0.8651  1.6552
26229SOL    HW283535   0.584   0.006   4.395  0.3925  0.8705 -1.0883
26230SOL     OW83536   8.802   4.753   0.025 -0.3119 -0.4095  0.5149
26230SOL    HW183537   8.746   4.683  -0.010  0.4566  0.1400 -2.0869
26230SOL    HW283538   8.754   4.834   0.005  0.8600  0.0101 -0.7719
26231SOL     OW83539   0.682   4.377   0.379 -0.5827  0.4920 -0.1612
26231SOL    HW183540   0.740   4.406   0.450 -2.5297  1.5975  1.0994
26231SOL    HW283541   0.619   4.320   0.422  0.0470 -1.4486 -1.6689
26232SOL     OW83542   2.514   2.032   6.672  0.1372  0.0030 -0.3273
26232SOL    HW183543   2.542   2.090   6.601  1.3770 -0.9529 -0.6542
26232SOL    HW283544   2.574   2.050   6.744  0.8642 -1.1833 -0.6017
26233SOL     OW83545   0.936   8.459   6.053 -0.3011  0.0357  0.0534
26233SOL    HW183546   0.846   8.481   6.029 -0.0344  0.7768 -0.2985
26233SOL    HW283547   0.989   8.492   5.981  0.0967 -2.2314 -0.7583
26234SOL     OW83548   8.227   2.398   0.842  0.0234  0.3734  0.2641
26234SOL    HW183549   8.225   2.306   0.868  0.5280  0.5836  1.0588
26234SOL    HW283550   8.150   2.408   0.787  1.4740 -1.2320 -2.2763
26235SOL     OW83551   7.805   4.375   0.134  0.0559 -0.0038 -0.0974
26235SOL    HW183552   7.791   4.369   0.040  1.6999 -0.0076 -0.3722
26235SOL    HW283553   7.854   4.457   0.146  0.7811 -0.5303  0.6225
26236SOL     OW83554   7.569   7.273   5.103  0.0842  0.0276  0.4603
26236SOL    HW183555   7.558   7.325   5.024 -2.0314 -1.9859 -0.6732
26236SOL    HW283556   7.664   7.273   5.118  0.5119  0.8503 -1.8024
26237SOL     OW83557   1.313   0.474   5.581 -0.5558 -0.5117  0.3305
26237SOL    HW183558   1.391   0.420   5.582 -1.7450 -2.3040  0.2230
26237SOL    HW283559   1.242   0.415   5.557 -1.7466  1.3642 -1.0881
26238SOL     OW83560   6.789   7.421   4.191 -0.1420 -0.3963  0.1249
26238SOL    HW183561   6.716   7.464   4.234 -1.0953  0.6907 -2.3996
26238SOL    HW283562   6.783   7.330   4.219 -1.1650  0.0724  1.5786
26239SOL     OW83563   0.614   8.768   6.997 -0.6500  0.5754  0.0895
26239SOL    HW183564   0.537   8.716   7.020  0.0114 -0.7113 -0.4950
26239SOL    HW283565   0.615   8.768   6.902 -0.1006  0.8483  0.0925
26240SOL     OW83566   7.608   4.885   9.244  0.3217 -0.4148  0.1002
26240SOL    HW183567   7.665   4.812   9.268  0.8360  0.1418  0.6106
26240SOL    HW283568   7.654   4.929   9.172 -0.5283 -1.2356 -0.9801
26241SOL     OW83569   8.442   9.606   3.420 -0.4507  0.7026 -0.1793
26241SOL    HW183570   8.420   9.624   3.329  1.1128 -0.6236 -0.8785
26241SOL    HW283571   8.387   9.531   3.443  1.0273 -0.6816 -0.9508
26242SOL     OW83572   6.989   5.548   0.300  0.5667  0.1595 -0.1197
26242SOL    HW183573   7.076   5.517   0.326 -0.3370 -1.4078  1.1861
26242SOL    HW283574   6.937   5.468   0.288 -0.0270  0.8993 -3.6078
26243SOL     OW83575   7.844   5.790   7.428 -0.6339 -0.8756  0.1455
26243SOL    HW183576   7.813   5.825   7.511 -0.2429 -1.5824  0.5923
26243SOL    HW283577   7.932   5.826   7.418 -0.9941 -0.1185 -0.3736
26244SOL     OW83578   9.143   4.971   0.533  0.0808  0.1803 -0.3341
26244SOL    HW183579   9.083   5.034   0.574 -1.4549 -0.4531 -1.4894
26244SOL    HW283580   9.180   4.922   0.606  1.1771  2.2459  0.5836
26245SOL     OW83581   7.797   8.783   5.550  0.0363 -0.6405  0.0206
26245SOL    HW183582   7.859   8.803   5.480  2.2587 -1.7831  1.5069
26245SOL    HW283583   7.829   8.700   5.586 -1.2937 -0.3381  2.0587
26246SOL     OW83584   0.634   8.935   1.416 -0.1571  0.4938  0.0950
26246SOL    HW183585   0.722   8.940   1.453 -0.1971  0.7130  0.1621
26246SOL    HW283586   0.620   8.842   1.398 -0.1092  0.3949  0.5629
26247SOL     OW83587   6.252   1.905   3.897  0.3103  0.1097 -1.0043
26247SOL    HW183588   6.287   1.856   3.823  2.4021  1.4020 -0.9249
26247SOL    HW283589   6.189   1.966   3.858  0.4712 -0.0728 -1.5618
26248SOL     OW83590   8.268   0.942   7.343 -0.2367 -0.0090 -0.0513
26248SOL    HW183591   8.250   0.913   7.254  1.9926  1.3764 -1.0317
26248SOL    HW283592   8.361   0.926   7.356 -0.3637  0.4646  1.8018
26249SOL     OW83593   6.255   9.393   6.063 -0.0170  0.3385  0.2561
26249SOL    HW183594   6.344   9.358   6.055 -0.3196 -1.3655  2.8762
26249SOL    HW283595   6.225   9.360   6.148 -2.7412  1.8384 -0.0301
26250SOL     OW83596   1.775   0.355   5.233 -0.2374  0.2934  0.3020
26250SOL    HW183597   1.774   0.363   5.137  1.2975 -0.5050  0.1828
26250SOL    HW283598   1.749   0.442   5.264  0.2104  0.8696 -0.8437
26251SOL     OW83599   0.500   6.720   2.014  0.2757  0.6886 -0.2444
26251SOL    HW183600   0.435   6.673   2.066  1.8552 -0.4979  0.7545
26251SOL    HW283601   0.584   6.697   2.054  1.3353  2.0979 -1.5306
26252SOL     OW83602   6.777   1.003   4.574  0.1305  0.0779 -0.6164
26252SOL    HW183603   6.711   1.071   4.561  0.2148  0.1448 -0.6984
26252SOL    HW283604   6.851   1.049   4.614 -0.9336 -0.5188  2.2722
26253SOL     OW83605   4.642   5.952   6.914  0.1529 -0.4646  0.6294
26253SOL    HW183606   4.678   5.885   6.972 -0.5362 -0.3394  1.2140
26253SOL    HW283607   4.693   6.031   6.935 -1.9698  0.3925  3.2824
26254SOL     OW83608   8.089   5.222   7.766  0.9998 -0.0633  0.0128
26254SOL    HW183609   8.055   5.220   7.677  1.2097  0.8135 -0.1001
26254SOL    HW283610   8.098   5.130   7.791  0.4679 -0.3119 -0.6869
26255SOL     OW83611   0.961   1.928   4.284  0.0833 -0.0776 -0.0085
26255SOL    HW183612   0.934   1.861   4.347  2.1345 -1.2853 -0.3112
26255SOL    HW283613   1.051   1.905   4.262  0.0951  1.4858 -1.8801
26256SOL     OW83614   2.528   2.831   7.261 -0.2392  0.1304 -0.2960
26256SOL    HW183615   2.606   2.880   7.286  0.4563 -0.6597 -0.8790
26256SOL    HW283616   2.552   2.739   7.273 -1.5255 -0.0985  0.7737
26257SOL     OW83617   2.421   7.481   9.239 -0.7253  0.9305  0.4795
26257SOL    HW183618   2.379   7.563   9.263  0.6390  1.3262  1.7010
26257SOL    HW283619   2.401   7.422   9.312  0.3161  0.9603  0.8115
26258SOL     OW83620   5.976   6.595   7.647 -0.7476 -0.3309  0.2522
26258SOL    HW183621   5.901   6.571   7.701  0.2312  0.1595  1.9327
26258SOL    HW283622   6.010   6.512   7.615 -1.3385 -0.6454  0.4286
26259SOL     OW83623   8.673   7.175   8.024  0.6185 -0.1893  0.3911
26259SOL    HW183624   8.758   7.185   7.982  1.4871  0.8841  2.3014
26259SOL    HW283625   8.677   7.230   8.102 -1.6001 -0.6208  0.8946
26260SOL     OW83626   0.679   3.451   3.221  0.1683  0.0957  0.3862
26260SOL    HW183627   0.584   3.456   3.229  0.1132 -1.2663  0.8272
26260SOL    HW283628   0.700   3.507   3.146 -0.9079  0.8838  0.6506
26261SOL     OW83629   4.380   1.739   5.449 -0.0128  0.0799  0.2716
26261SOL    HW183630   4.446   1.716   5.384  1.1003  1.0374  1.0230
26261SOL    HW283631   4.321   1.799   5.404  0.5443  0.4524  0.0297
26262SOL     OW83632   9.627   7.116   5.162 -0.0371  0.5230  0.1333
26262SOL    HW183633   9.649   7.091   5.252 -0.2239  2.0709  0.6328
26262SOL    HW283634   9.642   7.210   5.159 -2.3811  0.9248 -0.7472
26263SOL     OW83635   3.968   6.780   8.557  0.7179 -0.1444 -0.4565
26263SOL    HW183636   3.996   6.836   8.629  0.7930  0.0687 -0.6519
26263SOL    HW283637   3.873   6.787   8.555  0.6816 -0.4724 -0.1176
26264SOL     OW83638   4.915   7.684   4.488 -0.0551 -0.2294  0.0841
26264SOL    HW183639   4.921   7.602   4.537  1.5687  0.1443  0.5859
26264SOL    HW283640   4.899   7.657   4.397 -1.0521 -1.0165  0.4846
26265SOL     OW83641   3.943   8.564   3.960  0.2968  0.2407 -0.6451
26265SOL    HW183642   3.924   8.607   3.877  0.1950 -0.7090 -1.1215
26265SOL    HW283643   4.036   8.542   3.955  0.0988 -0.5767 -0.8738
26266SOL     OW83644   1.722   8.738   6.439 -0.3649  0.0798 -0.1081
26266SOL    HW183645   1.653   8.801   6.419  0.6193  0.5921 -2.2592
26266SOL    HW283646   1.689   8.654   6.405 -0.2370  0.1768 -0.4759
26267SOL     OW83647   0.665   9.273   7.483 -0.6170  0.2564 -0.3008
26267SOL    HW183648   0.707   9.275   7.397 -0.2772 -1.0288 -0.1819
26267SOL    HW283649   0.705   9.345   7.531  1.3224 -0.7722 -0.2737
26268SOL     OW83650   2.166   9.166   5.228  0.4569 -0.0755  0.2834
26268SOL    HW183651   2.076   9.196   5.216 -0.3037 -1.5336  1.8449
26268SOL    HW283652   2.163   9.073   5.207  1.3317 -0.3895  1.4411
26269SOL     OW83653   0.023   2.767   1.322  0.0832  0.8322  0.0176
26269SOL    HW183654   0.106   2.723   1.304  1.5035  3.1671  0.3278
26269SOL    HW283655   0.022   2.841   1.261 -0.9404  1.8054  1.1645
26270SOL     OW83656   6.514   7.037   2.478  0.0336 -0.0304  0.3497
26270SOL    HW183657   6.503   6.958   2.531 -1.6686  0.2463  0.4600
26270SOL    HW283658   6.582   7.087   2.523 -0.6476 -0.2790  1.7208
26271SOL     OW83659   6.774   5.630   6.201  0.5517 -0.0032  0.0048
26271SOL    HW183660   6.841   5.566   6.176 -0.7867 -1.4558  0.0244
26271SOL    HW283661   6.735   5.593   6.280 -0.3523  0.7886 -0.0609
26272SOL     OW83662   8.246   5.350   3.089  0.0704 -0.1217  0.3950
26272SOL    HW183663   8.284   5.264   3.106 -2.2289 -1.3419 -0.2125
26272SOL    HW283664   8.193   5.338   3.010  0.5260  2.1446 -0.3284
26273SOL     OW83665   4.311   3.331   5.390  0.0315  0.4379  0.3866
26273SOL    HW183666   4.294   3.239   5.371  0.9866  0.4919 -0.8859
26273SOL    HW283667   4.230   3.376   5.364  0.7389  0.3156 -2.3041
26274SOL     OW83668   4.623   6.764   9.677 -0.3298 -0.0111 -0.6894
26274SOL    HW183669   4.557   6.698   9.698 -0.7767  0.6273 -0.0316
26274SOL    HW283670   4.577   6.848   9.687  1.2053  0.5912  2.4320
26275SOL     OW83671   8.208   6.810   6.349  0.8155  0.4064 -0.2968
26275SOL    HW183672   8.117   6.781   6.350  1.6960 -2.7886  1.4216
26275SOL    HW283673   8.218   6.855   6.433  0.7691  1.0468 -0.6294
26276SOL     OW83674   4.065   6.593   6.759  0.0748 -0.1343  0.8669
26276SOL    HW183675   4.160   6.603   6.764  0.0021  1.3755 -0.2975
26276SOL    HW283676   4.037   6.592   6.850  1.0811  0.8717  1.2117
26277SOL     OW83677   3.047   3.826   0.610 -0.2688  0.1396 -0.5615
26277SOL    HW183678   3.132   3.794   0.580 -0.0828  0.7681 -0.7345
26277SOL    HW283679   3.034   3.907   0.561 -1.0318 -0.0231 -0.6301
26278SOL     OW83680   7.988   7.496   5.611  0.5370  0.2771  0.1783
26278SOL    HW183681   7.930   7.564   5.577  0.0721 -1.0343 -1.8645
26278SOL    HW283682   7.928   7.426   5.640  1.0413  0.0261  0.6351
26279SOL     OW83683   3.056   6.576   2.889 -0.1026  0.0745  0.0115
26279SOL    HW183684   3.033   6.547   2.801  0.6723  0.2709 -0.2696
26279SOL    HW283685   3.151   6.561   2.894 -0.0264  0.7059  0.5652
26280SOL     OW83686   8.294   2.261   6.611 -0.5647 -0.1951 -0.4396
26280SOL    HW183687   8.218   2.319   6.620  0.0497  0.6135 -0.2818
26280SOL    HW283688   8.294   2.236   6.518 -0.5169  0.5332 -0.6474
26281SOL     OW83689   0.644   3.836   6.434 -0.3962 -0.0152  0.1382
26281SOL    HW183690   0.562   3.799   6.468 -0.1987 -1.0282 -0.4413
26281SOL    HW283691   0.654   3.919   6.480 -2.1614  0.5102 -0.3487
26282SOL     OW83692   4.316   9.253   6.321  0.2903  0.2626 -0.2015
26282SOL    HW183693   4.345   9.166   6.293  0.8965  0.2630  0.3890
26282SOL    HW283694   4.221   9.249   6.319  0.3194 -0.1963 -0.8398
26283SOL     OW83695   2.900   1.945   0.751 -0.1092 -0.3650 -0.1331
26283SOL    HW183696   2.835   1.923   0.819  1.1033  0.9870  1.5528
26283SOL    HW283697   2.983   1.913   0.787  0.9314  2.4418  0.1676
26284SOL     OW83698   7.390   5.521   2.148 -0.1114 -0.2908 -0.0864
26284SOL    HW183699   7.306   5.481   2.169 -0.0804 -0.8068 -0.9050
26284SOL    HW283700   7.456   5.461   2.183 -0.0693 -0.8684 -1.1029
26285SOL     OW83701   0.046   4.494   1.605  0.1815 -0.0399 -0.0168
26285SOL    HW183702   0.015   4.503   1.514  1.7203 -4.4591 -1.2548
26285SOL    HW283703  -0.033   4.475   1.655 -0.3763 -0.6506 -1.0815
26286SOL     OW83704   9.177   6.528   4.458 -0.4226  0.2300 -0.5907
26286SOL    HW183705   9.199   6.561   4.371  1.1627 -1.0512 -0.7214
26286SOL    HW283706   9.261   6.519   4.503 -1.3003  2.7003  1.8239
26287SOL     OW83707   8.462   4.490   9.183  0.0217  0.0708 -0.4260
26287SOL    HW183708   8.385   4.434   9.193  0.1231  0.2117  1.6585
26287SOL    HW283709   8.426   4.579   9.177 -0.0074  0.1664  0.8579
26288SOL     OW83710   1.721   6.180   1.027 -0.2302 -0.0579  0.2710
26288SOL    HW183711   1.773   6.166   1.106 -0.5867 -2.4942  0.1460
26288SOL    HW283712   1.774   6.240   0.974  1.2192 -0.4075  1.2702
26289SOL     OW83713   1.366   5.388   9.701 -0.3888  0.3229  0.0925
26289SOL    HW183714   1.388   5.467   9.750  0.8987  0.8540 -1.2724
26289SOL    HW283715   1.434   5.325   9.725 -1.0600 -0.1753  0.7067
26290SOL     OW83716   3.372   6.730   7.705 -0.0458 -0.4593 -0.0262
26290SOL    HW183717   3.354   6.813   7.749 -0.6108 -1.0987  0.9772
26290SOL    HW283718   3.410   6.756   7.621 -0.5898  0.8227  0.0930
26291SOL     OW83719   6.316   2.961   0.376 -0.4885  0.5208 -0.0922
26291SOL    HW183720   6.252   2.954   0.446 -0.1374 -1.3333  0.1163
26291SOL    HW283721   6.357   3.047   0.388 -0.2602  0.1584  2.1544
26292SOL     OW83722   8.975   8.795   0.835 -0.3340  0.5327  0.3761
26292SOL    HW183723   8.978   8.748   0.918  0.6057  0.2180  0.1771
26292SOL    HW283724   8.995   8.886   0.858 -0.0609  0.4434  0.4925
26293SOL     OW83725   5.855   5.515   2.131  0.0187  0.0615 -0.0146
26293SOL    HW183726   5.858   5.559   2.216  0.6574 -1.1153  0.6118
26293SOL    HW283727   5.886   5.581   2.069 -1.2499  1.2045  0.5276
26294SOL     OW83728   9.175   1.760   4.732 -0.4357 -0.1469  0.2590
26294SOL    HW183729   9.187   1.738   4.640  2.1255  0.3834  0.3890
26294SOL    HW283730   9.081   1.747   4.748 -0.6232 -2.1056 -1.9004
26295SOL     OW83731   3.194   5.420   5.792 -0.2637 -0.7658 -0.3329
26295SOL    HW183732   3.272   5.417   5.737 -0.0076  1.7312 -0.2046
26295SOL    HW283733   3.226   5.443   5.879 -1.1544  1.2328 -0.4699
26296SOL     OW83734   2.781   3.384   4.579  0.6136  0.4928  0.4282
26296SOL    HW183735   2.789   3.421   4.491  3.0506 -1.1828 -0.1205
26296SOL    HW283736   2.798   3.291   4.568 -0.8107 -0.0701  2.4524
26297SOL     OW83737   9.044   8.362   5.794 -0.5670 -0.6305 -0.3614
26297SOL    HW183738   9.061   8.275   5.758 -2.4507 -0.6060 -1.3816
26297SOL    HW283739   9.034   8.347   5.888 -0.6242 -1.4773 -0.4928
26298SOL     OW83740   9.490   4.356   0.412  0.3606  0.0761  0.3111
26298SOL    HW183741   9.586   4.356   0.405  0.3346 -0.5459 -0.0801
26298SOL    HW283742   9.459   4.337   0.324 -0.0974 -0.6738  0.6189
26299SOL     OW83743   1.425   0.315   3.137 -0.5298 -0.5763 -0.3551
26299SOL    HW183744   1.364   0.241   3.140 -0.6485 -0.4853  2.4071
26299SOL    HW283745   1.369   0.392   3.134 -0.4960 -0.5509 -0.3331
26300SOL     OW83746   3.577   6.765   8.264  0.0889 -0.3799  0.0453
26300SOL    HW183747   3.516   6.761   8.337 -1.9196  2.7770 -1.2285
26300SOL    HW283748   3.525   6.739   8.188  1.6482 -1.8834 -0.5994
26301SOL     OW83749   5.141   2.532   6.691 -0.3314 -0.4465 -0.2409
26301SOL    HW183750   5.228   2.552   6.655  0.9118 -0.7081  2.3560
26301SOL    HW283751   5.083   2.534   6.616  2.1818 -1.8949 -2.4177
26302SOL     OW83752   7.239   3.882   1.202 -0.3717 -0.7059 -0.0743
26302SOL    HW183753   7.316   3.831   1.180  0.8703  1.3478 -0.8209
26302SOL    HW283754   7.166   3.820   1.201  0.8668 -2.1975 -2.0690
26303SOL     OW83755   0.325   5.284   5.822  0.3852 -0.4265  0.0522
26303SOL    HW183756   0.341   5.274   5.916  0.3437  0.2835  0.1382
26303SOL    HW283757   0.413   5.294   5.784  0.3174  1.2407  0.2593
26304SOL     OW83758   4.732   5.985   7.386  0.2346  0.4904  0.1156
26304SOL    HW183759   4.637   5.993   7.382  0.1806 -0.4064 -0.7659
26304SOL    HW283760   4.764   6.067   7.349 -0.1839  0.9086  0.6617
26305SOL     OW83761   4.254   0.435   8.954 -0.2410 -0.0180  0.1599
26305SOL    HW183762   4.221   0.401   9.037 -0.5368  0.0206  0.0601
26305SOL    HW283763   4.176   0.444   8.899 -0.0761  0.1654 -0.0475
26306SOL     OW83764   9.231   1.642   0.745  0.1739 -0.1927  0.5866
26306SOL    HW183765   9.165   1.586   0.786  0.6746 -2.3790 -1.3950
26306SOL    HW283766   9.179   1.707   0.696 -0.7359 -2.7155 -2.0973
26307SOL     OW83767   5.844   1.828   5.251 -0.4407 -0.2608 -0.4626
26307SOL    HW183768   5.795   1.852   5.329 -1.1204 -1.0557 -0.6411
26307SOL    HW283769   5.926   1.878   5.258 -0.5274 -0.2615  0.7082
26308SOL     OW83770   6.795   4.374   4.475 -0.2728 -0.6114 -0.3777
26308SOL    HW183771   6.806   4.463   4.509  0.1032 -1.3207  1.4883
26308SOL    HW283772   6.741   4.384   4.397  1.4546  1.4533 -1.4056
26309SOL     OW83773   5.913   9.685   7.370  0.1976  0.4454 -0.0842
26309SOL    HW183774   5.964   9.606   7.388 -0.2379  0.0260 -0.6387
26309SOL    HW283775   5.917   9.736   7.451  0.6789 -0.0336  0.1997
26310SOL     OW83776   9.447   4.271   6.720  0.1574 -0.4876 -0.1876
26310SOL    HW183777   9.417   4.325   6.646 -2.0229  0.9796  1.6297
26310SOL    HW283778   9.531   4.309   6.745 -0.0107  0.2543 -0.7107
26311SOL     OW83779   3.899   1.068   8.228  0.0522  0.3805 -0.1203
26311SOL    HW183780   3.931   1.136   8.168  0.2251  0.6524  0.2776
26311SOL    HW283781   3.977   1.017   8.250 -0.0693  0.0807 -0.3812
26312SOL     OW83782   7.939   7.006   0.446 -0.2577 -0.4425 -0.4801
26312SOL    HW183783   7.883   7.009   0.524 -1.3655 -1.0867 -1.2204
26312SOL    HW283784   7.981   6.920   0.450  0.7882  0.0706  0.1173
26313SOL     OW83785   7.355   9.289   3.166  0.0555 -0.0467 -1.2659
26313SOL    HW183786   7.412   9.216   3.140 -0.3898 -0.4805 -1.0395
26313SOL    HW283787   7.415   9.363   3.176  0.4610 -0.2757 -1.9019
26314SOL     OW83788   2.168   2.515   8.230 -0.7099 -0.0244  0.0819
26314SOL    HW183789   2.115   2.446   8.190  1.2834 -1.4978 -0.1462
26314SOL    HW283790   2.160   2.589   8.170 -0.8919 -0.8918 -0.9911
26315SOL     OW83791   5.754   2.186   3.658  0.0593  0.0197  0.1999
26315SOL    HW183792   5.671   2.225   3.686  0.5220  1.1037  0.1367
26315SOL    HW283793   5.777   2.125   3.728  0.7512  2.0295  1.8188
26316SOL     OW83794   8.472   6.233   6.175 -0.1136 -0.4490  0.2760
26316SOL    HW183795   8.445   6.233   6.267 -1.9424 -0.0398 -0.2121
26316SOL    HW283796   8.520   6.315   6.164 -0.7139 -0.0381  0.6608
26317SOL     OW83797   2.657   6.436   4.590  0.1787 -0.3217  0.0867
26317SOL    HW183798   2.640   6.505   4.526  2.6529  0.3518  0.0207
26317SOL    HW283799   2.581   6.435   4.647 -1.0611  0.6591 -1.4820
26318SOL     OW83800   0.628   9.366   6.144  0.2447  0.0044  0.2240
26318SOL    HW183801   0.545   9.412   6.152  0.3450  0.6694 -1.9033
26318SOL    HW283802   0.625   9.298   6.212 -1.8390  0.2738  0.4530
26319SOL     OW83803   5.029   8.393   0.270  0.5523  0.7915 -0.0595
26319SOL    HW183804   5.063   8.438   0.347 -1.4426  1.0106  0.7539
26319SOL    HW283805   5.063   8.303   0.277 -2.4588 -0.3163  3.1810
26320SOL     OW83806   0.665   0.841   7.435  0.0142 -0.0112  0.0095
26320SOL    HW183807   0.623   0.792   7.505 -0.3524  0.3192  0.0260
26320SOL    HW283808   0.684   0.776   7.367 -0.9206 -0.0960 -0.1776
26321SOL     OW83809   2.052   7.937   2.322 -0.2942 -0.7341  0.2445
26321SOL    HW183810   1.965   7.960   2.288  0.4531  1.3140 -0.4164
26321SOL    HW283811   2.088   7.876   2.257 -0.1376  0.6640 -1.0270
26322SOL     OW83812   1.155   4.484   8.605 -0.2744  0.8107  0.3530
26322SOL    HW183813   1.203   4.559   8.569  0.0263  0.8565  0.8496
26322SOL    HW283814   1.210   4.409   8.585 -0.3688  0.7711  0.2391
26323SOL     OW83815   2.378   2.583   9.114  0.0514 -0.5698 -0.0431
26323SOL    HW183816   2.366   2.490   9.134 -0.1481 -0.4314  0.4935
26323SOL    HW283817   2.346   2.629   9.192  1.2597 -0.0962  0.2003
26324SOL     OW83818   7.484   2.580   6.289 -0.3890  0.0776 -0.0332
26324SOL    HW183819   7.401   2.598   6.243  0.0164 -0.0127 -0.8164
26324SOL    HW283820   7.544   2.646   6.255 -0.2838  0.5062  0.9627
26325SOL     OW83821   4.674   5.970   9.373 -0.1373  0.4910 -0.0975
26325SOL    HW183822   4.632   6.017   9.301  0.3962 -0.5569 -1.1209
26325SOL    HW283823   4.685   5.881   9.341  1.0316  0.2442  0.9011
26326SOL     OW83824   8.941   3.923   6.665 -0.0951  0.0477  0.0228
26326SOL    HW183825   8.896   3.936   6.748 -1.2116  0.2052 -0.5837
26326SOL    HW283826   8.921   3.832   6.641  1.1207 -0.3478  0.4282
26327SOL     OW83827   1.748   8.265   0.002 -0.1663  0.5866  0.2121
26327SOL    HW183828   1.820   8.326   0.014  1.3196 -1.1818  0.7256
26327SOL    HW283829   1.758   8.201   0.072 -2.1750  0.2071  0.2223
26328SOL     OW83830   5.641   9.100   3.860  0.2487  0.2204 -0.6850
26328SOL    HW183831   5.667   9.056   3.941 -0.5267  0.1055 -0.4916
26328SOL    HW283832   5.598   9.032   3.808 -0.5465  0.6233 -0.5764
26329SOL     OW83833   2.901   8.922   5.807 -0.4132  0.4815 -0.1582
26329SOL    HW183834   2.852   8.940   5.888  1.8499  2.4153  0.9001
26329SOL    HW283835   2.978   8.873   5.836  1.5887  3.1177 -0.7059
26330SOL     OW83836   6.526   3.258   5.778 -0.1277 -0.0687  0.1133
26330SOL    HW183837   6.609   3.212   5.770  0.5697  1.1935 -0.1695
26330SOL    HW283838   6.502   3.250   5.870  0.1659 -0.6497  0.1451
26331SOL     OW83839   4.393   8.202   5.476  0.1542  0.0374 -0.6939
26331SOL    HW183840   4.325   8.258   5.513 -2.0357 -3.6206  1.3791
26331SOL    HW283841   4.345   8.135   5.427  2.4610 -1.1228 -1.5359
26332SOL     OW83842   1.401   3.571   7.663 -0.2784 -0.3971  0.4671
26332SOL    HW183843   1.406   3.665   7.678  0.6822  0.0250 -2.0068
26332SOL    HW283844   1.480   3.536   7.705 -1.5468 -0.4585  3.0228
26333SOL     OW83845   7.190   5.055   7.680 -0.5356 -0.4883  0.7070
26333SOL    HW183846   7.280   5.060   7.711 -0.8102  0.1696  1.4319
26333SOL    HW283847   7.194   5.091   7.591  0.0699 -1.3708  0.3651
26334SOL     OW83848   3.382   9.626   2.908 -0.4922  0.7601  0.1791
26334SOL    HW183849   3.325   9.677   2.851 -2.8194 -1.5257  0.2367
26334SOL    HW283850   3.471   9.654   2.886 -1.4363  1.8887 -2.5868
26335SOL     OW83851   4.354   0.413   2.124  0.0540  0.0287 -0.0997
26335SOL    HW183852   4.432   0.413   2.178  0.0391 -0.3482 -0.0736
26335SOL    HW283853   4.358   0.495   2.074 -0.2572  0.6858  0.9278
26336SOL     OW83854   8.078   9.405   6.260 -0.2715 -0.1169  0.4485
26336SOL    HW183855   8.142   9.362   6.317 -0.3010 -0.1881  0.4277
26336SOL    HW283856   8.120   9.488   6.236 -0.6613  0.3714  1.3725
26337SOL     OW83857   9.514   5.107   4.242 -0.0506 -0.2386  0.0161
26337SOL    HW183858   9.596   5.090   4.195 -0.3097 -1.8505  0.1033
26337SOL    HW283859   9.542   5.134   4.329  0.4010 -0.3519 -0.0913
26338SOL     OW83860   6.507   0.788   8.602 -0.3687  0.0865  0.2082
26338SOL    HW183861   6.438   0.809   8.539  0.2707  0.7520 -0.2875
26338SOL    HW283862   6.541   0.704   8.572 -0.1809  0.3189 -0.2346
26339SOL     OW83863   7.278   3.378   1.399 -0.6578  0.5114 -0.8673
26339SOL    HW183864   7.254   3.468   1.377 -1.3374  0.2757 -1.0955
26339SOL    HW283865   7.280   3.377   1.495  2.0775  1.4761 -0.8375
26340SOL     OW83866   1.574   6.450   2.506  0.1097  0.2317 -0.1922
26340SOL    HW183867   1.652   6.396   2.519 -1.0679 -1.1628  1.4222
26340SOL    HW283868   1.501   6.389   2.512 -1.1412  1.5499 -1.4387
26341SOL     OW83869   1.364   6.563   8.802 -0.8286  0.4676  0.1290
26341SOL    HW183870   1.397   6.486   8.756 -0.1796 -0.7638  2.5148
26341SOL    HW283871   1.275   6.574   8.770 -1.1855 -1.7137  0.2499
26342SOL     OW83872   4.951   9.180   6.019  0.0528  0.3174  0.1652
26342SOL    HW183873   4.873   9.210   5.972  0.1910 -0.1817 -0.4018
26342SOL    HW283874   4.917   9.127   6.091 -0.1249 -0.7936 -0.7121
26343SOL     OW83875   4.664   3.571   9.464 -0.1381  0.3697 -0.4375
26343SOL    HW183876   4.634   3.546   9.377 -0.2532 -0.5924 -0.1355
26343SOL    HW283877   4.731   3.506   9.486 -2.1717 -1.2844  1.3826
26344SOL     OW83878   6.758   0.952   8.638 -0.1666  0.1066  0.2504
26344SOL    HW183879   6.751   1.017   8.708 -1.0118  1.1365 -0.7330
26344SOL    HW283880   6.671   0.913   8.633  0.3057 -1.0370  0.7472
26345SOL     OW83881   0.850   8.880   5.964  0.3881  0.0038 -0.1918
26345SOL    HW183882   0.844   8.806   6.025 -2.3661 -1.2180 -1.7699
26345SOL    HW283883   0.766   8.925   5.972  1.2693  1.8221 -0.7035
26346SOL     OW83884   8.451   1.323   7.305 -0.5152  0.0595  0.3250
26346SOL    HW183885   8.380   1.260   7.291  0.4577 -1.2493  1.0361
26346SOL    HW283886   8.510   1.279   7.366  0.9372  1.0852 -0.2860
26347SOL     OW83887   4.768   6.828   8.965  0.9858  0.3170  0.0938
26347SOL    HW183888   4.691   6.850   9.018  0.7499  0.1897 -0.1977
26347SOL    HW283889   4.735   6.768   8.898  1.3214  0.3331 -0.0880
26348SOL     OW83890   9.410   8.162   9.090 -0.5480 -0.1731  0.0979
26348SOL    HW183891   9.432   8.069   9.096  3.1395  0.5577  0.2509
26348SOL    HW283892   9.392   8.188   9.180 -1.7781 -0.7279  0.0325
26349SOL     OW83893   0.981   3.744   0.289 -0.6544  0.1077 -0.1169
26349SOL    HW183894   0.926   3.712   0.360  0.7996  1.0538  1.4945
26349SOL    HW283895   1.020   3.664   0.252 -1.1204 -0.3571  0.3671
26350SOL     OW83896   4.642   6.394   8.712  0.3805 -0.5197  0.2380
26350SOL    HW183897   4.581   6.420   8.781 -0.4733 -2.1004  0.1319
26350SOL    HW283898   4.709   6.463   8.711 -1.2796  1.1647  0.4971
26351SOL     OW83899   7.218   2.182   7.123  0.0678  0.0811 -0.0942
26351SOL    HW183900   7.144   2.150   7.071  0.0207 -1.6011  0.9416
26351SOL    HW283901   7.195   2.272   7.146 -0.2863  0.6016 -2.2414
26352SOL     OW83902   2.611   0.214   9.601  0.3985 -0.0159  0.3474
26352SOL    HW183903   2.575   0.274   9.535  0.3048 -0.9528 -0.4708
26352SOL    HW283904   2.602   0.262   9.683  0.1262  1.0095 -0.2577
26353SOL     OW83905   1.064   6.647   4.830  0.4734  0.4772  0.1114
26353SOL    HW183906   1.060   6.555   4.804  0.1995  0.6273 -0.3904
26353SOL    HW283907   0.974   6.670   4.852  0.8903 -0.0159  2.5650
26354SOL     OW83908   0.306   0.365   3.289  0.0536  0.2924  0.5955
26354SOL    HW183909   0.222   0.332   3.321  0.6044  0.8463  2.7954
26354SOL    HW283910   0.306   0.458   3.313  1.2538  0.3173  0.5688
26355SOL     OW83911   6.265   9.575   0.565  0.3181 -0.1871 -0.0752
26355SOL    HW183912   6.209   9.497   0.570  3.0136 -2.2127  1.6402
26355SOL    HW283913   6.354   9.540   0.568  1.7025  2.9199 -1.2215
26356SOL     OW83914   6.948   0.816   3.916  0.1516 -0.2416  0.0361
26356SOL    HW183915   6.898   0.810   3.835 -0.4050 -0.5049  0.3986
26356SOL    HW283916   7.033   0.777   3.894  1.2232  2.5409 -1.3489
26357SOL     OW83917   7.145   7.987   3.745 -0.8531  0.3329 -0.1150
26357SOL    HW183918   7.084   7.946   3.807 -1.8969  1.8132 -0.1102
26357SOL    HW283919   7.167   7.917   3.684 -2.3568 -0.3387  0.0495
26358SOL     OW83920   6.028   0.833   4.451  0.1875 -0.1816 -0.1144
26358SOL    HW183921   6.116   0.840   4.487 -0.2951  0.3267  0.9822
26358SOL    HW283922   5.977   0.898   4.498 -0.5255  0.3433 -1.5481
26359SOL     OW83923   6.541   2.964   4.859  0.0950  0.2067 -0.1377
26359SOL    HW183924   6.579   3.050   4.879 -1.0639  0.3188  1.9135
26359SOL    HW283925   6.464   2.959   4.916  1.8179 -3.4187  2.2570
26360SOL     OW83926   3.689   3.859   1.476  0.3277 -0.1456 -0.0987
26360SOL    HW183927   3.619   3.910   1.518 -0.0333 -1.0661  0.4537
26360SOL    HW283928   3.736   3.923   1.423  0.6217  1.0019  1.4771
26361SOL     OW83929   2.479   6.997   9.039  0.3981 -0.1295 -0.2269
26361SOL    HW183930   2.392   6.967   9.014  0.0405 -0.5481  1.3635
26361SOL    HW283931   2.521   6.918   9.074  0.6417  0.5203  0.9771
26362SOL     OW83932   2.046   8.131   8.420 -0.7824 -0.1990 -0.1344
26362SOL    HW183933   1.959   8.157   8.450 -0.4073 -0.2123  0.9911
26362SOL    HW283934   2.033   8.045   8.379 -1.5802  0.5636 -1.5571
26363SOL     OW83935   0.078   0.505   4.612 -0.1078  0.3703  0.4327
26363SOL    HW183936   0.075   0.469   4.523  2.0713 -2.7531  1.4626
26363SOL    HW283937   0.005   0.567   4.615 -2.7816 -2.3122 -2.3059
26364SOL     OW83938   4.164   2.248   1.604  0.0054  0.6486  0.1947
26364SOL    HW183939   4.213   2.167   1.613 -1.5462 -0.3640  0.0235
26364SOL    HW283940   4.082   2.222   1.561  0.2872  2.6210 -1.7498
26365SOL     OW83941   2.224   4.504   2.733  0.0409 -0.4323  0.1589
26365SOL    HW183942   2.172   4.503   2.653 -2.1878  2.3115  1.4078
26365SOL    HW283943   2.188   4.435   2.787 -1.2194  0.3370  0.3332
26366SOL     OW83944   6.985   6.057   4.394 -0.0963  0.2159  0.2626
26366SOL    HW183945   7.014   6.112   4.466 -0.0546  0.6379 -0.0734
26366SOL    HW283946   7.030   5.973   4.407  0.6180  0.5902  0.2122
26367SOL     OW83947   1.702   9.264   5.736  0.2338  0.1231  0.0039
26367SOL    HW183948   1.744   9.235   5.655 -2.7335 -1.0936 -1.2098
26367SOL    HW283949   1.653   9.342   5.710 -0.2313  0.0922  0.7842
26368SOL     OW83950   1.251   1.491   8.895  0.0812 -0.1524  0.2219
26368SOL    HW183951   1.200   1.473   8.974  0.7179 -0.9015  0.4807
26368SOL    HW283952   1.305   1.567   8.918 -1.8697  1.5774 -0.5262
26369SOL     OW83953   2.603   4.919   4.669 -0.4635 -0.7529 -0.3055
26369SOL    HW183954   2.698   4.930   4.677 -0.5839  2.4036 -1.7700
26369SOL    HW283955   2.593   4.835   4.623  1.4914 -1.8499  1.0884
26370SOL     OW83956   7.152   8.665   7.290  0.2864 -0.3420  0.4735
26370SOL    HW183957   7.170   8.577   7.257 -0.9488 -1.1758  1.8950
26370SOL    HW283958   7.224   8.683   7.350  0.3358 -0.5511  0.4774
26371SOL     OW83959   0.177   3.333   9.256 -0.0473 -0.2600 -0.2222
26371SOL    HW183960   0.108   3.277   9.290  0.5016 -1.6503 -1.3199
26371SOL    HW283961   0.161   3.337   9.162  1.3419 -0.5836 -0.4923
26372SOL     OW83962   6.277   2.860   7.785  0.0986  0.1711 -0.1661
26372SOL    HW183963   6.298   2.767   7.793 -0.2792  0.1260  0.3245
26372SOL    HW283964   6.205   2.874   7.846 -2.6534 -0.0637 -3.1012
26373SOL     OW83965   8.461   9.430   0.947 -0.2854 -0.8744  0.1116
26373SOL    HW183966   8.503   9.513   0.924 -0.8905 -0.5795  0.0269
26373SOL    HW283967   8.511   9.364   0.900  0.3092 -0.5750  0.3121
26374SOL     OW83968   4.573   1.679   8.317 -0.6819  0.3060 -0.0119
26374SOL    HW183969   4.594   1.771   8.327 -0.4656  0.2723 -0.1502
26374SOL    HW283970   4.478   1.677   8.306 -0.7433  0.4720  0.4474
26375SOL     OW83971   4.976   9.517   5.245  0.1827  0.9505 -0.7668
26375SOL    HW183972   4.926   9.577   5.189 -1.7009  1.7709  1.6207
26375SOL    HW283973   4.934   9.432   5.233 -0.1110  1.0900 -0.7425
26376SOL     OW83974   7.135   9.361   0.188  0.3681 -0.4596  0.0198
26376SOL    HW183975   7.182   9.374   0.105 -0.5015 -0.3973 -0.4789
26376SOL    HW283976   7.159   9.273   0.215  0.6018 -0.5091 -0.3328
26377SOL     OW83977   1.383   8.477   0.004  0.3453 -0.1983 -0.1577
26377SOL    HW183978   1.374   8.571  -0.011  0.7362  0.1414  1.5007
26377SOL    HW283979   1.467   8.454  -0.037  0.2289  0.1623 -0.6069
26378SOL     OW83980   0.680   6.388   8.667  0.1882 -0.1923 -0.0194
26378SOL    HW183981   0.727   6.336   8.732  0.4216 -0.4500 -0.3848
26378SOL    HW283982   0.615   6.437   8.717  1.0414  0.3924  0.5312
26379SOL     OW83983   1.040   5.527   3.058  0.0730  0.1675  0.3432
26379SOL    HW183984   1.115   5.486   3.014  0.3231  2.1625 -1.2623
26379SOL    HW283985   1.073   5.550   3.145  1.7778  1.9900 -0.6919
26380SOL     OW83986   6.228   4.731   3.679 -0.1945 -0.3960 -0.1865
26380SOL    HW183987   6.217   4.824   3.696 -0.3369 -0.2408 -1.0947
26380SOL    HW283988   6.138   4.697   3.676 -0.2001 -0.3300 -1.0650
26381SOL     OW83989   5.697   4.211   5.920 -0.1754 -0.0690  0.1303
26381SOL    HW183990   5.637   4.205   5.846 -0.5144 -0.1696  0.4092
26381SOL    HW283991   5.778   4.246   5.883 -0.8508  1.3993  0.0124
26382SOL     OW83992   8.262   8.607   1.606  0.1938 -0.4931 -0.3784
26382SOL    HW183993   8.261   8.661   1.685 -1.1783 -0.0649 -0.6672
26382SOL    HW283994   8.242   8.667   1.535 -1.5460 -1.3842 -0.6908
26383SOL     OW83995   1.476   0.872   7.651 -0.4629  0.2153 -0.3592
26383SOL    HW183996   1.420   0.795   7.643 -2.8259  1.8936 -1.2445
26383SOL    HW283997   1.515   0.883   7.565 -1.3839  0.8591 -0.7092
26384SOL     OW83998   1.339   4.522   6.529 -0.0170  0.4591  0.0704
26384SOL    HW183999   1.274   4.538   6.461  0.0317  0.9430  0.1346
26384SOL    HW284000   1.312   4.439   6.568  0.0885  0.0642 -0.6884
26385SOL     OW84001   0.520   8.261   9.404  0.1317  0.1579  0.1856
26385SOL    HW184002   0.467   8.313   9.343 -2.3159 -2.4896 -0.1825
26385SOL    HW284003   0.595   8.233   9.352  0.8787  2.2233  0.0555
26386SOL     OW84004   1.732   0.570   8.458 -0.2541 -0.2008 -0.2476
26386SOL    HW184005   1.699   0.562   8.369  1.0440  2.7413 -1.1474
26386SOL    HW284006   1.706   0.658   8.485  4.1422  1.2744 -0.0111
26387SOL     OW84007   7.885   0.424   5.674  0.0551  0.6368  0.3253
26387SOL    HW184008   7.864   0.381   5.757 -0.2611  0.2264  0.0364
26387SOL    HW284009   7.806   0.475   5.653  0.7199  2.0067  1.0643
26388SOL     OW84010   5.648   1.144   0.341  0.0111  0.1424 -0.0207
26388SOL    HW184011   5.653   1.050   0.327 -0.7358  0.3103 -1.8262
26388SOL    HW284012   5.555   1.164   0.337  0.1801  0.9913  0.0354
26389SOL     OW84013   0.111   6.687   8.017  0.6042 -0.2260  0.4719
26389SOL    HW184014   0.094   6.665   7.925 -0.6327  0.3302  0.5391
26389SOL    HW284015   0.170   6.762   8.013  2.1431 -1.4142  0.1905
26390SOL     OW84016   1.804   7.932   1.094  0.0042 -0.4981  0.4052
26390SOL    HW184017   1.747   7.887   1.032 -0.4059  0.9801 -0.3307
26390SOL    HW284018   1.888   7.885   1.088 -0.0251 -0.3756 -1.2999
26391SOL     OW84019   1.298   8.159   3.773  1.0720  0.2144 -0.4548
26391SOL    HW184020   1.376   8.139   3.824  0.3097  0.6897  0.9481
26391SOL    HW284021   1.226   8.155   3.836  0.1978  1.6470 -1.2999
26392SOL     OW84022   3.144   3.062   5.032  0.0656 -0.0316 -0.5173
26392SOL    HW184023   3.102   3.067   4.946  1.2502 -2.2578 -1.2981
26392SOL    HW284024   3.122   2.975   5.065  1.1425  0.0888  0.6098
26393SOL     OW84025   0.696   4.617   2.838 -0.1225 -0.1780  0.3955
26393SOL    HW184026   0.691   4.536   2.788  0.2266 -0.4226  0.7413
26393SOL    HW284027   0.723   4.684   2.775  1.0398 -0.6283  0.3958
26394SOL     OW84028   2.797   6.013   1.734  0.3901  0.2085 -0.1134
26394SOL    HW184029   2.863   6.063   1.686  0.4194 -0.9997 -1.3986
26394SOL    HW284030   2.786   6.060   1.817  3.1367  0.2527  0.3197
26395SOL     OW84031   3.565   6.162   1.060  0.3966 -0.1815 -0.0134
26395SOL    HW184032   3.575   6.068   1.072 -0.3370 -0.3973 -0.9204
26395SOL    HW284033   3.654   6.196   1.055  0.6851 -1.0390 -1.0782
26396SOL     OW84034   0.204   1.082   8.253 -0.0539  0.6408  0.1713
26396SOL    HW184035   0.149   1.004   8.248  0.4376  0.2568  0.6514
26396SOL    HW284036   0.215   1.110   8.162 -0.7448  0.5193  0.0446
26397SOL     OW84037   0.120   2.772   4.372 -1.2562 -0.1087  0.0251
26397SOL    HW184038   0.165   2.696   4.410 -1.4642 -0.2588 -0.0255
26397SOL    HW284039   0.130   2.841   4.437  0.2404  0.2734 -0.5879
26398SOL     OW84040   3.865   3.095   4.772 -0.1616  0.0695  0.5268
26398SOL    HW184041   3.874   3.122   4.864  0.5302  2.7745 -0.2504
26398SOL    HW284042   3.822   3.009   4.777  1.3959 -0.6794  3.4163
26399SOL     OW84043   3.089   5.028   0.231  0.3692  0.6443 -0.0661
26399SOL    HW184044   3.055   5.023   0.142 -0.8352  0.9219  0.3613
26399SOL    HW284045   3.180   5.056   0.221 -0.0133  1.5340 -1.1651
26400SOL     OW84046   8.770   9.330   3.694  0.8901 -0.0730 -0.3536
26400SOL    HW184047   8.847   9.352   3.747  1.7659 -0.6933 -1.3193
26400SOL    HW284048   8.768   9.235   3.693 -0.3494 -0.0688  0.2673
26401SOL     OW84049   5.517   9.192   8.829  0.0100 -0.2215  0.0287
26401SOL    HW184050   5.520   9.223   8.738 -0.8698 -0.1230  0.0299
26401SOL    HW284051   5.556   9.264   8.879 -1.5277  0.6885 -0.0316
26402SOL     OW84052   5.208   0.128   7.734  0.3312 -0.2425 -0.3757
26402SOL    HW184053   5.191   0.162   7.822  0.9968 -0.7831 -0.0205
26402SOL    HW284054   5.253   0.199   7.689  1.9681 -0.7018  0.4485
26403SOL     OW84055   1.778   1.207   0.945 -0.1880  0.1714  0.0053
26403SOL    HW184056   1.729   1.289   0.954 -1.5946 -0.6467  0.1308
26403SOL    HW284057   1.768   1.164   1.030  0.2060 -0.3110 -0.1864
26404SOL     OW84058   0.369   5.804   7.507 -0.2060  0.3550  0.0723
26404SOL    HW184059   0.385   5.880   7.450  1.1885  0.7234  0.8849
26404SOL    HW284060   0.346   5.843   7.591 -2.6299 -0.1867 -0.2868
26405SOL     OW84061   1.594   0.334   6.395 -0.4429  0.2353 -0.4128
26405SOL    HW184062   1.534   0.315   6.323  0.0334  0.0193 -0.7605
26405SOL    HW284063   1.679   0.302   6.364 -0.0670  0.9061 -0.0940
26406SOL     OW84064   6.682   9.297   6.307  0.3744  0.6200  0.4978
26406SOL    HW184065   6.740   9.238   6.357  0.0653 -0.9126 -0.8728
26406SOL    HW284066   6.717   9.384   6.325  0.9914  0.0424  2.4349
26407SOL     OW84067   2.984   5.425   7.525 -0.2936  0.1414 -0.3696
26407SOL    HW184068   3.070   5.399   7.490  0.1789  0.3506  0.5869
26407SOL    HW284069   2.958   5.500   7.471  0.2470  0.2304 -0.5208
26408SOL     OW84070   9.455   4.122   8.159  0.3364  0.4188 -0.1398
26408SOL    HW184071   9.362   4.126   8.137 -0.2933  0.0338  2.2322
26408SOL    HW284072   9.497   4.182   8.097 -1.7551  2.1638  0.0196
26409SOL     OW84073   5.445   9.484   2.958 -0.4499 -0.2048  0.9901
26409SOL    HW184074   5.393   9.484   3.038  0.3486  0.0664  1.5218
26409SOL    HW284075   5.381   9.498   2.888 -1.2547 -1.2110  1.4988
26410SOL     OW84076   9.494   1.205   4.117  0.2668 -0.1239 -0.3246
26410SOL    HW184077   9.573   1.243   4.078 -0.5432  0.4867 -1.4293
26410SOL    HW284078   9.526   1.154   4.192  1.6684  0.3624 -0.5641
26411SOL     OW84079   3.327   9.156   2.900  0.3673 -0.7331  0.3047
26411SOL    HW184080   3.315   9.236   2.850  1.0397 -1.0583 -0.4077
26411SOL    HW284081   3.247   9.147   2.952  0.0660  0.1136  0.0016
26412SOL     OW84082   5.190   0.871   5.583  0.5455 -0.1315  0.5531
26412SOL    HW184083   5.209   0.847   5.674 -0.1228  1.7298  1.2320
26412SOL    HW284084   5.178   0.787   5.539  2.2448 -1.1353  1.8490
26413SOL     OW84085   8.933   8.956   4.556  0.1023 -0.6378  0.3554
26413SOL    HW184086   8.960   8.864   4.560  0.1954 -0.6112  0.3481
26413SOL    HW284087   8.901   8.975   4.644 -0.8389 -0.9566  0.0911
26414SOL     OW84088   7.581   0.397   0.963 -0.1702 -0.5241  0.6207
26414SOL    HW184089   7.620   0.331   1.021  1.5744  1.0421  1.3383
26414SOL    HW284090   7.500   0.422   1.007  0.1359 -0.7974  1.3671
26415SOL     OW84091   3.883   5.798   5.265  0.1021  0.2124 -0.4605
26415SOL    HW184092   3.794   5.796   5.230 -0.0678 -0.1199 -0.0295
26415SOL    HW284093   3.871   5.807   5.360  0.5230  0.1284 -0.3953
26416SOL     OW84094   8.366   6.976   2.251  0.3182  0.2534  0.2282
26416SOL    HW184095   8.454   7.011   2.264  1.2045 -2.1445  1.0428
26416SOL    HW284096   8.376   6.881   2.253 -1.7866 -0.2157 -3.0213
26417SOL     OW84097   3.585   9.268   2.955 -0.2451 -0.4280 -0.3574
26417SOL    HW184098   3.632   9.260   2.872 -0.0222 -2.9074 -0.0520
26417SOL    HW284099   3.493   9.268   2.930 -0.1733 -0.9009 -0.6301
26418SOL     OW84100   8.215   9.618   7.590  0.1120 -0.5946  0.5990
26418SOL    HW184101   8.145   9.647   7.649 -0.1674  0.1184 -0.0632
26418SOL    HW284102   8.292   9.611   7.646  0.0376  0.8101  0.9226
26419SOL     OW84103   1.062   9.422   5.174  0.1772  0.1268 -0.9207
26419SOL    HW184104   1.025   9.419   5.086  0.6230  0.5333 -1.1285
26419SOL    HW284105   1.153   9.447   5.160  0.9219 -2.1210 -0.5410
26420SOL     OW84106   7.053   3.268   3.676 -0.1567  0.1155 -0.2141
26420SOL    HW184107   6.992   3.327   3.721  2.3855  1.9703  1.0179
26420SOL    HW284108   7.107   3.231   3.746  0.3672 -1.2375 -1.2861
26421SOL     OW84109   6.902   1.941   2.562  0.1038  0.3344  0.0599
26421SOL    HW184110   6.925   1.943   2.655 -0.5295  2.9335  0.2179
26421SOL    HW284111   6.865   1.853   2.549  0.1734 -0.0726  2.2520
26422SOL     OW84112   1.933   7.589   2.384  0.0884  0.3114  0.8866
26422SOL    HW184113   1.908   7.649   2.453 -1.2295  2.7635 -1.5257
26422SOL    HW284114   1.911   7.635   2.303  0.5681 -2.7778 -1.1780
26423SOL     OW84115   4.954   2.702   8.423 -0.3010  0.5096 -0.1485
26423SOL    HW184116   4.872   2.662   8.453  1.5285 -1.2930  2.9642
26423SOL    HW284117   5.004   2.629   8.388  0.9294  1.1028  0.3337
26424SOL     OW84118   8.353   2.430   4.400 -0.0055 -0.3061 -0.2784
26424SOL    HW184119   8.424   2.489   4.424 -0.2630 -0.1866  0.2150
26424SOL    HW284120   8.396   2.348   4.376  0.6478  0.9831 -4.2886
26425SOL     OW84121   1.174   1.573   1.939 -0.0791  0.3586 -0.6176
26425SOL    HW184122   1.255   1.618   1.915  0.4804 -0.8109 -0.9924
26425SOL    HW284123   1.128   1.560   1.857  0.1349 -0.4406 -0.6162
26426SOL     OW84124   9.073   9.155   4.224 -0.1202 -0.2316  0.1396
26426SOL    HW184125   9.022   9.189   4.150  1.4344  0.4082 -0.7006
26426SOL    HW284126   9.107   9.071   4.192  1.9473  0.8048 -0.6080
26427SOL     OW84127   6.222   8.495   2.345  0.1621 -0.0604 -0.4340
26427SOL    HW184128   6.155   8.515   2.410  0.6243  0.6580 -0.1603
26427SOL    HW284129   6.179   8.437   2.283 -0.7142  0.3786 -0.2593
26428SOL     OW84130   7.692   8.715   2.260  0.0447  0.5114 -0.3582
26428SOL    HW184131   7.607   8.719   2.304 -1.3409  0.0748 -2.7702
26428SOL    HW284132   7.755   8.748   2.324 -1.9485  0.8900  1.5056
26429SOL     OW84133   4.504   2.174   1.002  0.0868  0.1800 -0.5896
26429SOL    HW184134   4.482   2.252   1.053 -1.2774  0.0075 -0.8791
26429SOL    HW284135   4.436   2.111   1.025 -0.4911  0.0617 -2.5074
26430SOL     OW84136   4.655   7.398   3.201 -0.2457 -0.8109 -0.2574
26430SOL    HW184137   4.576   7.437   3.163  0.9505  0.9949 -1.0439
26430SOL    HW284138   4.662   7.438   3.288 -1.2529 -2.5160  0.6491
26431SOL     OW84139   1.591   9.683   2.000 -0.1043  0.2683  0.0437
26431SOL    HW184140   1.614   9.596   2.032 -0.1736  0.3032  0.1878
26431SOL    HW284141   1.675   9.724   1.978  0.1727  1.1421  2.4485
26432SOL     OW84142   9.316   5.469   4.912  0.0462  0.6621  1.0111
26432SOL    HW184143   9.362   5.537   4.863 -0.5461  0.4807  0.1750
26432SOL    HW284144   9.231   5.506   4.932 -1.4370 -0.7385 -1.9692
26433SOL     OW84145   2.137   0.969   7.237  0.2744  0.5132 -0.7420
26433SOL    HW184146   2.176   1.045   7.193 -0.3511  0.5383 -1.2669
26433SOL    HW284147   2.188   0.894   7.206  0.8855  0.7050 -0.2319
26434SOL     OW84148   2.838   4.555   3.337 -0.1670 -0.3266  0.2797
26434SOL    HW184149   2.845   4.496   3.263  0.6643  0.2612 -0.1239
26434SOL    HW284150   2.886   4.512   3.408  0.6353 -0.0437 -0.0814
26435SOL     OW84151   0.331   4.575   5.600  0.0773  0.0318 -0.4609
26435SOL    HW184152   0.264   4.524   5.645  1.0359  0.4058  1.4716
26435SOL    HW284153   0.414   4.537   5.630  0.7722  0.0921 -2.1784
26436SOL     OW84154   7.925   7.750   7.028  0.3026  0.0891  0.3588
26436SOL    HW184155   7.882   7.699   6.960  1.8098 -1.0255  0.2179
26436SOL    HW284156   7.862   7.820   7.048 -1.8164 -1.7594  0.5448
26437SOL     OW84157   4.113   6.777   4.085  0.0215  0.5227  0.6546
26437SOL    HW184158   4.202   6.746   4.075  0.0356 -0.0848  2.3342
26437SOL    HW284159   4.058   6.700   4.073 -0.2525  0.7954  0.1161
26438SOL     OW84160   2.062   2.441   3.715 -0.4258 -0.6913  0.0799
26438SOL    HW184161   2.121   2.406   3.781 -0.8213 -1.6486 -0.0604
26438SOL    HW284162   2.020   2.364   3.676 -0.0828 -0.1687 -1.3989
26439SOL     OW84163   3.072   7.491   0.521  0.0904 -0.1928 -0.6952
26439SOL    HW184164   3.013   7.466   0.449 -1.1615  1.0586 -0.1622
26439SOL    HW284165   3.014   7.503   0.596  1.3473 -1.2459  0.5110
26440SOL     OW84166   4.289   7.740   1.161 -0.1068 -0.0325  0.3801
26440SOL    HW184167   4.383   7.760   1.159 -0.2479  1.0207 -2.8216
26440SOL    HW284168   4.283   7.654   1.201  2.6522 -1.5698 -2.1041
26441SOL     OW84169   9.718   8.530   8.109  0.3481  0.1765 -0.4854
26441SOL    HW184170   9.676   8.498   8.189  1.0542 -0.3213 -0.3041
26441SOL    HW284171   9.688   8.621   8.101 -0.8999 -0.2233 -0.4756
26442SOL     OW84172   3.784   9.739   9.386 -0.2503 -0.2082  0.4586
26442SOL    HW184173   3.848   9.720   9.454  0.6317  2.2585  0.4022
26442SOL    HW284174   3.833   9.734   9.304 -0.0568  1.6702  0.4131
26443SOL     OW84175   2.125   4.178   4.666  0.1415 -0.2454  0.1784
26443SOL    HW184176   2.086   4.091   4.674 -0.8221  0.1927  0.3798
26443SOL    HW284177   2.052   4.238   4.678  0.5398  0.5835 -1.3799
26444SOL     OW84178   7.554   9.512   3.210  0.0892  0.1670  0.6479
26444SOL    HW184179   7.612   9.494   3.283  1.1727 -0.4084 -0.3195
26444SOL    HW284180   7.597   9.583   3.161  0.0561 -0.3429 -0.1430
26445SOL     OW84181   3.799   6.184   8.926  0.6162 -0.2963 -0.1141
26445SOL    HW184182   3.826   6.275   8.937 -0.2499 -0.0489  0.0520
26445SOL    HW284183   3.708   6.189   8.899  0.8712 -1.0974 -1.1689
26446SOL     OW84184   6.548   4.476   9.011 -0.0971 -0.0510  0.0898
26446SOL    HW184185   6.639   4.460   9.036  0.6059  0.5278 -1.9260
26446SOL    HW284186   6.513   4.532   9.081  0.5940 -1.4855  1.6671
26447SOL     OW84187   8.223   7.449   6.472  0.1944 -0.1800 -0.1123
26447SOL    HW184188   8.265   7.409   6.396  1.3640  0.5442  0.1312
26447SOL    HW284189   8.270   7.531   6.485 -1.0123  0.4452  0.4543
26448SOL     OW84190   7.996   0.890   3.347  0.1226 -0.4446 -0.7617
26448SOL    HW184191   8.021   0.865   3.258 -0.2880 -1.6030 -0.5670
26448SOL    HW284192   8.032   0.978   3.358 -0.3553 -0.0285 -2.2876
26449SOL     OW84193   6.672   6.088   8.400  0.1031 -0.4396  0.1304
26449SOL    HW184194   6.625   6.047   8.328  1.8560 -0.7862 -0.8683
26449SOL    HW284195   6.725   6.018   8.438 -0.6563 -0.2283  1.7001
26450SOL     OW84196   5.598   4.032   5.559 -0.0094  0.2104  0.0126
26450SOL    HW184197   5.514   4.057   5.597 -1.4898 -0.6939 -2.4221
26450SOL    HW284198   5.644   3.986   5.629 -1.3369  1.0945  1.5242
26451SOL     OW84199   4.973   4.458   7.825  0.0679 -0.4526 -0.3646
26451SOL    HW184200   5.018   4.378   7.853 -0.2826 -0.4564  0.2035
26451SOL    HW284201   5.039   4.508   7.777  1.2201  0.3930  1.9859
26452SOL     OW84202   9.363   0.287   2.550  0.0616  0.4069 -0.5963
26452SOL    HW184203   9.275   0.264   2.518 -0.5874  0.7847  0.8499
26452SOL    HW284204   9.388   0.363   2.498 -0.2403 -0.0115 -1.3723
26453SOL     OW84205   8.096   5.613   9.111 -0.0555  0.1469 -0.5824
26453SOL    HW184206   8.080   5.634   9.019  3.3379 -1.3287 -1.6787
26453SOL    HW284207   8.136   5.692   9.148  0.4577  0.0853 -0.9892
26454SOL     OW84208   5.565   7.686   8.069 -0.5634  0.0339  0.1883
26454SOL    HW184209   5.504   7.684   8.142 -1.3162  0.6782 -0.4120
26454SOL    HW284210   5.579   7.779   8.052 -2.2939 -0.0210 -2.0218
26455SOL     OW84211   2.870   3.917   9.274 -0.0376  0.7114 -0.3696
26455SOL    HW184212   2.797   3.936   9.334 -0.3001  0.0237 -0.4596
26455SOL    HW284213   2.913   4.001   9.262 -0.6887  1.0894 -0.1396
26456SOL     OW84214   3.090   4.505   7.008  0.6285 -0.3421  0.4066
26456SOL    HW184215   3.173   4.457   7.010  1.1183  0.4907  0.4183
26456SOL    HW284216   3.116   4.596   6.996 -0.3563 -0.2885 -1.8922
26457SOL     OW84217   6.641   3.262   9.290 -0.1218  0.2702  0.0835
26457SOL    HW184218   6.696   3.324   9.242  0.5928 -1.3745 -1.3307
26457SOL    HW284219   6.621   3.307   9.373  1.0544  2.0133 -0.5125
26458SOL     OW84220   1.319   1.151   2.425 -0.1364 -0.2522 -0.5993
26458SOL    HW184221   1.291   1.070   2.469  1.0250 -0.3380  0.0387
26458SOL    HW284222   1.284   1.144   2.337  0.5192 -1.7987 -0.7671
26459SOL     OW84223   1.624   6.522   7.672 -0.0708 -0.8053  0.7724
26459SOL    HW184224   1.638   6.441   7.624 -2.6482 -0.2885 -1.0905
26459SOL    HW284225   1.562   6.499   7.741 -0.0648 -0.6253  0.8404
26460SOL     OW84226   4.216   3.106   4.787  1.0100  0.1293  0.0919
26460SOL    HW184227   4.197   3.083   4.878 -0.4905 -1.3090 -0.5412
26460SOL    HW284228   4.236   3.200   4.790 -0.3749  0.4150  1.7020
26461SOL     OW84229   3.073   1.569   4.873 -0.3701  0.1636 -0.1271
26461SOL    HW184230   3.132   1.606   4.939 -0.3480  2.1356 -1.1639
26461SOL    HW284231   3.101   1.478   4.864 -0.6913 -0.3072  2.8631
26462SOL     OW84232   8.878   7.057   4.208  0.1542  0.2050  0.1067
26462SOL    HW184233   8.826   7.066   4.128  1.9593  0.3170 -1.0917
26462SOL    HW284234   8.961   7.100   4.188  1.2815 -1.2615  1.4440
26463SOL     OW84235   4.418   6.719   5.977  0.1705 -0.2800  0.2066
26463SOL    HW184236   4.493   6.701   6.034  0.4149 -1.2041 -0.3841
26463SOL    HW284237   4.379   6.633   5.961 -0.7180  0.1328  0.0908
26464SOL     OW84238   4.817   9.609   9.535 -0.9464 -0.3329 -0.1054
26464SOL    HW184239   4.825   9.549   9.609 -2.9766 -2.0819 -1.1909
26464SOL    HW284240   4.901   9.602   9.489  0.6818  1.4228  2.3728
26465SOL     OW84241   6.701   1.161   7.314  0.5389 -0.3117  0.0337
26465SOL    HW184242   6.653   1.199   7.387  1.4541 -0.4952  0.7639
26465SOL    HW284243   6.731   1.076   7.348  2.1006  0.1638 -0.0603
26466SOL     OW84244   4.630   8.864   5.683 -0.3748 -0.1888  0.2990
26466SOL    HW184245   4.713   8.828   5.652  0.4084 -0.2957  2.3414
26466SOL    HW284246   4.645   8.958   5.689 -1.1803  0.0915 -1.4288
26467SOL     OW84247   4.362   4.670   7.483 -0.2319 -0.4611 -0.0668
26467SOL    HW184248   4.348   4.762   7.505 -0.8842  0.2497 -3.0536
26467SOL    HW284249   4.451   4.651   7.512 -0.4807  0.7327  1.6311
26468SOL     OW84250   8.574   5.915   8.258  1.0238 -0.5842  0.2218
26468SOL    HW184251   8.520   5.918   8.337  0.3454  1.8300 -0.2199
26468SOL    HW284252   8.664   5.926   8.290  0.9317 -1.3718  0.7649
26469SOL     OW84253   3.814   4.511   0.658  0.0961  0.1866 -0.2596
26469SOL    HW184254   3.730   4.498   0.704 -0.0786  1.3326 -0.2182
26469SOL    HW284255   3.790   4.515   0.565 -0.3428  3.2139 -0.1293
26470SOL     OW84256   3.351   6.862   1.002  0.6762 -0.1710  0.1072
26470SOL    HW184257   3.371   6.956   1.003 -3.6849  0.9851  0.9827
26470SOL    HW284258   3.286   6.852   0.932  0.6773 -2.4672  0.3457
26471SOL     OW84259   6.016   0.460   2.515  0.2923  0.5163 -0.4601
26471SOL    HW184260   6.030   0.551   2.487  0.8531 -0.1256 -2.4907
26471SOL    HW284261   5.921   0.450   2.517  0.1286  1.8651  2.5315
26472SOL     OW84262   6.345   9.483   4.176  0.4681 -0.1696  0.2476
26472SOL    HW184263   6.331   9.474   4.082 -0.3077  1.2080  0.2097
26472SOL    HW284264   6.412   9.550   4.184 -0.7324  1.0189  0.6913
26473SOL     OW84265   2.228   9.145   7.313 -0.0209  0.0255 -0.0938
26473SOL    HW184266   2.149   9.196   7.291 -0.7106 -0.9188  0.1382
26473SOL    HW284267   2.211   9.113   7.401  0.4743 -0.4757 -0.1814
26474SOL     OW84268   0.551   6.162   5.648  0.5292  0.2670  0.6296
26474SOL    HW184269   0.522   6.187   5.735  1.4391  0.6278  0.8476
26474SOL    HW284270   0.472   6.136   5.602 -0.2655  2.0455  0.8966
26475SOL     OW84271   0.470   0.565   2.348  0.7340  1.1813 -0.7230
26475SOL    HW184272   0.469   0.472   2.326 -2.1100  0.6768  1.0673
26475SOL    HW284273   0.441   0.609   2.269  0.5142  0.3847 -1.0928
26476SOL     OW84274   9.694   2.837   0.770 -0.8589 -0.7535  0.3349
26476SOL    HW184275   9.749   2.787   0.830 -0.7770 -0.2211  0.7141
26476SOL    HW284276   9.711   2.929   0.793 -0.7190 -0.5326 -0.5961
26477SOL     OW84277   2.583   1.000   7.736 -0.1622 -0.2322  0.2056
26477SOL    HW184278   2.587   1.082   7.688 -2.1449 -0.2520 -0.0752
26477SOL    HW284279   2.644   1.012   7.809  0.6964  0.8959 -0.6475
26478SOL     OW84280   2.837   6.382   3.027 -0.0097  0.6396 -0.0069
26478SOL    HW184281   2.831   6.364   3.121 -0.9617 -0.8375 -0.3188
26478SOL    HW284282   2.924   6.421   3.016  0.7235 -0.5117  1.3008
26479SOL     OW84283   1.735   4.764   8.438 -0.2174 -0.4283 -0.3321
26479SOL    HW184284   1.707   4.785   8.527 -0.9226  0.8819 -0.8311
26479SOL    HW284285   1.667   4.801   8.382  1.4403  0.9603 -1.5234
26480SOL     OW84286   6.754   2.834   5.629  0.3351 -0.3311 -0.0752
26480SOL    HW184287   6.772   2.742   5.614 -0.5831 -0.3670 -1.0067
26480SOL    HW284288   6.660   2.843   5.618  0.4140  0.7296 -0.0384
26481SOL     OW84289   8.495   2.699   0.440 -0.4556  0.2859 -0.0504
26481SOL    HW184290   8.431   2.651   0.492  2.6479 -2.2947  1.8055
26481SOL    HW284291   8.468   2.685   0.349 -2.4278 -0.6953  0.6349
26482SOL     OW84292   0.230   0.244   7.300 -0.2594 -0.2894 -0.5503
26482SOL    HW184293   0.176   0.224   7.376  1.1214 -0.5329  0.4082
26482SOL    HW284294   0.170   0.284   7.237 -1.2397  0.8981  1.0767
26483SOL     OW84295   2.580   1.781   8.540 -0.9104  0.2421  0.1946
26483SOL    HW184296   2.497   1.828   8.550 -1.7467 -1.4653  2.0022
26483SOL    HW284297   2.646   1.840   8.578 -1.4869  1.0954 -0.1188
26484SOL     OW84298   8.744   4.466   0.230 -0.5522  0.5319  0.2728
26484SOL    HW184299   8.673   4.530   0.234 -0.1852  0.9190  0.7305
26484SOL    HW284300   8.773   4.469   0.139 -0.5985  0.9467  0.2695
26485SOL     OW84301   8.793   5.433   1.086 -0.6792 -0.4770  0.8839
26485SOL    HW184302   8.744   5.480   1.018 -1.1589 -1.4016  0.5723
26485SOL    HW284303   8.737   5.438   1.164 -1.4228 -1.7437  0.4627
26486SOL     OW84304   5.881   1.223   6.253  0.1556  0.5118  0.5024
26486SOL    HW184305   5.800   1.272   6.234  0.4122  0.2480 -1.5541
26486SOL    HW284306   5.896   1.237   6.346 -3.5772 -1.4202  1.6100
26487SOL     OW84307   9.169   4.484   9.430  0.2353  0.0555  0.4788
26487SOL    HW184308   9.237   4.531   9.381  1.1945 -2.2792 -0.6108
26487SOL    HW284309   9.089   4.535   9.416  0.9287  0.6335 -1.7775
26488SOL     OW84310   8.578   2.865   1.140  0.7976  0.2077  0.0220
26488SOL    HW184311   8.627   2.947   1.138  1.5516 -0.2408 -0.8097
26488SOL    HW284312   8.519   2.873   1.215  0.8971  1.4813 -0.0182
26489SOL     OW84313   9.715   0.764   0.391  0.2919  0.5757  0.4769
26489SOL    HW184314   9.668   0.690   0.429  1.7897  0.4045  2.1376
26489SOL    HW284315   9.665   0.841   0.419 -0.1816  0.2928  0.4083
26490SOL     OW84316   2.709   0.021   1.299  0.6361 -0.0441 -0.0836
26490SOL    HW184317   2.790   0.061   1.331  0.2601  0.1493  0.6437
26490SOL    HW284318   2.699   0.054   1.210  0.6992  0.9395  0.2661
26491SOL     OW84319   4.185   6.831   8.945 -0.3220  0.2150 -0.3519
26491SOL    HW184320   4.208   6.812   9.036 -0.6638 -0.1815 -0.3448
26491SOL    HW284321   4.268   6.852   8.903  0.0797 -1.2590 -0.3443
26492SOL     OW84322   7.450   6.566   6.415  0.4826  0.1456 -0.4017
26492SOL    HW184323   7.487   6.483   6.444  0.1344 -0.5189 -1.7770
26492SOL    HW284324   7.358   6.562   6.441  0.4422  0.0618 -0.5603
26493SOL     OW84325   3.436   8.221   9.331 -0.1275 -0.2212 -0.0826
26493SOL    HW184326   3.379   8.289   9.366 -1.0541 -1.1036  0.1627
26493SOL    HW284327   3.381   8.171   9.271  0.9609  0.1599 -1.4337
26494SOL     OW84328   7.822   4.261   3.662  0.0647  0.0695  0.1491
26494SOL    HW184329   7.736   4.284   3.697 -0.2928 -0.3702 -0.4288
26494SOL    HW284330   7.817   4.284   3.569 -0.3385 -2.3373 -0.4802
26495SOL     OW84331   0.645   7.071   1.068 -0.3696 -0.1776  0.1930
26495SOL    HW184332   0.600   7.142   1.114  0.5960  1.2527 -0.9892
26495SOL    HW284333   0.593   7.057   0.989  0.8129  1.0172 -0.8411
26496SOL     OW84334   5.578   1.786   4.716 -0.2663  0.0946 -0.0569
26496SOL    HW184335   5.655   1.743   4.680  0.1369 -0.4480  1.3592
26496SOL    HW284336   5.570   1.750   4.805 -1.5564  0.8920  0.1789
26497SOL     OW84337   4.287   1.006   2.070 -0.3781 -0.3208  0.2310
26497SOL    HW184338   4.230   1.067   2.023  0.1051  0.5504  0.7549
26497SOL    HW284339   4.339   1.061   2.128  0.1017 -1.2314  0.6911
26498SOL     OW84340   5.943   6.317   2.290 -0.1036  0.8096  0.3816
26498SOL    HW184341   6.008   6.373   2.247  1.9621 -1.2369  0.6657
26498SOL    HW284342   5.931   6.244   2.230  0.6171 -0.6278  1.9115
26499SOL     OW84343   4.189   3.022   5.066  0.3864 -0.3503 -0.8142
26499SOL    HW184344   4.107   2.992   5.026  1.0905 -0.1793 -2.4954
26499SOL    HW284345   4.171   3.113   5.090 -0.2469 -0.6420 -0.1488
26500SOL     OW84346   8.257   5.867   0.003 -0.1415 -0.1461  0.7857
26500SOL    HW184347   8.291   5.956  -0.000 -0.8423  0.1217  0.4362
26500SOL    HW284348   8.168   5.877   0.038 -0.6275 -0.5751 -0.2746
26501SOL     OW84349   2.397   0.743   5.933 -0.0878 -0.0240 -0.0275
26501SOL    HW184350   2.423   0.660   5.895  0.7817 -0.1237  0.7605
26501SOL    HW284351   2.369   0.796   5.859  2.4267  0.1115 -0.9409
26502SOL     OW84352   3.694   3.393   8.001  0.4040 -0.8444 -0.1586
26502SOL    HW184353   3.645   3.335   8.059  0.6161 -0.1323  0.7523
26502SOL    HW284354   3.631   3.463   7.979  0.7574 -0.3567  0.3665
26503SOL     OW84355   6.771   0.130   8.639 -0.0787  0.2768 -0.1991
26503SOL    HW184356   6.783   0.107   8.731  0.2495  0.2252 -0.2527
26503SOL    HW284357   6.726   0.054   8.601 -1.4295  0.8467  0.2000
26504SOL     OW84358   1.978   7.845   2.577 -0.3454 -0.4597 -0.4987
26504SOL    HW184359   1.892   7.811   2.554  0.1278 -1.6170 -0.6144
26504SOL    HW284360   2.024   7.851   2.493  0.2953 -1.5998 -0.2443
26505SOL     OW84361   0.352   2.896   2.701 -0.3682  0.1237  0.1335
26505SOL    HW184362   0.286   2.848   2.750  1.6274 -1.7222  1.1986
26505SOL    HW284363   0.303   2.965   2.656 -3.4398 -2.6816 -1.2704
26506SOL     OW84364   3.155   1.039   1.575  0.3902  0.0544 -0.1882
26506SOL    HW184365   3.220   0.975   1.545  0.9145  0.1437  0.7095
26506SOL    HW284366   3.110   1.068   1.495 -0.3679 -1.9636 -0.5320
26507SOL     OW84367   7.893   9.163   0.303 -0.4464  0.2827  0.3923
26507SOL    HW184368   7.849   9.162   0.387 -0.4879 -1.0396  0.3791
26507SOL    HW284369   7.864   9.244   0.261 -1.0100  0.5795  1.3307
26508SOL     OW84370   5.476   0.381   5.875  0.2046 -0.3514 -0.1802
26508SOL    HW184371   5.493   0.423   5.959 -1.3987  1.9900 -0.9332
26508SOL    HW284372   5.453   0.291   5.898 -1.7744  0.6203  2.0921
26509SOL     OW84373   1.476   6.394   8.610 -0.2440 -0.2005 -0.9161
26509SOL    HW184374   1.566   6.412   8.582  0.2469 -0.8048  0.2075
26509SOL    HW284375   1.467   6.299   8.602 -0.9035 -0.1073 -1.3511
26510SOL     OW84376   7.687   1.265   8.001  0.8198 -0.0155  0.8117
26510SOL    HW184377   7.613   1.314   8.037  0.4526 -0.1968  0.3211
26510SOL    HW284378   7.756   1.274   8.067  1.2379  2.2757  0.1503
26511SOL     OW84379   1.797   4.095   4.207 -0.1289  0.3413 -0.3661
26511SOL    HW184380   1.861   4.027   4.230  0.2348  1.1677  1.2129
26511SOL    HW284381   1.768   4.071   4.119  1.1357 -0.9807 -0.4762
26512SOL     OW84382   9.381   8.662   3.883  0.4288 -0.5907 -0.1714
26512SOL    HW184383   9.306   8.692   3.933  1.0716 -0.6511  0.8558
26512SOL    HW284384   9.452   8.720   3.908  0.5535 -0.0087 -1.7543
26513SOL     OW84385   0.830   9.052   4.661  0.4466  0.5278  0.6071
26513SOL    HW184386   0.881   9.070   4.581  0.2905 -0.3312  0.3098
26513SOL    HW284387   0.767   8.986   4.635  1.0926 -0.5597  1.7026
26514SOL     OW84388   9.040   4.749   2.864  0.3112 -0.7417 -0.1393
26514SOL    HW184389   8.995   4.831   2.883  0.8939 -0.4095 -0.1585
26514SOL    HW284390   9.012   4.725   2.776  2.0531  0.7709 -1.1789
26515SOL     OW84391   6.640   4.411   4.254 -0.2057 -0.1377 -0.1431
26515SOL    HW184392   6.676   4.441   4.171 -0.8692  0.7101 -0.1325
26515SOL    HW284393   6.582   4.338   4.231 -0.1638 -0.0903 -0.3939
26516SOL     OW84394   7.193   4.030   4.736  0.1056 -0.0459 -0.6486
26516SOL    HW184395   7.281   4.024   4.773  0.4622 -0.6793 -1.5790
26516SOL    HW284396   7.157   4.111   4.774  1.6766  1.0993 -1.4755
26517SOL     OW84397   3.173   1.510   7.991  0.1114 -0.1696 -0.0998
26517SOL    HW184398   3.183   1.497   8.086 -0.3751  0.8509  0.1165
26517SOL    HW284399   3.083   1.483   7.973  0.3877 -0.9133 -0.3863
26518SOL     OW84400   3.642   2.706   7.974  0.1794  0.3769  0.1773
26518SOL    HW184401   3.663   2.620   8.011  2.1710 -0.0072 -1.6475
26518SOL    HW284402   3.727   2.742   7.948 -0.7000  2.5251  0.0398
26519SOL     OW84403   6.301   3.247   0.340 -0.6295  0.0620 -0.3878
26519SOL    HW184404   6.223   3.286   0.380  0.4678 -0.9959  3.1823
26519SOL    HW284405   6.370   3.311   0.353 -0.2822 -0.1958 -0.9159
26520SOL     OW84406   9.357   4.912   4.259  0.3126  0.0539 -0.3970
26520SOL    HW184407   9.293   4.929   4.189 -0.2388  0.7775  0.2576
26520SOL    HW284408   9.420   4.983   4.251 -0.1999  0.6102  0.3236
26521SOL     OW84409   4.902   2.712   0.865 -0.6493 -0.5164  0.8220
26521SOL    HW184410   4.818   2.742   0.832 -0.7023 -0.3909  1.0682
26521SOL    HW284411   4.924   2.774   0.935  0.1084  0.0326  0.1219
26522SOL     OW84412   2.370   9.677   0.443 -0.2857 -0.2651  0.4988
26522SOL    HW184413   2.395   9.742   0.509 -2.3316 -0.9132  1.9958
26522SOL    HW284414   2.404   9.594   0.478  0.6668 -0.3078 -0.4710
26523SOL     OW84415   5.934   9.047   8.997 -0.2212 -0.6118  0.3942
26523SOL    HW184416   6.008   8.987   9.011 -0.0564 -0.7705 -0.9967
26523SOL    HW284417   5.959   9.097   8.919 -0.9681  0.3288  0.7405
26524SOL     OW84418   1.497   3.958   3.805  0.1831 -0.7024  0.1773
26524SOL    HW184419   1.446   4.024   3.852  0.7802 -0.5893  0.6817
26524SOL    HW284420   1.533   4.005   3.730 -1.3193 -1.0478 -0.7886
26525SOL     OW84421   5.335   8.448   1.493  0.0213  0.1320  0.5990
26525SOL    HW184422   5.317   8.491   1.409  0.2485  1.5848  1.2525
26525SOL    HW284423   5.426   8.421   1.486  0.6033  1.8722  1.0105
26526SOL     OW84424   3.928   1.937   8.647  0.2016  0.5164  0.1414
26526SOL    HW184425   3.949   1.900   8.732 -1.8765 -0.7856  0.1535
26526SOL    HW284426   3.873   2.013   8.668  0.5960  0.8452 -0.0130
26527SOL     OW84427   1.128   9.431   9.362  0.1135  0.3123  0.0801
26527SOL    HW184428   1.063   9.376   9.406 -0.3991  0.6532 -0.2349
26527SOL    HW284429   1.077   9.505   9.327  0.4203 -0.1980 -1.5118
26528SOL     OW84430   4.115   4.311   5.729 -0.6319  0.1939 -0.7542
26528SOL    HW184431   4.180   4.255   5.772 -0.0774  1.3472 -0.0372
26528SOL    HW284432   4.056   4.337   5.800 -1.2537  0.0086 -1.2029
26529SOL     OW84433   0.806   4.981   6.186 -0.1155  0.1589 -0.2655
26529SOL    HW184434   0.776   4.911   6.243 -1.3441  0.3168 -0.6823
26529SOL    HW284435   0.835   5.050   6.246  1.0579 -0.6569  0.1431
26530SOL     OW84436   1.252   4.700   1.688 -0.5935 -0.3617  0.5733
26530SOL    HW184437   1.287   4.611   1.699  2.5388  0.7092  0.2484
26530SOL    HW284438   1.199   4.695   1.609  0.9951 -1.5878 -0.4754
26531SOL     OW84439   3.389   1.324   3.392  0.1965  0.4436 -0.2346
26531SOL    HW184440   3.354   1.255   3.448 -1.5941  0.9896 -0.6069
26531SOL    HW284441   3.374   1.293   3.303  4.5120 -1.1733 -0.6249
26532SOL     OW84442   5.824   0.029   2.769  0.3738  0.4662  0.2024
26532SOL    HW184443   5.789  -0.059   2.754 -0.3735  0.9090 -0.8275
26532SOL    HW284444   5.892   0.039   2.702  1.2222  0.2873  1.0192
26533SOL     OW84445   5.635   3.564   3.006  0.3053 -0.4388  0.2689
26533SOL    HW184446   5.714   3.610   2.978 -1.5394  2.7590 -0.0600
26533SOL    HW284447   5.625   3.586   3.099 -0.6325 -0.1542  0.1078
26534SOL     OW84448   6.814   6.131   4.758 -0.1590 -0.0635 -0.3933
26534SOL    HW184449   6.881   6.067   4.732  0.0436  0.4797 -1.2795
26534SOL    HW284450   6.790   6.106   4.847 -0.5426 -1.7502 -0.9271
26535SOL     OW84451   5.262   4.115   1.817 -0.3057 -0.2301 -0.5535
26535SOL    HW184452   5.169   4.139   1.815 -0.4203 -0.6551 -0.2489
26535SOL    HW284453   5.308   4.197   1.797 -0.6793  0.3901  0.9915
26536SOL     OW84454   0.476   6.509   4.718  0.0716  0.5117  0.7451
26536SOL    HW184455   0.415   6.508   4.644  0.1257  0.3607  0.7032
26536SOL    HW284456   0.460   6.594   4.761 -0.5201  0.2691  1.0223
26537SOL     OW84457   6.093   8.638   9.684 -0.7163  0.7470 -0.2068
26537SOL    HW184458   6.121   8.582   9.756 -0.2580  1.5279  0.2350
26537SOL    HW284459   6.173   8.679   9.652 -1.1373  1.8203  0.0556
26538SOL     OW84460   8.614   0.420   5.276  0.0038  0.1891  0.9667
26538SOL    HW184461   8.693   0.368   5.263  0.2478  0.3340  1.8075
26538SOL    HW284462   8.614   0.440   5.369 -0.9893  0.2551  0.9609
26539SOL     OW84463   4.150   6.981   3.898 -0.3096 -0.2568  0.0915
26539SOL    HW184464   4.189   6.930   3.969  0.1966 -0.1580 -0.1179
26539SOL    HW284465   4.165   6.929   3.819 -0.0952  0.0489 -0.0720
26540SOL     OW84466   3.269   9.623   9.025 -0.1283  0.2058 -0.5638
26540SOL    HW184467   3.308   9.652   8.942 -0.1017  1.4786 -0.1244
26540SOL    HW284468   3.273   9.700   9.082 -0.3854 -0.5756  0.5416
26541SOL     OW84469   8.450   1.568   2.236  0.0014  0.4506  0.2876
26541SOL    HW184470   8.398   1.622   2.177  0.0756  0.7993  0.5427
26541SOL    HW284471   8.529   1.547   2.186 -1.0089 -1.3352 -0.6830
26542SOL     OW84472   6.767   8.374   1.087 -0.0184 -0.6223 -0.0720
26542SOL    HW184473   6.788   8.374   1.180 -0.1818 -0.0184 -0.0320
26542SOL    HW284474   6.852   8.381   1.043  0.1877 -2.3876 -0.0158
26543SOL     OW84475   3.206   3.752   4.476  0.1676 -0.4058 -0.4388
26543SOL    HW184476   3.295   3.731   4.506  0.7479  0.1494 -1.7297
26543SOL    HW284477   3.184   3.682   4.414 -1.2810 -1.9121  1.6140
26544SOL     OW84478   7.218   4.729   5.846 -0.3570 -0.2677 -0.0349
26544SOL    HW184479   7.188   4.777   5.924  0.0829  1.4424 -0.8742
26544SOL    HW284480   7.293   4.679   5.877 -1.5805 -1.4454  1.1513
26545SOL     OW84481   8.496   3.965   2.417 -0.7690 -0.1964 -0.1712
26545SOL    HW184482   8.405   3.967   2.386 -0.4475  1.8064 -1.1299
26545SOL    HW284483   8.548   3.966   2.337  0.1110 -0.7365  0.3830
26546SOL     OW84484   4.958   5.923   3.475  0.6461 -0.2838  0.3968
26546SOL    HW184485   5.051   5.932   3.455  0.4254 -1.4969 -1.3579
26546SOL    HW284486   4.948   5.967   3.560  2.7518  0.0790  0.5198
26547SOL     OW84487   6.286   2.552   0.562  0.0220 -0.7844 -0.5794
26547SOL    HW184488   6.338   2.612   0.616  1.8498 -1.7214 -1.2128
26547SOL    HW284489   6.195   2.575   0.582  0.5858 -0.8398  2.6181
26548SOL     OW84490   7.239   2.889   6.509  0.4039  0.2913  0.5232
26548SOL    HW184491   7.317   2.873   6.456 -1.7140  0.3282 -2.8859
26548SOL    HW284492   7.257   2.972   6.553  2.6064 -0.1599  0.6152
26549SOL     OW84493   9.694   7.450   2.252 -0.2558  0.2201 -0.3345
26549SOL    HW184494   9.705   7.470   2.345 -0.5055  0.1028 -0.2787
26549SOL    HW284495   9.731   7.526   2.206  0.4049  0.0193 -0.1488
26550SOL     OW84496   9.637   2.182   0.131 -0.4616 -0.3113  0.3245
26550SOL    HW184497   9.702   2.214   0.069 -1.6057  0.0446 -0.7202
26550SOL    HW284498   9.629   2.088   0.113  1.1414 -0.8003  1.7835
26551SOL     OW84499   3.907   1.365   1.044 -0.2880 -0.0291 -0.5219
26551SOL    HW184500   3.877   1.361   1.134 -0.0472  1.0317 -0.3742
26551SOL    HW284501   3.990   1.318   1.043 -0.9066 -1.1627 -0.4854
26552SOL     OW84502   9.342   0.044   1.778 -0.9313  0.1278  0.3536
26552SOL    HW184503   9.374   0.123   1.822  0.3675 -0.1645 -0.0405
26552SOL    HW284504   9.293   0.077   1.703  0.4694  0.5755 -0.4042
26553SOL     OW84505   9.557   5.974   8.434 -0.2255  0.4126 -0.0700
26553SOL    HW184506   9.487   5.963   8.369  0.0497 -1.4134 -0.1112
26553SOL    HW284507   9.582   6.066   8.427 -1.3822  0.6604 -1.3409
26554SOL     OW84508   6.530   8.310   7.132 -0.0836 -0.1758 -0.1451
26554SOL    HW184509   6.604   8.292   7.074 -0.5661  0.8260 -1.1169
26554SOL    HW284510   6.569   8.346   7.211  0.4628  0.7834 -0.8354
26555SOL     OW84511   3.754   0.944   3.916 -0.2981  0.2243  0.2686
26555SOL    HW184512   3.662   0.952   3.940 -0.2641 -0.3353  0.5947
26555SOL    HW284513   3.802   0.954   3.998 -0.1794 -1.5702  0.4497
26556SOL     OW84514   6.050   7.019   5.629 -0.6216  0.0965 -0.3801
26556SOL    HW184515   6.003   6.953   5.578 -0.9027 -0.1932  0.2416
26556SOL    HW284516   6.038   6.992   5.720 -1.4377  1.4785 -0.0610
26557SOL     OW84517   2.809   0.889   2.955  0.5101 -0.5126 -0.0184
26557SOL    HW184518   2.750   0.855   2.888  1.1417  1.7604 -1.8858
26557SOL    HW284519   2.752   0.937   3.015 -0.1133 -2.9110  1.4260
26558SOL     OW84520   0.006   6.894   5.748 -0.5408  0.0201  0.3326
26558SOL    HW184521  -0.079   6.900   5.791 -0.3725  2.4940  0.4314
26558SOL    HW284522   0.026   6.983   5.719  2.0811 -0.4449  0.4116
26559SOL     OW84523   1.100   6.180   9.190 -0.0750 -0.1820  0.3185
26559SOL    HW184524   1.019   6.145   9.154  0.4669 -2.1281  0.8709
26559SOL    HW284525   1.136   6.108   9.242  1.7810  0.7815  0.4423
26560SOL     OW84526   9.398   8.975   7.844 -0.6507 -0.1791 -0.0200
26560SOL    HW184527   9.376   8.993   7.935  0.5537 -0.8591  0.4240
26560SOL    HW284528   9.361   8.888   7.827  0.6593 -0.8309  0.3826
26561SOL     OW84529   4.037   1.536   6.438 -0.1687  0.3932  0.2822
26561SOL    HW184530   4.070   1.534   6.348 -0.3151 -2.6452  0.2211
26561SOL    HW284531   4.107   1.498   6.490 -0.7398  0.6107  1.2260
26562SOL     OW84532   9.379   3.363   8.650  0.1664 -0.4457 -0.1179
26562SOL    HW184533   9.422   3.300   8.592  2.2694 -0.5952  1.5003
26562SOL    HW284534   9.374   3.444   8.599  1.9135 -0.5797 -0.5552
26563SOL     OW84535   5.613   8.430   7.075 -0.1369 -0.0075 -0.1864
26563SOL    HW184536   5.570   8.363   7.128  0.4125  0.4070  0.8015
26563SOL    HW284537   5.574   8.513   7.103 -0.2976  0.1603 -0.8863
26564SOL     OW84538   3.938   6.033   8.694 -0.2657 -0.4329 -0.3094
26564SOL    HW184539   3.937   5.967   8.624 -1.8031 -0.0404 -0.6990
26564SOL    HW284540   3.846   6.053   8.709  0.0562 -0.1365  1.4984
26565SOL     OW84541   7.175   2.198   4.047 -0.4509  0.3419  0.0670
26565SOL    HW184542   7.126   2.247   3.981  0.2160 -1.1841 -1.6491
26565SOL    HW284543   7.266   2.202   4.017  0.4112  2.2275  2.6177
26566SOL     OW84544   8.126   2.745   9.726 -0.9280  0.0788  0.0815
26566SOL    HW184545   8.176   2.667   9.753 -0.1400  0.3519 -0.5467
26566SOL    HW284546   8.040   2.711   9.701 -0.0056 -0.8906 -2.0360
26567SOL     OW84547   5.191   8.050   2.559 -0.0177  0.1193  0.4464
26567SOL    HW184548   5.138   8.021   2.484 -0.5639  0.6312  0.6227
26567SOL    HW284549   5.232   8.131   2.528 -1.7715  1.4202  1.3027
26568SOL     OW84550   3.540   5.213   3.836  0.0767  0.3514  0.2415
26568SOL    HW184551   3.626   5.173   3.849  0.4695  0.6032 -1.3513
26568SOL    HW284552   3.539   5.238   3.744 -1.2379  1.4820  0.5317
26569SOL     OW84553   2.813   8.652   1.140 -0.4062  0.0344  0.3739
26569SOL    HW184554   2.897   8.685   1.109 -0.0333 -1.0873  0.1372
26569SOL    HW284555   2.785   8.715   1.207  0.0460  1.0444 -0.3694
26570SOL     OW84556   0.190   2.284   8.877  0.0794  0.0290 -0.0259
26570SOL    HW184557   0.117   2.225   8.896 -0.6429  0.8743 -0.0815
26570SOL    HW284558   0.222   2.312   8.962  2.0403 -2.2897  0.1036
26571SOL     OW84559   3.863   8.828   6.810  0.2356 -0.1008 -0.3403
26571SOL    HW184560   3.817   8.821   6.727 -1.2832  1.0062  0.3415
26571SOL    HW284561   3.795   8.813   6.876  1.4671 -1.2510  0.7124
26572SOL     OW84562   5.894   7.275   1.797 -0.4501  0.6294  0.0676
26572SOL    HW184563   5.930   7.193   1.764 -1.7716  0.4967 -1.1550
26572SOL    HW284564   5.893   7.333   1.721 -1.3676  1.1144  0.4328
26573SOL     OW84565   2.217   5.895   0.602 -0.7204  0.7823  0.0056
26573SOL    HW184566   2.249   5.978   0.637 -0.1550  0.7968 -0.5227
26573SOL    HW284567   2.257   5.829   0.658  0.7817  0.7703 -1.0020
26574SOL     OW84568   5.597   5.759   2.706  0.3975 -0.0506  0.4292
26574SOL    HW184569   5.510   5.752   2.747 -0.2008 -0.5829 -0.8847
26574SOL    HW284570   5.649   5.692   2.749  0.1164  0.1520  1.1068
26575SOL     OW84571   6.031   0.680   5.075 -0.5860 -0.1999 -0.0955
26575SOL    HW184572   6.076   0.698   4.992  0.5188  0.0002  0.5161
26575SOL    HW284573   5.938   0.691   5.056 -0.5224 -1.9998 -1.7803
26576SOL     OW84574   2.574   6.347   6.044  0.2090 -0.2848 -0.3192
26576SOL    HW184575   2.558   6.311   5.957  1.1823 -0.6396 -0.3582
26576SOL    HW284576   2.491   6.337   6.090 -1.0565  1.9506 -1.8900
26577SOL     OW84577   3.018   9.350   3.509  0.3833  0.0996  0.0035
26577SOL    HW184578   3.094   9.407   3.498  0.4331  0.0276 -0.0270
26577SOL    HW284579   3.048   9.280   3.568  0.7390 -0.6486 -1.0429
26578SOL     OW84580   9.587   5.418   4.302  0.0650  0.2235 -0.2231
26578SOL    HW184581   9.574   5.461   4.218 -3.3880 -0.0285  0.0362
26578SOL    HW284582   9.502   5.423   4.345  1.8877  1.1237  3.7121
26579SOL     OW84583   0.846   0.224   4.728 -0.1282  0.0033 -0.1848
26579SOL    HW184584   0.756   0.211   4.757  0.3338  1.1391  1.9889
26579SOL    HW284585   0.849   0.186   4.640 -2.4607 -0.8971  0.0579
26580SOL     OW84586   4.821   0.217   0.851 -0.6837 -0.2541  0.1487
26580SOL    HW184587   4.756   0.150   0.831  0.1247 -0.9817 -0.0730
26580SOL    HW284588   4.864   0.185   0.931 -0.6552  0.2659  0.3440
26581SOL     OW84589   2.943   7.918   9.638 -0.3036  0.1596  0.2132
26581SOL    HW184590   2.978   8.000   9.604 -2.3055  0.8786 -0.1890
26581SOL    HW284591   2.983   7.850   9.583 -0.1353  0.9933 -0.7207
26582SOL     OW84592   0.138   4.750   2.468  0.2680 -0.0468 -0.5129
26582SOL    HW184593   0.146   4.845   2.456  1.2623  0.0500  0.6686
26582SOL    HW284594   0.169   4.713   2.385  0.3977  0.6531 -0.7857
26583SOL     OW84595   5.818   7.507   8.449 -0.0616 -0.2953 -0.2599
26583SOL    HW184596   5.732   7.489   8.487 -0.3566  0.5286 -0.5284
26583SOL    HW284597   5.836   7.431   8.393 -0.7138 -0.3677 -0.3732
26584SOL     OW84598   6.722   4.934   7.744  0.1631 -0.2933 -0.0844
26584SOL    HW184599   6.694   4.864   7.803 -0.4304  0.2436  0.2726
26584SOL    HW284600   6.814   4.948   7.767 -0.2126  0.3131  1.1391
26585SOL     OW84601   9.376   4.458   1.266 -0.3290 -0.1148  0.8165
26585SOL    HW184602   9.334   4.373   1.265  1.6990 -1.2007 -0.7610
26585SOL    HW284603   9.427   4.461   1.185 -0.3928  2.6484  0.7670
26586SOL     OW84604   2.790   2.737   4.441  0.5948  0.5174 -0.2436
26586SOL    HW184605   2.809   2.648   4.410 -1.4954 -0.8735  2.1325
26586SOL    HW284606   2.870   2.763   4.487  1.8967  0.6858 -2.4357
26587SOL     OW84607   7.937   2.313   8.294 -0.4303 -0.0916  0.2838
26587SOL    HW184608   7.875   2.377   8.258  0.6550  0.7746 -0.1067
26587SOL    HW284609   7.886   2.233   8.305 -1.5081  0.4788 -0.4307
26588SOL     OW84610   9.121   4.954   8.955 -0.3082  0.4518  0.1692
26588SOL    HW184611   9.112   5.011   9.031  0.3746  1.6724 -0.6315
26588SOL    HW284612   9.165   4.876   8.990  3.9280  2.6167  0.4420
26589SOL     OW84613   0.185   3.817   5.829  0.2356 -0.6032 -0.3109
26589SOL    HW184614   0.218   3.818   5.739  0.3107  0.7416 -0.2925
26589SOL    HW284615   0.093   3.841   5.821 -0.0719 -1.6422 -0.1118
26590SOL     OW84616   6.029   1.500   5.348 -0.0970 -0.2930  0.2135
26590SOL    HW184617   5.969   1.498   5.422  0.8890  0.1539  1.0448
26590SOL    HW284618   6.113   1.528   5.385 -0.0053  1.7276 -1.3778
26591SOL     OW84619   3.129   2.752   9.197 -0.0293 -0.1720  0.2970
26591SOL    HW184620   3.162   2.838   9.172  2.3947 -0.8193  0.9875
26591SOL    HW284621   3.129   2.701   9.116  1.1640 -0.2846  0.3597
26592SOL     OW84622   3.971   7.756   6.754  0.5980  0.6165  0.0951
26592SOL    HW184623   3.911   7.688   6.721  2.3502 -1.0386  0.1001
26592SOL    HW284624   3.949   7.765   6.846  0.8507 -0.5807  0.2918
26593SOL     OW84625   7.821   1.312   9.104  0.1921  0.5356 -0.2974
26593SOL    HW184626   7.799   1.219   9.096  0.5521  0.2859  1.1769
26593SOL    HW284627   7.914   1.316   9.083  0.8417  0.0795  2.1795
26594SOL     OW84628   6.123   2.130   4.223 -0.3928  0.2657  0.8160
26594SOL    HW184629   6.130   2.147   4.317 -1.2275 -0.4553  1.0268
26594SOL    HW284630   6.201   2.080   4.201 -0.8230 -0.6988  1.4131
26595SOL     OW84631   1.932   0.122   2.660  0.5978 -0.3176 -0.2744
26595SOL    HW184632   1.988   0.051   2.629  1.8084  0.5832 -0.2441
26595SOL    HW284633   1.970   0.147   2.745 -0.5499 -0.4417  0.2872
26596SOL     OW84634   0.958   9.705   6.465  0.1542  0.3882 -0.2706
26596SOL    HW184635   0.873   9.663   6.479  0.0597 -0.0858 -2.0267
26596SOL    HW284636   0.951   9.746   6.379  2.1787 -0.9848 -1.1849
26597SOL     OW84637   7.917   3.599   4.986  0.3904 -0.0378 -0.5831
26597SOL    HW184638   7.867   3.518   4.979 -0.0234  0.0391  0.9753
26597SOL    HW284639   8.007   3.572   5.000  0.6630 -0.1849 -2.4061
26598SOL     OW84640   3.301   7.128   8.902  0.2406 -0.0765 -0.8124
26598SOL    HW184641   3.242   7.070   8.854 -0.7713 -0.5052  0.8577
26598SOL    HW284642   3.267   7.128   8.992  0.9499  2.1431 -0.4816
26599SOL     OW84643   8.763   4.696   8.309 -0.7300  0.8230 -0.1061
26599SOL    HW184644   8.831   4.725   8.249 -1.3740  1.1158 -0.7161
26599SOL    HW284645   8.708   4.638   8.257 -0.1385 -0.5812  0.7789
26600SOL     OW84646   5.013   6.407   8.986 -0.0443  0.1885  0.4857
26600SOL    HW184647   5.075   6.374   8.921  0.1055  0.1950  0.6269
26600SOL    HW284648   5.059   6.478   9.030 -0.0138 -0.0505  0.8443
26601SOL     OW84649   6.791   5.890   9.108  1.1177 -0.4365  0.1216
26601SOL    HW184650   6.714   5.946   9.122  1.6527  1.1252 -2.5013
26601SOL    HW284651   6.865   5.946   9.132  1.6996  0.3820 -3.1449
26602SOL     OW84652   3.113   1.838   0.864 -0.0376 -0.2728  0.3535
26602SOL    HW184653   3.091   1.829   0.957  0.7276  0.9610  0.6676
26602SOL    HW284654   3.198   1.796   0.855  0.9881  1.6435  0.7154
26603SOL     OW84655   1.354   0.556   6.281  0.0419  0.3522  0.1069
26603SOL    HW184656   1.370   0.476   6.231 -1.8605 -2.0436  3.0325
26603SOL    HW284657   1.433   0.566   6.335  0.7945  1.2169 -1.1028
26604SOL     OW84658   8.686   0.908   6.431 -0.1889  0.0690 -0.0333
26604SOL    HW184659   8.731   0.866   6.358  0.2005  1.5180 -0.6685
26604SOL    HW284660   8.671   0.998   6.401 -1.6046  0.2045  0.9934
26605SOL     OW84661   2.360   0.547   9.309 -0.2207  0.4693  0.2972
26605SOL    HW184662   2.376   0.598   9.230 -0.0069  2.0383  1.3061
26605SOL    HW284663   2.266   0.527   9.306 -0.1187  0.0649 -0.5785
26606SOL     OW84664   1.528   0.928   3.546 -0.0139 -0.0347 -0.7444
26606SOL    HW184665   1.550   0.966   3.630  1.3661 -0.4269 -0.9026
26606SOL    HW284666   1.478   0.995   3.501  0.2097  0.6079 -0.0476
26607SOL     OW84667   5.413   6.961   2.875 -0.7305  0.1820 -0.1840
26607SOL    HW184668   5.433   7.039   2.926  1.0535  0.1718 -0.7857
26607SOL    HW284669   5.323   6.973   2.846 -1.5317  0.5797  2.2191
26608SOL     OW84670   8.527   4.668   8.751 -0.1526  0.3889  0.3676
26608SOL    HW184671   8.535   4.753   8.795 -0.3774  1.1544 -1.0118
26608SOL    HW284672   8.602   4.618   8.782 -1.1225  0.3353  2.7742
26609SOL     OW84673   3.158   7.383   3.016  0.3970  0.4916  0.1607
26609SOL    HW184674   3.083   7.339   3.057 -0.1936  2.1460  0.9357
26609SOL    HW284675   3.147   7.365   2.923 -0.2706 -0.3147  0.3755
26610SOL     OW84676   4.710   2.523   6.086 -0.4046 -0.8616  0.1809
26610SOL    HW184677   4.734   2.452   6.144  1.5801  0.5118  1.1300
26610SOL    HW284678   4.791   2.547   6.041 -0.7799  1.3499  0.5497
26611SOL     OW84679   7.506   3.267   4.527 -0.7641 -0.0474 -0.4249
26611SOL    HW184680   7.478   3.222   4.607  0.1774  0.1222  0.0121
26611SOL    HW284681   7.508   3.198   4.461 -0.0838 -0.5025  0.0574
26612SOL     OW84682   0.379   8.152   8.257  0.3798  0.6335 -0.4035
26612SOL    HW184683   0.317   8.084   8.229  0.6671  0.9095 -1.7266
26612SOL    HW284684   0.419   8.184   8.177  0.5679  2.0890  0.2388
26613SOL     OW84685   1.544   8.033   6.412 -0.1848  0.3183 -0.0748
26613SOL    HW184686   1.565   8.059   6.322 -0.4992  2.0337  0.3018
26613SOL    HW284687   1.613   7.972   6.436  0.9950  1.2793 -0.8752
26614SOL     OW84688   6.617   2.012   1.598 -0.2806  0.6916 -0.3218
26614SOL    HW184689   6.712   2.023   1.607 -0.4581  0.8016  2.1828
26614SOL    HW284690   6.606   1.921   1.572  0.5208  0.7284 -0.8277
26615SOL     OW84691   0.653   1.281   2.011 -0.1523 -0.4106 -0.1070
26615SOL    HW184692   0.746   1.301   2.006 -0.3864  0.6595 -0.6192
26615SOL    HW284693   0.627   1.310   2.099 -0.6918  2.7676 -1.1716
26616SOL     OW84694   1.154   7.119   3.889 -0.1740 -0.5685  0.3863
26616SOL    HW184695   1.120   7.078   3.969  0.0565  0.8012  1.2165
26616SOL    HW284696   1.218   7.184   3.920  1.3592 -1.3357 -1.0193
26617SOL     OW84697   4.053   4.952   1.209 -0.4941 -0.3138 -0.1436
26617SOL    HW184698   3.988   4.952   1.138  1.0905  0.5755 -1.6654
26617SOL    HW284699   4.120   5.013   1.180 -0.5864  1.4920  2.9258
26618SOL     OW84700   9.342   9.511   8.068  0.3193  0.1662 -0.0414
26618SOL    HW184701   9.285   9.577   8.027 -1.1828 -1.7411 -1.2192
26618SOL    HW284702   9.343   9.534   8.160 -1.0619  1.2125 -0.2516
26619SOL     OW84703   5.621   3.113   6.171 -0.1706 -0.4709  0.0097
26619SOL    HW184704   5.678   3.171   6.120 -0.1455 -0.8449 -0.3864
26619SOL    HW284705   5.547   3.095   6.113 -1.1164  0.6780  0.8135
26620SOL     OW84706   1.821   8.502   3.759  0.2586  0.3663  0.1591
26620SOL    HW184707   1.763   8.457   3.821 -0.9693  0.7908 -0.6412
26620SOL    HW284708   1.858   8.575   3.810 -1.2062  1.0772  0.2795
26621SOL     OW84709   6.278   0.651   3.193  0.4434  0.1900  0.9821
26621SOL    HW184710   6.192   0.619   3.165  1.0635  1.7341 -3.4848
26621SOL    HW284711   6.330   0.572   3.206 -0.4528 -0.7549 -0.8440
26622SOL     OW84712   7.369   3.768   0.501 -0.0200 -0.6219 -0.0056
26622SOL    HW184713   7.428   3.837   0.470 -0.2662 -0.7324 -0.7533
26622SOL    HW284714   7.393   3.691   0.450 -1.6991 -0.3187 -1.3341
26623SOL     OW84715   8.499   9.568   2.166 -0.1986  0.0076  0.2065
26623SOL    HW184716   8.556   9.627   2.118  0.4606 -0.6395  0.1742
26623SOL    HW284717   8.431   9.624   2.202 -1.6243  0.3678 -2.7338
26624SOL     OW84718   1.375   6.551   6.184  0.2798 -0.0231  0.5032
26624SOL    HW184719   1.382   6.546   6.089 -0.8985 -1.1085  0.4539
26624SOL    HW284720   1.299   6.607   6.200  1.5390  1.6822  0.8688
26625SOL     OW84721   8.635   0.191   3.959 -0.3099 -0.4633  0.2403
26625SOL    HW184722   8.567   0.153   4.015  0.2196  0.0895  1.2714
26625SOL    HW284723   8.679   0.255   4.014 -1.3724  1.9068 -1.5221
26626SOL     OW84724   0.409   6.892   9.085 -0.1346 -0.6497 -0.2523
26626SOL    HW184725   0.500   6.863   9.082 -0.0282 -0.2443 -1.2898
26626SOL    HW284726   0.358   6.812   9.089  0.2876 -0.8871  2.4763
26627SOL     OW84727   8.702   4.078   9.186  0.4322  0.1923  0.3628
26627SOL    HW184728   8.623   4.084   9.241 -0.3418 -2.5536 -0.2774
26627SOL    HW284729   8.756   4.013   9.229  0.5171 -0.8602 -1.2696
26628SOL     OW84730   1.619   2.382   0.404  0.2602 -0.5199  0.3368
26628SOL    HW184731   1.597   2.385   0.498 -1.1769 -0.3909  0.0260
26628SOL    HW284732   1.565   2.450   0.365  3.5845  2.0524 -0.1417
26629SOL     OW84733   0.153   9.296   6.588  0.5856  0.1625 -0.0716
26629SOL    HW184734   0.220   9.359   6.615  1.3458  0.0537 -1.5595
26629SOL    HW284735   0.072   9.345   6.587  0.8564  0.6321  0.5666
26630SOL     OW84736   5.040   9.403   0.379 -0.1581  0.2231 -0.4546
26630SOL    HW184737   5.108   9.340   0.403 -0.9648 -0.4343  0.1538
26630SOL    HW284738   5.083   9.462   0.317  1.1644  0.2156  0.4072
26631SOL     OW84739   7.904   3.005   6.751 -0.2393 -0.5986  0.6185
26631SOL    HW184740   7.846   3.068   6.708  1.9617  1.4506  0.3933
26631SOL    HW284741   7.866   2.992   6.837  0.1360  2.5777  1.3809
26632SOL     OW84742   6.747   4.703   0.427 -0.1454 -0.0396  0.4490
26632SOL    HW184743   6.709   4.781   0.386 -0.9320  1.3462  3.5279
26632SOL    HW284744   6.838   4.726   0.443  0.7007 -1.3053 -2.0329
26633SOL     OW84745   6.026   6.016   2.616 -0.2336 -0.3406 -0.3990
26633SOL    HW184746   5.934   5.990   2.617 -1.0533  2.2456 -0.0739
26633SOL    HW284747   6.061   5.983   2.698 -0.2882 -3.0107 -1.3618
26634SOL     OW84748   0.790   0.791   3.651  0.3592 -0.3668  0.5015
26634SOL    HW184749   0.776   0.885   3.662 -0.7025 -0.6211  1.5993
26634SOL    HW284750   0.868   0.772   3.703  0.5125 -0.1110  0.3667
26635SOL     OW84751   9.348   2.911   5.894 -0.6065  0.4395 -0.3857
26635SOL    HW184752   9.434   2.915   5.853 -0.2889  0.1750  0.2422
26635SOL    HW284753   9.366   2.896   5.986 -1.3322  0.1764 -0.2778
26636SOL     OW84754   3.845   6.640   1.173  0.0809 -1.2919  0.2343
26636SOL    HW184755   3.905   6.646   1.098 -1.2098 -2.6391 -0.9506
26636SOL    HW284756   3.775   6.701   1.153  0.6244 -0.2787  1.2681
26637SOL     OW84757   2.281   1.234   5.042 -0.3142 -0.1812  0.9289
26637SOL    HW184758   2.249   1.144   5.037 -0.0641 -0.1760 -2.1243
26637SOL    HW284759   2.347   1.240   4.973  1.6501  1.6324  2.8171
26638SOL     OW84760   1.150   2.172   7.233 -0.5428 -0.6284  0.5177
26638SOL    HW184761   1.080   2.214   7.183  0.4525  0.7499  0.2181
26638SOL    HW284762   1.227   2.225   7.214  0.2757 -1.2604  1.9757
26639SOL     OW84763   8.789   8.368   4.403  0.1117  0.2726  0.2076
26639SOL    HW184764   8.705   8.397   4.366 -0.2262 -0.9996 -0.0715
26639SOL    HW284765   8.789   8.403   4.492 -0.6494  0.4200  0.1574
26640SOL     OW84766   4.721   7.372   2.185 -0.1808 -0.0795 -0.0792
26640SOL    HW184767   4.704   7.466   2.175  0.4812 -0.0348 -0.9242
26640SOL    HW284768   4.646   7.330   2.144  0.0808  0.0943 -0.7536
26641SOL     OW84769   6.463   8.310   2.253 -0.2967 -0.0281 -0.3150
26641SOL    HW184770   6.491   8.267   2.334  1.5985  0.7638 -0.4896
26641SOL    HW284771   6.372   8.334   2.268 -1.0793 -2.9696  0.2328
26642SOL     OW84772   0.494   1.854   4.148 -0.6094  0.0948  0.8234
26642SOL    HW184773   0.459   1.795   4.215 -1.9666 -1.1887 -0.9200
26642SOL    HW284774   0.433   1.845   4.075  1.0603  1.1290 -0.7562
26643SOL     OW84775   8.684   1.954   2.212 -0.1355 -0.2489 -0.1824
26643SOL    HW184776   8.684   1.930   2.120 -2.1137  1.1026 -0.5801
26643SOL    HW284777   8.694   2.049   2.213  1.0539 -0.3572  1.0698
26644SOL     OW84778   2.723   6.680   9.407 -0.5069  0.2181  0.0368
26644SOL    HW184779   2.738   6.588   9.430 -0.2612  0.7314  2.0996
26644SOL    HW284780   2.777   6.693   9.329  0.6021 -1.0338  0.5300
26645SOL     OW84781   8.813   4.550   5.712 -0.2572  0.3694  0.0609
26645SOL    HW184782   8.884   4.498   5.674 -0.7134 -0.1235 -0.1301
26645SOL    HW284783   8.816   4.531   5.805 -0.0110  0.5142  0.0849
26646SOL     OW84784   3.605   5.490   8.031 -0.2406  0.0480 -0.2411
26646SOL    HW184785   3.557   5.407   8.026 -0.0708 -0.0525 -0.2291
26646SOL    HW284786   3.539   5.557   8.017 -0.5380 -0.0552  0.6118
26647SOL     OW84787   1.045   5.014   7.486 -0.4002 -0.8222  0.5383
26647SOL    HW184788   1.013   5.053   7.405 -2.0211 -1.3538  0.8824
26647SOL    HW284789   1.037   5.084   7.551  0.4335 -0.5467  0.3518
26648SOL     OW84790   4.987   8.440   2.948  0.0447  0.2920  0.1303
26648SOL    HW184791   5.038   8.434   3.028  0.4004 -0.7730 -0.1616
26648SOL    HW284792   5.013   8.523   2.909 -0.3939  0.9956  1.2794
26649SOL     OW84793   5.575   5.304   7.230  0.0445 -0.2213  0.6468
26649SOL    HW184794   5.561   5.213   7.204  1.7851 -0.1297 -0.7413
26649SOL    HW284795   5.487   5.343   7.227 -0.4057 -1.2433 -1.1419
26650SOL     OW84796   0.751   7.752   7.059 -0.6202  0.2709 -0.2843
26650SOL    HW184797   0.752   7.825   6.998 -0.3299  0.4031 -0.1281
26650SOL    HW284798   0.692   7.779   7.129 -0.9562  0.1170 -0.5112
26651SOL     OW84799   3.367   2.134   4.539  0.2016 -0.8719 -0.0225
26651SOL    HW184800   3.288   2.084   4.522 -0.8406  0.8013 -0.4152
26651SOL    HW284801   3.385   2.180   4.456  1.7643 -1.4288 -0.0321
26652SOL     OW84802   2.381   3.739   2.593  0.3018 -0.3493 -0.0095
26652SOL    HW184803   2.437   3.790   2.535  0.7584 -1.8500 -0.9213
26652SOL    HW284804   2.308   3.712   2.539  0.4512 -1.3054  0.2531
26653SOL     OW84805   6.192   6.106   4.450 -0.3498 -0.2277 -0.0066
26653SOL    HW184806   6.161   6.118   4.539 -0.8429 -2.5195  0.1877
26653SOL    HW284807   6.130   6.156   4.396 -1.3016 -0.5377  0.7733
26654SOL     OW84808   8.381   2.553   2.256  0.0744 -0.4017  0.1390
26654SOL    HW184809   8.332   2.488   2.206  1.8858 -1.8243  0.1101
26654SOL    HW284810   8.337   2.636   2.238 -0.6328 -1.1967 -2.0596
26655SOL     OW84811   4.917   8.135   1.764 -0.0442 -0.4656 -0.0285
26655SOL    HW184812   4.847   8.179   1.813  0.7485 -0.8423  1.5268
26655SOL    HW284813   4.894   8.148   1.672 -2.6550 -1.3478  0.3970
26656SOL     OW84814   4.260   6.916   9.398  0.1792  0.0700  0.3698
26656SOL    HW184815   4.210   6.983   9.445  1.1024  1.3508 -0.4074
26656SOL    HW284816   4.287   6.854   9.465  0.8035  1.4431  1.4399
26657SOL     OW84817   3.919   0.319   9.652  0.8974  0.2335  0.2575
26657SOL    HW184818   3.955   0.363   9.575  0.8333 -0.6470 -0.2899
26657SOL    HW284819   3.975   0.346   9.724  1.7476  0.0712 -0.3287
26658SOL     OW84820   9.303   7.798   8.484 -0.1012 -0.3919  0.2541
26658SOL    HW184821   9.292   7.745   8.563 -1.1842  0.1537  0.4814
26658SOL    HW284822   9.214   7.810   8.450  0.2028  0.6357 -0.2186
26659SOL     OW84823   8.925   7.264   2.437 -0.1915  0.3977  0.0313
26659SOL    HW184824   8.874   7.185   2.419  1.2106 -0.8502  1.2563
26659SOL    HW284825   8.863   7.324   2.478 -1.0155 -0.5329  0.1767
26660SOL     OW84826   1.280   4.970   5.544 -0.1689  0.3607 -0.3572
26660SOL    HW184827   1.199   4.991   5.591 -0.7920 -3.1271  0.3949
26660SOL    HW284828   1.251   4.938   5.459  0.5001  0.0622 -0.4803
26661SOL     OW84829   0.468   5.490   4.136 -0.0786  0.2597 -0.2119
26661SOL    HW184830   0.400   5.426   4.115 -0.0222  0.3625 -0.7172
26661SOL    HW284831   0.467   5.495   4.232  0.7107 -1.3679 -0.0721
26662SOL     OW84832   2.549   2.674   8.733  0.5670 -0.2967 -0.4741
26662SOL    HW184833   2.625   2.721   8.698  0.0078  1.2259  0.2960
26662SOL    HW284834   2.580   2.636   8.815  0.9405 -1.0494 -0.9569
26663SOL     OW84835   1.578   5.303   5.985  0.1694 -0.4429  0.1807
26663SOL    HW184836   1.498   5.277   6.031  0.7929  0.3901  1.8428
26663SOL    HW284837   1.644   5.309   6.054  1.0412  1.3709 -0.7389
26664SOL     OW84838   0.205   0.389   8.443 -0.2747 -0.0079 -0.6132
26664SOL    HW184839   0.223   0.445   8.369  3.3114 -0.1470 -0.0057
26664SOL    HW284840   0.187   0.449   8.515  1.2000  0.3455 -0.5090
26665SOL     OW84841   2.609   3.846   1.092 -0.0473 -0.1843 -0.1411
26665SOL    HW184842   2.693   3.827   1.133  0.9219  1.7702 -1.0923
26665SOL    HW284843   2.611   3.800   1.008  0.3346  0.3388 -0.4214
26666SOL     OW84844   4.380   5.965   9.268  0.0020 -0.3023 -0.5109
26666SOL    HW184845   4.302   5.914   9.247 -0.1672 -0.0873 -0.4044
26666SOL    HW284846   4.441   5.946   9.196 -0.9039  1.1583 -1.7176
26667SOL     OW84847   9.272   4.481   4.535  0.1963  0.1618  0.2852
26667SOL    HW184848   9.305   4.520   4.455  0.0146  0.0248  0.1428
26667SOL    HW284849   9.349   4.471   4.591  0.1611  1.2028  0.5314
26668SOL     OW84850   5.395   0.622   4.292 -0.2662  0.4594  0.4169
26668SOL    HW184851   5.452   0.662   4.226  0.1013  0.7486  0.9086
26668SOL    HW284852   5.358   0.545   4.248  1.6353 -0.5944  0.5526
26669SOL     OW84853   8.138   3.482   0.639 -0.0846 -0.1145 -0.7759
26669SOL    HW184854   8.145   3.424   0.715  1.1810 -0.3352 -1.0342
26669SOL    HW284855   8.197   3.554   0.658 -1.0095  0.6895 -0.8394
26670SOL     OW84856   0.583   2.987   1.830 -0.4982 -0.8618 -0.0062
26670SOL    HW184857   0.506   2.932   1.821  0.3377 -2.1271  0.3664
26670SOL    HW284858   0.627   2.981   1.745 -0.8479 -0.0573 -0.2554
26671SOL     OW84859   4.993   5.514   2.656 -0.0723  0.1910 -0.2954
26671SOL    HW184860   5.065   5.567   2.622 -0.6418  0.8330 -0.5474
26671SOL    HW284861   5.011   5.505   2.749  0.0179  0.8711 -0.2424
26672SOL     OW84862   1.758   6.377   0.588 -0.3771 -0.2521  0.1875
26672SOL    HW184863   1.695   6.333   0.646 -0.2247 -0.9295 -0.1549
26672SOL    HW284864   1.715   6.459   0.565 -0.9941 -0.5500  0.2372
26673SOL     OW84865   4.139   0.934   8.228  0.6620  0.2408  0.3848
26673SOL    HW184866   4.187   1.014   8.249  2.1055 -0.8011  1.1900
26673SOL    HW284867   4.181   0.901   8.149  0.3402  0.0535  0.2888
26674SOL     OW84868   4.089   8.489   4.247 -0.2492  0.1502 -0.2394
26674SOL    HW184869   4.134   8.427   4.190 -1.7948 -0.3384 -1.0072
26674SOL    HW284870   4.033   8.435   4.303  0.1095  0.7256  0.6974
26675SOL     OW84871   5.525   3.395   2.824 -0.1218 -0.1641 -0.4490
26675SOL    HW184872   5.541   3.466   2.886 -2.6849  0.5994 -0.5375
26675SOL    HW284873   5.543   3.315   2.874 -0.6520  0.4766  0.8166
26676SOL     OW84874   1.268   0.632   3.771  0.3995  0.0401  0.4734
26676SOL    HW184875   1.352   0.646   3.729 -0.3069 -0.8526 -1.3291
26676SOL    HW284876   1.289   0.621   3.864  2.1913  0.3551  0.1353
26677SOL     OW84877   1.016   2.396   8.156 -0.3316 -0.0904  0.1842
26677SOL    HW184878   1.073   2.449   8.100  0.7482 -0.5892  0.7800
26677SOL    HW284879   0.950   2.361   8.096  1.5442 -1.6458 -1.0896
26678SOL     OW84880   8.054   8.892   4.033 -0.4015 -0.3683 -0.1828
26678SOL    HW184881   8.016   8.964   4.082 -2.8611 -0.3285 -1.9570
26678SOL    HW284882   7.996   8.817   4.050  0.0217 -0.9510 -1.1883
26679SOL     OW84883   4.786   3.960   1.462 -0.1023  0.2521  0.1862
26679SOL    HW184884   4.730   3.893   1.501  1.1061 -0.3454  0.9507
26679SOL    HW284885   4.763   4.040   1.510 -0.7384  0.1627  0.0486
26680SOL     OW84886   1.889   9.523   5.687 -0.1858  0.3056 -0.1554
26680SOL    HW184887   1.867   9.598   5.741 -0.0491 -0.0433  0.3894
26680SOL    HW284888   1.806   9.495   5.650 -0.2043  0.8650 -0.5487
26681SOL     OW84889   7.700   5.262   5.523  0.9669 -0.8222  0.0892
26681SOL    HW184890   7.739   5.266   5.610  1.7521 -0.5029 -0.2639
26681SOL    HW284891   7.608   5.244   5.539  1.0382 -0.4572  1.0035
26682SOL     OW84892   2.423   0.224   1.124 -0.1913 -0.2287  0.5573
26682SOL    HW184893   2.346   0.169   1.140 -1.9996  2.0847  0.3178
26682SOL    HW284894   2.403   0.269   1.041  1.7924 -0.1374  0.0876
26683SOL     OW84895   8.918   8.029   0.086  0.6661  0.2150 -0.7875
26683SOL    HW184896   9.000   8.071   0.110  0.2441  0.2073  0.7789
26683SOL    HW284897   8.888   8.078   0.009  1.6520  0.8459 -0.7885
26684SOL     OW84898   4.255   4.114   1.589 -0.8366 -0.0246 -0.4742
26684SOL    HW184899   4.233   4.128   1.497  1.5354 -0.1876 -1.1426
26684SOL    HW284900   4.283   4.022   1.592  1.1655  0.5468 -0.1121
26685SOL     OW84901   2.515   5.839   8.592 -0.6077  0.1862  0.3986
26685SOL    HW184902   2.610   5.847   8.585 -0.4096  0.3027  2.5290
26685SOL    HW284903   2.499   5.745   8.607 -0.9323  0.0121 -0.9374
26686SOL     OW84904   8.596   6.515   0.412 -0.8579 -0.4217  0.1080
26686SOL    HW184905   8.680   6.478   0.439 -0.8086 -0.8990 -0.6655
26686SOL    HW284906   8.577   6.472   0.329 -1.5048  0.2450 -0.0939
26687SOL     OW84907   3.134   0.055   6.006 -0.2166  0.4237 -0.5939
26687SOL    HW184908   3.108   0.037   6.096  1.3227 -1.3315 -0.4491
26687SOL    HW284909   3.068   0.011   5.953 -0.5609  0.6077 -0.3277
26688SOL     OW84910   5.920   8.888   5.261  0.2164  0.2940 -0.0230
26688SOL    HW184911   5.906   8.862   5.352  1.3543 -0.5192 -0.0594
26688SOL    HW284912   5.994   8.948   5.265  0.9544 -0.5734 -0.5252
26689SOL     OW84913   5.097   0.109   8.805 -0.2265 -0.6936  0.1445
26689SOL    HW184914   5.117   0.015   8.802  1.7266 -0.3239  0.1604
26689SOL    HW284915   5.142   0.140   8.884 -1.7729  0.0978  0.7654
26690SOL     OW84916   8.393   8.500   4.191 -0.0464 -0.1307 -0.1047
26690SOL    HW184917   8.479   8.462   4.175 -0.0598 -0.2313  0.0518
26690SOL    HW284918   8.410   8.593   4.209  0.0309 -0.1531 -0.0625
26691SOL     OW84919   7.429   3.705   8.747 -0.0306  0.5369 -0.1524
26691SOL    HW184920   7.518   3.727   8.775  0.4218 -2.0941  0.6823
26691SOL    HW284921   7.428   3.725   8.653  1.1864  1.2536 -0.0380
26692SOL     OW84922   8.329   6.465   9.705 -0.4130 -0.5719  0.3724
26692SOL    HW184923   8.421   6.436   9.709  0.5966  1.9011 -1.6177
26692SOL    HW284924   8.286   6.400   9.650  0.7955 -0.5035 -0.7115
26693SOL     OW84925   0.994   6.872   5.006  0.2355 -0.3255 -0.0229
26693SOL    HW184926   1.015   6.910   5.092  0.6464 -1.0009  0.1804
26693SOL    HW284927   1.031   6.934   4.943  3.4038 -1.7098  0.3077
26694SOL     OW84928   2.066   9.651   6.612 -0.0118 -1.0033  0.3978
26694SOL    HW184929   2.071   9.744   6.589 -0.6833 -0.0446  3.6499
26694SOL    HW284930   2.069   9.605   6.528  1.8497  1.8500 -1.2440
26695SOL     OW84931   4.319   9.350   0.739  0.3630  0.4884 -0.0602
26695SOL    HW184932   4.411   9.333   0.717  0.2182  0.0343 -0.3204
26695SOL    HW284933   4.269   9.298   0.676 -0.0802 -1.3131  1.6625
26696SOL     OW84934   5.345   6.747   3.340 -0.5328  0.2097  0.2503
26696SOL    HW184935   5.266   6.791   3.372 -1.4335 -1.8399  1.0324
26696SOL    HW284936   5.320   6.655   3.335  1.8398 -0.5046  0.5411
26697SOL     OW84937   8.302   6.964   3.454  0.7382  0.8320  0.3284
26697SOL    HW184938   8.374   7.009   3.499 -0.5125  1.9647  1.2910
26697SOL    HW284939   8.267   6.904   3.520  1.5576 -0.6652 -0.5409
26698SOL     OW84940   9.126   3.088   1.899  0.0966  0.0732  0.1874
26698SOL    HW184941   9.089   3.166   1.858  0.1927  1.2486  2.1796
26698SOL    HW284942   9.182   3.050   1.832 -0.0631  1.6547 -0.9008
26699SOL     OW84943   8.533   4.448   6.364  0.4440 -0.0502  0.5492
26699SOL    HW184944   8.493   4.506   6.299  1.8498  0.3275  0.0050
26699SOL    HW284945   8.619   4.484   6.380  0.9797 -1.4322  0.9395
26700SOL     OW84946   1.040   7.281   8.372 -0.4032 -0.1333  0.6853
26700SOL    HW184947   1.073   7.286   8.283 -0.2872  0.3350  0.7528
26700SOL    HW284948   1.109   7.237   8.421  0.4098  1.3945  0.9571
26701SOL     OW84949   7.405   4.643   7.375 -0.1082  0.3026  0.2833
26701SOL    HW184950   7.392   4.550   7.357  0.0679  0.2333  0.5108
26701SOL    HW284951   7.500   4.655   7.373 -0.1442  0.5453 -0.0792
26702SOL     OW84952   8.820   1.432   3.851 -0.1678  0.0661  0.2392
26702SOL    HW184953   8.765   1.482   3.911  1.5331  1.1267  0.9904
26702SOL    HW284954   8.870   1.373   3.909  1.2291  0.8455 -0.1329
26703SOL     OW84955   1.273   0.046   0.016  0.0132  0.1133 -0.8939
26703SOL    HW184956   1.348  -0.006  -0.011 -0.8164 -1.7782  0.2459
26703SOL    HW284957   1.275   0.042   0.112 -0.8224  1.1051 -0.8176
26704SOL     OW84958   3.808   6.706   5.413 -0.5966 -0.0468 -0.6909
26704SOL    HW184959   3.882   6.645   5.407 -0.7767 -0.4315  0.7731
26704SOL    HW284960   3.835   6.781   5.359  1.1510  0.0964  0.2998
26705SOL     OW84961   2.812   9.028   6.915 -0.3075  0.4949  0.4763
26705SOL    HW184962   2.760   9.087   6.969 -1.9665 -0.0200 -0.4643
26705SOL    HW284963   2.852   9.085   6.849 -1.2866  0.7047  0.0330
26706SOL     OW84964   9.309   3.685   4.307  0.9485 -0.3308 -0.5432
26706SOL    HW184965   9.370   3.678   4.379  0.8272  2.5733 -0.0524
26706SOL    HW284966   9.359   3.659   4.230  2.1516 -0.0719  0.1331
26707SOL     OW84967   9.591   4.929   7.811  0.6773 -0.4304  0.0565
26707SOL    HW184968   9.612   4.962   7.723  0.1136 -2.6249 -0.9714
26707SOL    HW284969   9.662   4.961   7.866  0.8921  1.2564 -1.1158
26708SOL     OW84970   5.576   8.361   5.289 -0.7100  0.2858 -0.4040
26708SOL    HW184971   5.509   8.390   5.351 -1.3225  0.9407 -1.3405
26708SOL    HW284972   5.656   8.353   5.342 -1.7106 -1.4770  0.9384
26709SOL     OW84973   0.757   3.225   8.860  0.0906 -0.2645 -0.3658
26709SOL    HW184974   0.738   3.318   8.851  0.5421 -0.1485 -0.1445
26709SOL    HW284975   0.819   3.206   8.789  1.8678  0.1443  0.9950
26710SOL     OW84976   5.243   2.824   9.183 -0.1793 -0.3526  0.3223
26710SOL    HW184977   5.275   2.815   9.094 -0.4937  0.1762  0.1552
26710SOL    HW284978   5.318   2.802   9.238  1.0732  2.5544 -0.0319
26711SOL     OW84979   0.722   8.683   6.149 -0.0303  0.6918  0.6136
26711SOL    HW184980   0.695   8.591   6.146  1.3312  0.2820  0.0899
26711SOL    HW284981   0.658   8.725   6.207 -1.7113 -0.2152 -0.5052
26712SOL     OW84982   6.329   7.056   7.055 -0.2245 -0.1435  0.8764
26712SOL    HW184983   6.314   6.970   7.016 -3.2321 -0.0314  1.4941
26712SOL    HW284984   6.324   7.117   6.981  0.4658 -0.3863  0.6275
26713SOL     OW84985   4.838   8.042   3.531  0.0532 -0.5316  0.5976
26713SOL    HW184986   4.880   7.974   3.477  1.9708  0.0727  1.2550
26713SOL    HW284987   4.744   8.025   3.521  0.4331 -2.3480 -0.4391
26714SOL     OW84988   6.435   5.599   7.400 -0.0692  0.0349  0.2866
26714SOL    HW184989   6.488   5.584   7.478  0.9194  2.2814  0.1153
26714SOL    HW284990   6.360   5.650   7.431 -1.2469 -1.5533  0.2061
26715SOL     OW84991   8.826   2.600   6.962  0.5630 -0.1070  0.9599
26715SOL    HW184992   8.865   2.653   6.893  0.5672  0.9174  1.7354
26715SOL    HW284993   8.893   2.535   6.984  0.8623  0.0634  0.5484
26716SOL     OW84994   8.822   7.432   4.275 -0.0726  0.1968 -0.0314
26716SOL    HW184995   8.735   7.450   4.311  0.0606  0.4699  0.1665
26716SOL    HW284996   8.863   7.375   4.340  0.1868  0.7320  0.2792
26717SOL     OW84997   1.050   4.312   0.433 -0.5046  0.2427 -0.4833
26717SOL    HW184998   1.099   4.390   0.408  4.0479 -2.2810 -0.5385
26717SOL    HW284999   1.047   4.258   0.353  1.7400 -1.9411  0.7370
26718SOL     OW85000   3.155   1.941   5.542  0.5662 -0.5946 -0.5256
26718SOL    HW185001   3.108   1.928   5.624  1.9965 -0.5269  0.3522
26718SOL    HW285002   3.101   2.001   5.492  1.4216  2.5835  2.0147
26719SOL     OW85003   2.794   2.985   4.228  0.3951  0.2527 -0.4214
26719SOL    HW185004   2.842   2.989   4.145  0.6411  1.1007 -0.2557
26719SOL    HW285005   2.735   2.910   4.219  0.9140 -0.0819 -1.0900
26720SOL     OW85006   4.505   8.846   3.748  0.1106  0.3066 -0.0897
26720SOL    HW185007   4.578   8.908   3.739  1.8825 -1.5820  0.4486
26720SOL    HW285008   4.531   8.771   3.695 -0.8027 -0.9382  1.1551
26721SOL     OW85009   2.445   7.711   6.257  0.6080  0.3827 -0.6541
26721SOL    HW185010   2.457   7.708   6.162 -2.4305 -1.1421 -1.1150
26721SOL    HW285011   2.423   7.803   6.276 -0.1045  0.4355 -1.6690
26722SOL     OW85012   7.016   0.499   3.996 -0.5809 -0.4235 -0.1607
26722SOL    HW185013   7.044   0.572   3.941 -0.9820  0.3862  0.6841
26722SOL    HW285014   7.086   0.490   4.062 -1.5257  0.6336  1.0436
26723SOL     OW85015   2.112   3.307   4.437  0.3730  0.2255  0.5294
26723SOL    HW185016   2.175   3.270   4.500 -0.6094  0.1162  1.4737
26723SOL    HW285017   2.160   3.381   4.397  0.9073  0.5306  1.6700
26724SOL     OW85018   8.408   7.972   9.142 -0.2017 -0.0589  0.2776
26724SOL    HW185019   8.351   7.906   9.102  1.4770 -1.2658 -0.2815
26724SOL    HW285020   8.473   7.921   9.190  0.9893  1.1892  0.0671
26725SOL     OW85021   0.246   1.202   3.288  1.2046  0.0833  0.1290
26725SOL    HW185022   0.177   1.136   3.277  1.2161  0.3348 -1.7693
26725SOL    HW285023   0.320   1.153   3.323  0.8471 -0.6812 -0.1474
26726SOL     OW85024   6.907   2.566   2.939  0.4071 -0.2547  0.5282
26726SOL    HW185025   6.877   2.484   2.980 -2.0901  0.5801  0.5336
26726SOL    HW285026   6.832   2.596   2.888  1.4669  1.7641  0.0627
26727SOL     OW85027   9.639   8.650   8.393  0.1353 -0.0672  0.1814
26727SOL    HW185028   9.622   8.558   8.411 -0.0169 -0.0701  0.0345
26727SOL    HW285029   9.682   8.683   8.472 -0.8462  0.0095  0.7028
26728SOL     OW85030   7.613   3.807   6.580 -0.1644  0.0136  0.1997
26728SOL    HW185031   7.702   3.780   6.603  0.1086  1.1725  0.5676
26728SOL    HW285032   7.589   3.750   6.508  2.0676  1.6374 -2.0402
26729SOL     OW85033   0.195   9.191   9.196 -0.9531 -0.3933 -0.0490
26729SOL    HW185034   0.279   9.216   9.233  0.0691 -1.8403 -1.2674
26729SOL    HW285035   0.200   9.219   9.104 -1.8187 -0.4482 -0.1225
26730SOL     OW85036   9.486   1.012   9.463 -0.4245 -0.0424 -0.2779
26730SOL    HW185037   9.528   0.933   9.429 -1.3338 -0.3806 -0.6431
26730SOL    HW285038   9.392   0.993   9.461 -0.6372  0.8761  0.0685
26731SOL     OW85039   8.298   2.267   2.814  0.0898  0.1571 -0.3420
26731SOL    HW185040   8.323   2.206   2.745  0.5662 -0.1120  0.0622
26731SOL    HW285041   8.236   2.219   2.868  0.8585 -0.1475  0.2709
26732SOL     OW85042   8.123   9.690   3.559 -0.2043 -0.1762 -0.6775
26732SOL    HW185043   8.149   9.632   3.631 -1.4026 -2.1671 -1.7546
26732SOL    HW285044   8.183   9.667   3.488  0.1535  0.8811 -0.7382
26733SOL     OW85045   7.485   8.658   2.436 -0.0239  0.6508 -0.2943
26733SOL    HW185046   7.561   8.612   2.473 -0.1476  2.1973  2.0724
26733SOL    HW285047   7.410   8.602   2.457  0.0218  1.0563  1.0077
26734SOL     OW85048   2.534   5.985   7.193 -0.2032 -0.5534  0.0485
26734SOL    HW185049   2.537   5.954   7.103  0.0328  0.5940 -0.3503
26734SOL    HW285050   2.445   6.019   7.204 -0.2357 -0.7005  0.2559
26735SOL     OW85051   0.916   4.836   3.898 -0.2832 -0.1377  0.7057
26735SOL    HW185052   0.865   4.878   3.967  0.3968  1.1528  0.4430
26735SOL    HW285053   0.985   4.899   3.877  1.1557 -1.6262  0.7323
26736SOL     OW85054   7.185   8.718   6.568  0.3862  0.6077  0.4965
26736SOL    HW185055   7.113   8.749   6.622  1.1202  0.9194  1.3265
26736SOL    HW285056   7.219   8.641   6.614 -0.0655 -0.1684 -0.4334
26737SOL     OW85057   5.117   1.487   9.175  0.4129  0.2445 -0.0394
26737SOL    HW185058   5.176   1.520   9.242 -0.8583 -0.2595  1.3773
26737SOL    HW285059   5.129   1.547   9.101  0.1961  2.2221  1.4398
26738SOL     OW85060   8.837   4.662   0.911 -0.3645 -0.3682 -0.2892
26738SOL    HW185061   8.777   4.698   0.976  0.0791 -1.3115  0.6691
26738SOL    HW285062   8.886   4.594   0.957  1.6748  0.5713 -0.9301
26739SOL     OW85063   1.842   4.111   7.904  0.0785 -0.3283 -0.4266
26739SOL    HW185064   1.784   4.039   7.925 -0.1418 -0.8272 -2.5050
26739SOL    HW285065   1.784   4.181   7.874  0.3588  0.3677  0.6043
26740SOL     OW85066   2.730   0.176   2.850  0.1477  0.0488 -0.4380
26740SOL    HW185067   2.651   0.132   2.819  0.1392  1.0617 -2.0116
26740SOL    HW285068   2.790   0.172   2.775  0.2262  2.4452 -0.5801
26741SOL     OW85069   8.208   5.641   9.422 -0.5370  0.4138  0.5143
26741SOL    HW185070   8.114   5.640   9.404 -0.2509  1.7976 -1.2857
26741SOL    HW285071   8.235   5.731   9.403  1.0243  0.2588  1.8170
26742SOL     OW85072   2.708   1.384   8.692  0.3988  0.5404  0.5646
26742SOL    HW185073   2.762   1.338   8.756  1.5190 -0.1395 -0.8309
26742SOL    HW285074   2.730   1.345   8.608 -1.0040  1.4443 -0.2737
26743SOL     OW85075   0.760   1.442   9.010  0.5004 -0.3997 -0.5529
26743SOL    HW185076   0.807   1.380   8.954  1.1276 -0.0334 -0.4415
26743SOL    HW285077   0.784   1.528   8.975  2.2487 -0.0734  1.2703
26744SOL     OW85078   1.466   1.415   6.099 -0.1414 -0.1066  0.0627
26744SOL    HW185079   1.441   1.414   6.007  2.4697  0.8034 -0.7569
26744SOL    HW285080   1.442   1.502   6.130  0.9527  0.3783 -0.4117
26745SOL     OW85081   2.661   7.800   7.972 -0.0492  0.1052  0.1486
26745SOL    HW185082   2.650   7.737   8.042 -3.4435  1.0379  0.6150
26745SOL    HW285083   2.697   7.878   8.014  0.3443 -0.1634  0.3174
26746SOL     OW85084   8.094   7.992   7.155 -0.1173 -0.0682  0.0538
26746SOL    HW185085   8.123   8.044   7.080 -0.3155  1.1463  0.7853
26746SOL    HW285086   8.067   8.057   7.220 -0.3763 -1.0986  1.0110
26747SOL     OW85087   6.355   8.488   0.366  0.4292  0.0959  0.4462
26747SOL    HW185088   6.319   8.541   0.295  0.4118  0.9016  1.0435
26747SOL    HW285089   6.447   8.474   0.341  0.0482 -0.8984 -0.4590
26748SOL     OW85090   5.163   6.841   2.939  0.0853  0.1924 -0.6584
26748SOL    HW185091   5.209   6.774   2.988 -0.2447  1.4880  1.5555
26748SOL    HW285092   5.071   6.814   2.942 -0.1953  1.1845  1.1382
26749SOL     OW85093   0.808   1.867   5.527  0.0540 -0.3425 -0.3038
26749SOL    HW185094   0.735   1.834   5.475  0.1926 -0.9231 -0.1426
26749SOL    HW285095   0.884   1.817   5.497  0.1170 -0.7661  0.5124
26750SOL     OW85096   5.357   3.602   4.397 -0.4196 -0.0753  0.0665
26750SOL    HW185097   5.424   3.537   4.421  0.5949  0.2322 -1.7511
26750SOL    HW285098   5.278   3.550   4.381 -0.0076 -0.6969  0.0047
26751SOL     OW85099   3.844   0.258   8.493 -0.3345 -0.2599  0.0479
26751SOL    HW185100   3.851   0.316   8.417 -1.3920 -0.0869  0.0699
26751SOL    HW285101   3.852   0.170   8.457 -0.9097 -0.1809 -0.2813
26752SOL     OW85102   6.107   2.916   1.166  0.5967 -0.4278 -0.3958
26752SOL    HW185103   6.091   2.826   1.195  2.1759 -1.4412 -2.3968
26752SOL    HW285104   6.021   2.948   1.139 -0.5058 -0.2573  2.8620
26753SOL     OW85105   7.409   3.348   7.252 -0.5562  0.2694  0.3592
26753SOL    HW185106   7.358   3.370   7.331  0.2038  0.6020  0.7664
26753SOL    HW285107   7.343   3.319   7.189 -1.5317  2.6392  0.1601
26754SOL     OW85108   0.856   2.090   2.197  0.5082 -0.3543 -0.1599
26754SOL    HW185109   0.831   2.182   2.205  1.5675  0.0448 -1.1372
26754SOL    HW285110   0.913   2.073   2.272  3.1098  0.8079 -1.7372
26755SOL     OW85111   8.364   1.080   3.322  0.2102  0.3253 -0.8064
26755SOL    HW185112   8.443   1.039   3.358  0.5061  1.0248 -0.6535
26755SOL    HW285113   8.376   1.173   3.337 -0.5707  0.4554 -0.9439
26756SOL     OW85114   2.663   5.469   2.107  0.0401 -0.0476 -0.4206
26756SOL    HW185115   2.590   5.531   2.098 -0.8411 -0.8606  0.8867
26756SOL    HW285116   2.664   5.421   2.024 -0.6004  0.2928 -0.6333
26757SOL     OW85117   3.363   8.553   8.948 -0.7557  0.0132  0.1880
26757SOL    HW185118   3.400   8.498   8.880 -0.0175 -0.0654  0.6411
26757SOL    HW285119   3.339   8.634   8.904 -1.5405 -0.5393 -0.4177
26758SOL     OW85120   8.477   4.340   3.938 -0.1048  0.3922 -0.5600
26758SOL    HW185121   8.481   4.408   3.871  0.0810  1.9851  0.9903
26758SOL    HW285122   8.388   4.345   3.972  0.3440  0.9243  0.5889
26759SOL     OW85123   3.543   0.631   0.115 -0.0143 -0.3135  0.5992
26759SOL    HW185124   3.637   0.638   0.098  0.3702  0.7296  2.7913
26759SOL    HW285125   3.513   0.722   0.119 -0.9249 -0.6178  0.9836
26760SOL     OW85126   3.648   6.175   8.584  0.0423 -0.2380 -0.0974
26760SOL    HW185127   3.674   6.169   8.492 -0.5336  1.8277 -0.4464
26760SOL    HW285128   3.644   6.084   8.614 -0.0418 -0.9716 -2.1818
26761SOL     OW85129   1.043   8.167   1.884  0.4273  0.7113  0.1350
26761SOL    HW185130   1.059   8.217   1.805 -1.2226  1.1448  0.0287
26761SOL    HW285131   1.017   8.080   1.852  0.5779  0.6342  0.2239
26762SOL     OW85132   8.548   3.147   8.746  0.4823 -0.0636 -0.3897
26762SOL    HW185133   8.498   3.229   8.746  0.5712  0.0186  0.7051
26762SOL    HW285134   8.530   3.110   8.833  2.7892  0.2781  0.2920
26763SOL     OW85135   9.224   5.584   1.309  0.0808 -0.5349 -0.6717
26763SOL    HW185136   9.168   5.508   1.291  1.1529 -1.6893  0.6386
26763SOL    HW285137   9.233   5.585   1.404  2.1184 -0.2819 -0.8245
26764SOL     OW85138   1.266   2.285   2.791 -0.0158 -0.2785 -0.3113
26764SOL    HW185139   1.180   2.288   2.833 -0.4702 -3.0499 -0.8158
26764SOL    HW285140   1.254   2.333   2.709 -0.3417  1.4659  0.7219
26765SOL     OW85141   6.114   5.192   5.395  0.2382 -0.2969 -0.0381
26765SOL    HW185142   6.098   5.177   5.488  0.0012  0.2604  0.0174
26765SOL    HW285143   6.207   5.173   5.383 -0.0739 -1.9990 -0.0354
26766SOL     OW85144   3.886   0.869   9.513  0.1841 -0.2869  0.5270
26766SOL    HW185145   3.908   0.785   9.473 -1.3395 -0.3302 -0.2736
26766SOL    HW285146   3.850   0.922   9.441 -3.4077 -0.6452  1.8777
26767SOL     OW85147   2.574   2.536   1.216  0.0470  0.0941 -0.8209
26767SOL    HW185148   2.558   2.591   1.293 -0.2070 -1.1030  0.0102
26767SOL    HW285149   2.489   2.497   1.196  0.6241 -1.6886 -0.0328
26768SOL     OW85150   8.429   4.604   7.085  0.1920 -0.0920  0.0260
26768SOL    HW185151   8.406   4.595   7.178  0.3686  0.3753  0.1229
26768SOL    HW285152   8.497   4.539   7.071  1.8279  1.3429  0.8325
26769SOL     OW85153   5.900   7.100   3.956 -0.1294  0.5117  0.0584
26769SOL    HW185154   5.905   7.160   4.030 -0.9272  0.4130  0.1951
26769SOL    HW285155   5.988   7.061   3.952 -0.0933  0.4618  1.0029
26770SOL     OW85156   6.153   7.610   1.764 -0.1004 -0.2023 -0.5641
26770SOL    HW185157   6.105   7.620   1.846 -1.6312 -1.2230 -1.2910
26770SOL    HW285158   6.240   7.647   1.782 -0.2391 -0.8136  1.6394
26771SOL     OW85159   5.361   8.092   4.584  0.3249 -0.2799  0.6646
26771SOL    HW185160   5.321   8.100   4.497  0.7910 -0.7207  0.4039
26771SOL    HW285161   5.420   8.017   4.577  2.7645  1.5346  0.4194
26772SOL     OW85162   6.760   0.284   2.861 -0.4212  0.5723  0.5530
26772SOL    HW185163   6.801   0.273   2.947 -0.7980  0.4678  0.7233
26772SOL    HW285164   6.727   0.374   2.862 -0.5301  0.5317  0.5618
26773SOL     OW85165   3.308   6.607   1.108  0.0276  0.4293  0.1236
26773SOL    HW185166   3.320   6.535   1.046  1.8224 -0.0486  0.9442
26773SOL    HW285167   3.336   6.685   1.060 -1.2122  0.4956 -0.5260
26774SOL     OW85168   2.184   7.365   6.612  0.1244  0.4437 -0.2491
26774SOL    HW185169   2.210   7.437   6.670 -0.1622  0.5264 -0.2218
26774SOL    HW285170   2.261   7.350   6.557  0.1889  0.7635 -0.2473
26775SOL     OW85171   4.665   1.579   7.117 -0.6049  0.3244  0.6380
26775SOL    HW185172   4.738   1.626   7.158 -0.3749  0.0713  0.5251
26775SOL    HW285173   4.620   1.645   7.065 -1.2115  0.7758  1.6942
26776SOL     OW85174   9.499   6.973   1.362  0.3472  1.1020  0.2796
26776SOL    HW185175   9.439   7.048   1.354  1.3868  1.7572 -2.3640
26776SOL    HW285176   9.450   6.899   1.326  0.8084  1.4942 -1.2378
26777SOL     OW85177   0.064   1.358   1.342  0.4346  0.4942 -0.4162
26777SOL    HW185178   0.158   1.342   1.350  0.5226  1.0501 -0.2418
26777SOL    HW285179   0.056   1.414   1.265  0.1026 -0.6517 -1.2359
26778SOL     OW85180   8.212   6.394   4.900  0.0688 -0.0416  0.8004
26778SOL    HW185181   8.253   6.315   4.865 -1.3347 -0.4945  0.1416
26778SOL    HW285182   8.118   6.381   4.886 -0.2035  1.6291  0.9009
26779SOL     OW85183   9.481   4.679   6.362  0.1135  0.1079  0.0959
26779SOL    HW185184   9.474   4.743   6.432 -0.6244  3.2025 -2.5238
26779SOL    HW285185   9.390   4.657   6.340  0.0868  1.8332 -1.9223
26780SOL     OW85186   9.562   0.901   8.747 -0.1719  0.6228 -0.1650
26780SOL    HW185187   9.647   0.913   8.705  1.0170 -0.4924  1.7505
26780SOL    HW285188   9.498   0.928   8.681  1.6947  4.4226 -0.7142
26781SOL     OW85189   3.148   1.203   6.911  0.4580  0.2397 -0.1625
26781SOL    HW185190   3.120   1.189   6.820 -1.1699  1.0613  0.1685
26781SOL    HW285191   3.223   1.145   6.922  0.4062 -0.2276 -1.8900
26782SOL     OW85192   2.916   8.108   2.535 -0.1877  0.0281  0.3450
26782SOL    HW185193   2.987   8.157   2.576 -0.5495  2.5725 -1.7863
26782SOL    HW285194   2.837   8.142   2.575 -0.5165  2.2516 -1.9411
26783SOL     OW85195   9.006   0.445   5.065 -0.4879 -0.9209 -0.5101
26783SOL    HW185196   9.055   0.412   5.139 -0.3816 -0.1977 -0.2435
26783SOL    HW285197   9.057   0.420   4.988 -0.4803 -1.4711 -0.3255
26784SOL     OW85198   6.429   7.116   4.824  0.5968  0.2123  0.3158
26784SOL    HW185199   6.425   7.210   4.843  0.3772 -0.3944  3.9616
26784SOL    HW285200   6.523   7.095   4.829  0.6498  0.1958 -0.5360
26785SOL     OW85201   6.457   5.759   0.641  0.0221  0.1803 -0.5293
26785SOL    HW185202   6.550   5.739   0.649  0.2999  1.2443 -0.8973
26785SOL    HW285203   6.416   5.675   0.622  1.1097 -0.0654 -2.0021
26786SOL     OW85204   3.420   5.330   8.329  0.0573 -0.1307  0.0878
26786SOL    HW185205   3.407   5.236   8.335 -1.4912  0.0014 -0.7680
26786SOL    HW285206   3.434   5.359   8.419  0.3456 -1.1364  0.3707
26787SOL     OW85207   1.801   5.052   0.281 -0.4187 -0.3540  0.0771
26787SOL    HW185208   1.863   5.110   0.235  1.2245 -0.5503  1.9211
26787SOL    HW285209   1.728   5.041   0.219  0.1169  2.0818 -1.1091
26788SOL     OW85210   5.012   6.832   6.740 -0.3913  0.6074 -0.0059
26788SOL    HW185211   5.062   6.853   6.661  0.0087 -0.6668 -0.1065
26788SOL    HW285212   5.071   6.778   6.793 -1.0575  0.5110  0.6579
26789SOL     OW85213   1.616   6.842   3.768  0.3614 -0.3842  0.1288
26789SOL    HW185214   1.702   6.884   3.764 -0.3077  0.9896 -1.2253
26789SOL    HW285215   1.594   6.823   3.676 -0.6680 -0.9367  0.4667
26790SOL     OW85216   3.617   3.105   3.859 -0.0656  0.2077  0.3063
26790SOL    HW185217   3.673   3.118   3.782  0.2770 -1.9416  0.1208
26790SOL    HW285218   3.678   3.093   3.932 -0.2128 -1.7886  0.1630
26791SOL     OW85219   5.098   9.483   4.066 -0.6782 -0.2586 -0.2200
26791SOL    HW185220   5.184   9.524   4.073 -0.4107 -0.8170 -0.2071
26791SOL    HW285221   5.106   9.401   4.114 -1.5139  0.1373  0.6161
26792SOL     OW85222   5.598   1.569   9.366  0.2292 -0.1395  0.0940
26792SOL    HW185223   5.639   1.616   9.439 -0.3499  1.1060 -0.3536
26792SOL    HW285224   5.584   1.480   9.399  0.4594  0.2620  1.3102
26793SOL     OW85225   6.065   9.115   0.214 -0.1309 -0.6943  0.1966
26793SOL    HW185226   6.001   9.050   0.185 -0.9092  0.3091 -0.4153
26793SOL    HW285227   6.120   9.069   0.277 -0.3819 -2.0603 -0.5498
26794SOL     OW85228   8.177   6.070   6.099  0.2858  0.5752 -0.3955
26794SOL    HW185229   8.246   6.004   6.097  0.0190  0.2585  0.5988
26794SOL    HW285230   8.224   6.153   6.108  0.5169  0.2656  1.6449
26795SOL     OW85231   1.715   8.703   3.052  1.0421  0.4755 -0.4723
26795SOL    HW185232   1.731   8.665   3.138  2.6616 -0.2205 -1.0574
26795SOL    HW285233   1.781   8.771   3.042  0.6148  0.8310 -1.0155
26796SOL     OW85234   0.247   7.195   4.231 -0.2251 -0.3691 -0.4845
26796SOL    HW185235   0.245   7.213   4.325  0.4097 -1.2820 -0.2770
26796SOL    HW285236   0.316   7.252   4.197 -0.2720 -0.2328 -0.3507
26797SOL     OW85237   3.865   1.110   3.722 -0.2348 -0.1103  0.1238
26797SOL    HW185238   3.928   1.167   3.766  0.5917 -0.6268 -0.3535
26797SOL    HW285239   3.825   1.060   3.793  0.4713 -0.3318  0.3847
26798SOL     OW85240   2.458   3.702   1.905 -0.0425 -0.1567 -0.2369
26798SOL    HW185241   2.545   3.709   1.864  1.0380 -0.1883  1.8952
26798SOL    HW285242   2.407   3.647   1.846  1.6472 -0.7926 -1.1648
26799SOL     OW85243   8.807   7.351   0.497 -0.4839 -0.5579  0.9630
26799SOL    HW185244   8.753   7.348   0.419 -0.6319  0.7314  0.9911
26799SOL    HW285245   8.749   7.383   0.566 -0.2125 -1.1419  1.4791
26800SOL     OW85246   0.230   9.048   1.196 -0.5025 -0.1482  0.0803
26800SOL    HW185247   0.288   9.062   1.121 -0.4157 -1.6266 -0.1434
26800SOL    HW285248   0.204   9.137   1.222 -0.8221  0.3959 -1.9247
26801SOL     OW85249   8.645   3.762   9.561  0.1779 -0.4018 -0.1245
26801SOL    HW185250   8.589   3.834   9.532 -0.1808 -0.8289 -0.5140
26801SOL    HW285251   8.732   3.801   9.567 -0.2058  0.3548  0.8302
26802SOL     OW85252   1.234   1.673   8.471 -0.5077  0.0932 -0.4196
26802SOL    HW185253   1.174   1.748   8.468  0.6926  1.0819 -0.4494
26802SOL    HW285254   1.313   1.703   8.427  0.3146 -0.9036  0.3230
26803SOL     OW85255   0.640   5.957   5.409 -0.6660 -0.1396  0.1436
26803SOL    HW185256   0.551   5.938   5.379 -0.7847  0.0383  0.3894
26803SOL    HW285257   0.667   6.033   5.358 -1.1047  0.5639  0.9356
26804SOL     OW85258   3.054   6.774   7.244  0.1312 -0.3313 -0.5107
26804SOL    HW185259   3.106   6.695   7.228  0.6821  0.1869 -1.3543
26804SOL    HW285260   2.964   6.743   7.249  0.5291 -1.3948  1.8743
26805SOL     OW85261   5.125   8.047   0.981  0.2943  0.0899 -0.2386
26805SOL    HW185262   5.202   8.016   1.028  1.1466  0.6777 -1.2179
26805SOL    HW285263   5.136   8.142   0.976 -0.3828  0.1590 -0.5750
26806SOL     OW85264   1.827   8.722   1.101  0.6082  0.5152 -0.0607
26806SOL    HW185265   1.782   8.716   1.016  0.8032 -0.6109 -0.1059
26806SOL    HW285266   1.793   8.647   1.150 -0.3822  1.8157  1.3056
26807SOL     OW85267   0.501   6.981   4.464 -0.2254 -0.4145  1.2281
26807SOL    HW185268   0.554   7.048   4.506  0.5026 -0.3277  0.1963
26807SOL    HW285269   0.552   6.900   4.474  1.1413  0.0011 -1.4825
26808SOL     OW85270   7.225   2.029   8.303  0.0176 -0.3360  0.4915
26808SOL    HW185271   7.231   2.124   8.315 -0.3411 -0.3743  1.0121
26808SOL    HW285272   7.139   2.006   8.337  0.4883 -0.9810  1.2941
26809SOL     OW85273   9.726   2.561   4.207 -0.2301 -0.9855  0.1401
26809SOL    HW185274   9.648   2.518   4.171  1.3412 -2.3170 -1.9509
26809SOL    HW285275   9.763   2.496   4.268 -0.3326 -0.6988  0.5062
26810SOL     OW85276   8.272   6.516   9.308  0.4826 -0.2272  0.0388
26810SOL    HW185277   8.266   6.470   9.225  0.0902  0.3846 -0.2751
26810SOL    HW285278   8.347   6.574   9.298 -1.1491  1.8509 -0.9223
26811SOL     OW85279   5.055   8.295   5.960 -0.3400 -0.4103 -0.1095
26811SOL    HW185280   5.106   8.230   5.911  0.2395 -0.1935  0.2005
26811SOL    HW285281   4.966   8.286   5.926 -0.1969 -1.1368 -0.3033
26812SOL     OW85282   8.789   7.375   4.834 -0.2841 -0.4936  0.5222
26812SOL    HW185283   8.768   7.282   4.843  2.0215 -0.9358  3.0040
26812SOL    HW285284   8.882   7.376   4.811 -1.1506  1.2880 -3.8218
26813SOL     OW85285   9.340   2.076   8.147  0.0037  0.0429  0.1233
26813SOL    HW185286   9.404   2.134   8.105  1.9188 -1.7746  0.3888
26813SOL    HW285287   9.298   2.030   8.075  0.5553 -0.3205  0.0310
26814SOL     OW85288   7.724   2.670   7.290  0.4767 -0.3101  0.0202
26814SOL    HW185289   7.820   2.663   7.289  0.6008 -0.5608  3.0733
26814SOL    HW285290   7.694   2.586   7.255  1.4890 -1.5159  1.8566
26815SOL     OW85291   7.024   9.083   9.250 -0.2249  0.1301 -0.1232
26815SOL    HW185292   6.954   9.034   9.207  0.6596  0.4439 -2.0510
26815SOL    HW285293   6.979   9.137   9.315 -1.7665  0.1854 -1.1792
26816SOL     OW85294   9.672   3.818   9.032 -0.1090  0.9104 -0.2345
26816SOL    HW185295   9.712   3.735   9.005  2.7359  2.2309 -0.3865
26816SOL    HW285296   9.677   3.816   9.128  0.5239  1.1375 -0.2570
26817SOL     OW85297   5.775   7.291   2.406 -0.1449 -0.3576 -0.8299
26817SOL    HW185298   5.804   7.375   2.370  0.1598  0.9459  2.2123
26817SOL    HW285299   5.746   7.311   2.494  0.8767 -3.5986  0.3877
26818SOL     OW85300   2.960   4.815   5.083 -0.0550  0.3210  0.6588
26818SOL    HW185301   2.884   4.798   5.138  0.7578  2.0649  2.4312
26818SOL    HW285302   2.924   4.858   5.005 -1.1970 -1.9947 -0.1861
26819SOL     OW85303   3.800   0.504   7.637  0.4226 -0.2064  0.1945
26819SOL    HW185304   3.765   0.461   7.714 -1.2936 -0.2367 -0.5545
26819SOL    HW285305   3.724   0.522   7.582  1.1051  3.0476  0.0673
26820SOL     OW85306   4.412   0.977   7.763  1.1224  0.4556 -0.4259
26820SOL    HW185307   4.450   0.892   7.783 -0.4404  0.0698  1.1562
26820SOL    HW285308   4.353   0.961   7.689  1.7674  0.4660 -0.9609
26821SOL     OW85309   1.899   3.090   4.521  0.1914  0.0332 -0.1935
26821SOL    HW185310   1.973   3.035   4.493  2.0356  2.0322  0.4195
26821SOL    HW285311   1.919   3.111   4.612 -1.6955 -0.1620  0.2898
26822SOL     OW85312   8.343   8.588   7.647  0.1198 -0.4974  0.0859
26822SOL    HW185313   8.411   8.630   7.594 -1.2104  1.2435 -0.3213
26822SOL    HW285314   8.282   8.552   7.583 -0.7388  0.3457  0.4072
26823SOL     OW85315   4.605   6.364   8.108  0.1301 -0.5635  0.0145
26823SOL    HW185316   4.540   6.315   8.158 -1.1600  0.5933 -0.4784
26823SOL    HW285317   4.558   6.395   8.031  1.2445  0.3682 -0.3221
26824SOL     OW85318   3.982   2.405   4.297  0.7402 -0.2232 -0.5283
26824SOL    HW185319   3.914   2.377   4.358  0.6711 -0.6377 -0.7930
26824SOL    HW285320   3.941   2.474   4.244  1.1495  0.9696  0.6431
26825SOL     OW85321   4.459   9.627   0.626  0.2641 -0.1717 -0.9615
26825SOL    HW185322   4.407   9.707   0.615 -0.0431  0.2568  2.4236
26825SOL    HW285323   4.397   9.562   0.659  1.3983 -0.2294  1.2508
26826SOL     OW85324   1.832   1.651   0.142 -0.0921 -0.0316  0.1170
26826SOL    HW185325   1.908   1.648   0.200  0.3249 -0.0555 -0.4200
26826SOL    HW285326   1.758   1.671   0.200  0.3672  0.2823  0.6051
26827SOL     OW85327   7.732   2.246   6.853 -0.4994  0.3197 -0.3424
26827SOL    HW185328   7.782   2.165   6.842  0.6183  1.0771 -1.0775
26827SOL    HW285329   7.744   2.270   6.945 -1.7824 -0.9230  0.1790
26828SOL     OW85330   9.322   0.498   4.859 -0.7045  0.0819  0.1697
26828SOL    HW185331   9.360   0.517   4.773 -0.3864  2.0271  0.6976
26828SOL    HW285332   9.275   0.416   4.847  1.3952 -1.0179 -1.2160
26829SOL     OW85333   3.259   2.773   9.458 -0.0841 -0.5032 -0.4280
26829SOL    HW185334   3.352   2.755   9.445 -0.0083 -0.1759 -0.3439
26829SOL    HW285335   3.224   2.785   9.370  0.5294  2.2318 -0.3674
26830SOL     OW85336   0.932   8.270   2.123  0.2906 -0.4411 -0.0945
26830SOL    HW185337   1.017   8.261   2.080  0.4018  1.5991 -0.4276
26830SOL    HW285338   0.920   8.365   2.132 -1.1412 -0.7218  1.5896
26831SOL     OW85339   6.168   5.200   0.462 -0.3291 -0.1880 -0.1625
26831SOL    HW185340   6.180   5.194   0.367 -1.1875 -0.3797 -0.2690
26831SOL    HW285341   6.079   5.166   0.477 -0.4660  0.4968  0.6354
26832SOL     OW85342   4.931   3.027   2.299  0.2398 -0.3831 -0.1395
26832SOL    HW185343   4.996   3.076   2.249  1.5419  3.0457  4.2415
26832SOL    HW285344   4.874   3.094   2.336 -2.2171 -2.8500  0.8917
26833SOL     OW85345   0.134   2.123   6.084  0.4348 -0.7073  0.4731
26833SOL    HW185346   0.092   2.209   6.081 -0.7526 -1.2792 -2.5126
26833SOL    HW285347   0.081   2.068   6.026  1.4717 -3.3368  1.8651
26834SOL     OW85348   2.261   2.763   7.250  0.0815  0.2500  0.0367
26834SOL    HW185349   2.289   2.850   7.222 -1.3525  0.4923 -0.7526
26834SOL    HW285350   2.342   2.716   7.267  0.9029  2.3490  2.5394
26835SOL     OW85351   0.762   3.510   0.716 -0.4736 -0.0194 -0.2915
26835SOL    HW185352   0.705   3.552   0.781 -1.0623 -2.0621  0.5943
26835SOL    HW285353   0.824   3.460   0.768 -0.5432 -1.1894 -1.2945
26836SOL     OW85354   9.225   4.636   6.247  0.1052 -0.1027  0.4987
26836SOL    HW185355   9.134   4.640   6.276 -0.4949 -0.0371 -1.2760
26836SOL    HW285356   9.228   4.689   6.167  2.5355  3.0077  2.4141
26837SOL     OW85357   7.220   1.635   5.788  0.4359 -0.3766  0.2357
26837SOL    HW185358   7.251   1.685   5.864  1.2291  0.7482 -0.7790
26837SOL    HW285359   7.134   1.602   5.814  0.4540  0.4371  1.4276
26838SOL     OW85360   5.613   4.021   8.346  0.1586 -0.0493 -0.0787
26838SOL    HW185361   5.682   4.053   8.288 -1.3354  0.5183 -1.6569
26838SOL    HW285362   5.597   4.094   8.406  1.2655 -0.3909  0.6649
26839SOL     OW85363   5.466   0.604   0.675  0.6863 -0.6175 -0.0589
26839SOL    HW185364   5.380   0.601   0.716  0.8159  0.2250  0.3090
26839SOL    HW285365   5.468   0.690   0.631  0.4947 -1.5376 -1.9626
26840SOL     OW85366   1.695   3.957   9.477 -0.8404 -0.4618  0.3341
26840SOL    HW185367   1.765   3.894   9.492  2.0841  2.6808  0.9070
26840SOL    HW285368   1.707   3.985   9.386 -0.3430  1.1801  0.8796
26841SOL     OW85369   9.171   3.479   8.792 -0.1366 -0.0608  0.3840
26841SOL    HW185370   9.222   3.471   8.873 -0.3656  0.5023  0.5917
26841SOL    HW285371   9.212   3.417   8.731 -1.0035 -1.7539  1.4442
26842SOL     OW85372   8.643   3.190   6.054 -0.8184 -0.2152  0.3615
26842SOL    HW185373   8.736   3.168   6.048 -0.8515 -0.3497  0.3319
26842SOL    HW285374   8.610   3.134   6.124 -0.8830 -0.1881  0.3526
26843SOL     OW85375   2.667   0.165   4.707  0.1707  0.1890  0.1256
26843SOL    HW185376   2.688   0.076   4.733 -0.3422  0.1348  0.3645
26843SOL    HW285377   2.697   0.220   4.780 -0.7112  0.0914  0.5690
26844SOL     OW85378   0.230   2.759   9.708 -0.0788 -0.1571 -0.5912
26844SOL    HW185379   0.267   2.671   9.715  0.9623  0.0256 -2.8511
26844SOL    HW285380   0.267   2.794   9.627 -1.5463  1.8551 -0.4687
26845SOL     OW85381   1.547   7.704   0.187  0.2263  0.3936 -0.3304
26845SOL    HW185382   1.569   7.771   0.123  0.1384  1.8179  1.0746
26845SOL    HW285383   1.479   7.652   0.144  0.1184  1.3440 -1.3599
26846SOL     OW85384   8.334   7.534   0.552 -0.0092  0.4392 -0.0761
26846SOL    HW185385   8.252   7.534   0.602  0.1641  1.1234  0.2177
26846SOL    HW285386   8.327   7.457   0.496 -1.3282  1.0426 -0.8205
26847SOL     OW85387   7.910   0.288   0.835 -0.1053  0.1816  0.2934
26847SOL    HW185388   7.957   0.358   0.881  1.5634 -0.9370  0.3762
26847SOL    HW285389   7.864   0.333   0.764  1.8286  1.2674 -0.3562
26848SOL     OW85390   2.761   2.757   2.005 -0.2593  0.0452 -0.7616
26848SOL    HW185391   2.696   2.732   1.939 -1.0170  1.3067 -0.5291
26848SOL    HW285392   2.753   2.852   2.012 -0.4642 -0.0740  1.3899
26849SOL     OW85393   2.067   8.720   6.923  0.0854 -0.3661  0.0215
26849SOL    HW185394   2.032   8.716   7.012  2.3637 -0.2900  0.9758
26849SOL    HW285395   2.119   8.641   6.913  1.8913  0.7879 -0.2938
26850SOL     OW85396   9.339   9.093   0.183 -0.9011 -0.2087  0.0331
26850SOL    HW185397   9.358   9.034   0.256  2.5850  0.0330 -0.5494
26850SOL    HW285398   9.283   9.041   0.125 -0.0876 -2.0047  0.7873
26851SOL     OW85399   5.057   8.734   0.221 -0.0777 -0.1416 -0.1449
26851SOL    HW185400   4.969   8.720   0.185 -0.9065  4.3105 -0.4006
26851SOL    HW285401   5.115   8.726   0.145 -0.3174 -2.1777 -0.1543
26852SOL     OW85402   4.727   1.427   7.527  0.2549 -0.3484  0.1088
26852SOL    HW185403   4.775   1.398   7.605  3.9804 -0.7496 -2.0804
26852SOL    HW285404   4.771   1.508   7.501 -1.5570  0.3095 -1.0570
26853SOL     OW85405   4.436   2.758   0.705  0.0101 -0.4862  0.3221
26853SOL    HW185406   4.501   2.747   0.635  0.2111  1.6961  0.0787
26853SOL    HW285407   4.398   2.671   0.717  1.6166 -1.4152 -0.8693
26854SOL     OW85408   2.773   7.390   7.911 -0.3644 -0.1087 -0.2073
26854SOL    HW185409   2.770   7.316   7.850  0.8727 -1.8441  1.7196
26854SOL    HW285410   2.860   7.427   7.899 -0.3042 -0.1376  0.1460
26855SOL     OW85411   4.410   3.954   8.762  0.3535  0.4971  0.6005
26855SOL    HW185412   4.353   3.891   8.718 -0.0584 -0.7346  2.7408
26855SOL    HW285413   4.499   3.922   8.746  0.2033  0.0173  0.7081
26856SOL     OW85414   1.680   8.266   6.460  0.3309  0.2917  0.2763
26856SOL    HW185415   1.628   8.318   6.399  0.0231 -0.1569  0.1470
26856SOL    HW285416   1.639   8.179   6.458  1.2934 -0.1690 -0.0844
26857SOL     OW85417   6.738   1.582   7.366  0.3672 -0.4735 -0.3788
26857SOL    HW185418   6.783   1.663   7.344  0.8309 -0.8109 -0.7004
26857SOL    HW285419   6.752   1.572   7.460  0.5766 -0.3391 -0.3932
26858SOL     OW85420   7.008   3.392   5.519  0.3014 -0.6214  0.6006
26858SOL    HW185421   6.955   3.382   5.439  0.2406 -1.6110  0.7547
26858SOL    HW285422   6.955   3.449   5.575  0.8073  0.9408 -0.4514
26859SOL     OW85423   4.590   7.919   3.210  0.3336 -0.5223  0.2152
26859SOL    HW185424   4.617   7.885   3.295 -1.1893  0.3525  1.0796
26859SOL    HW285425   4.672   7.932   3.162  1.2497 -0.5538  1.7203
26860SOL     OW85426   1.358   8.139   7.170  0.0310 -0.5513  0.2197
26860SOL    HW185427   1.314   8.055   7.178  0.7094 -1.1428 -1.6655
26860SOL    HW285428   1.452   8.118   7.171  0.2048  0.0795 -0.8863
26861SOL     OW85429   6.873   9.140   2.612  0.0014  0.0121 -0.5815
26861SOL    HW185430   6.944   9.179   2.561 -0.0761  2.8423  1.2654
26861SOL    HW285431   6.905   9.142   2.702 -1.7173 -0.3758  0.0705
26862SOL     OW85432   4.678   8.052   6.857 -0.2798 -0.3672  0.4088
26862SOL    HW185433   4.635   8.108   6.922 -2.0101 -0.8426 -0.2771
26862SOL    HW285434   4.752   8.013   6.905  0.2266  1.5038  1.2384
26863SOL     OW85435   0.796   0.426   4.226  0.0572 -0.2759  0.1664
26863SOL    HW185436   0.754   0.340   4.215 -1.0369 -0.0692  2.1294
26863SOL    HW285437   0.723   0.486   4.240  0.9067  0.4899  1.5095
26864SOL     OW85438   2.631   1.483   4.744 -0.0233 -0.3887  0.2770
26864SOL    HW185439   2.558   1.428   4.773 -0.1905 -0.8255 -0.8907
26864SOL    HW285440   2.706   1.454   4.795 -0.0143 -2.0262 -0.5991
26865SOL     OW85441   6.762   0.365   5.997 -0.3954  0.0456  0.0431
26865SOL    HW185442   6.714   0.286   6.021  1.4870 -0.9634  0.7287
26865SOL    HW285443   6.854   0.339   6.001  0.2292  1.6688 -1.9577
26866SOL     OW85444   3.992   2.464   8.606  0.1240 -0.0985 -0.2602
26866SOL    HW185445   3.982   2.483   8.512 -0.2354  0.6772 -0.0736
26866SOL    HW285446   3.949   2.537   8.650  1.5813  0.3287  0.5316
26867SOL     OW85447   2.886   0.412   6.250 -0.0845  0.7565 -0.2436
26867SOL    HW185448   2.871   0.424   6.344 -0.4235  0.4701 -0.2559
26867SOL    HW285449   2.801   0.431   6.210 -0.1327  0.1775 -0.4261
26868SOL     OW85450   4.535   9.739   7.892  0.3697  0.1834 -0.1126
26868SOL    HW185451   4.441   9.725   7.904  0.0484  0.7241 -1.8479
26868SOL    HW285452   4.570   9.741   7.982 -0.9824 -1.7543  0.5254
26869SOL     OW85453   5.801   4.245   8.620  0.0284  0.4863 -0.0229
26869SOL    HW185454   5.762   4.158   8.629 -0.3987  0.5755 -0.9114
26869SOL    HW285455   5.786   4.287   8.705 -3.2882  1.0903 -0.7584
26870SOL     OW85456   5.882   0.356   1.618  0.7048  0.1480  0.1824
26870SOL    HW185457   5.949   0.389   1.557  1.9079  0.6683  1.7041
26870SOL    HW285458   5.905   0.264   1.632  1.7467  0.5617  1.4338
26871SOL     OW85459   0.643   4.021   1.080 -0.1997 -0.3713  0.3496
26871SOL    HW185460   0.575   4.017   1.013 -0.2084  0.8921  0.2762
26871SOL    HW285461   0.696   4.097   1.057 -0.5207  0.4192  2.0608
26872SOL     OW85462   7.744   4.779   2.621 -0.6346 -0.0174  0.6644
26872SOL    HW185463   7.691   4.857   2.609 -0.3283 -0.1028 -1.7598
26872SOL    HW285464   7.760   4.747   2.532 -0.7855 -2.8724  1.5700
26873SOL     OW85465   4.258   1.783   1.986  0.1052  0.6181  0.2706
26873SOL    HW185466   4.228   1.853   2.044  0.7163  0.2620  1.0370
26873SOL    HW285467   4.350   1.803   1.971 -0.2254  1.1586 -1.2693
26874SOL     OW85468   9.592   7.235   7.165  0.4921 -0.0997 -0.7123
26874SOL    HW185469   9.578   7.144   7.140 -1.6113 -0.3188  0.9459
26874SOL    HW285470   9.510   7.279   7.142  0.4242  0.7369  0.9349
26875SOL     OW85471   9.503   1.409   2.403 -0.2916  0.1536  0.5649
26875SOL    HW185472   9.513   1.474   2.472 -1.0861 -0.4594  1.2928
26875SOL    HW285473   9.421   1.363   2.425  0.7136 -1.7245  0.6533
26876SOL     OW85474   1.750   2.635   3.602  0.4664  0.6708  0.2665
26876SOL    HW185475   1.706   2.551   3.614  1.2395  0.1224 -0.6082
26876SOL    HW285476   1.755   2.647   3.507  3.1373  0.1679  0.2638
26877SOL     OW85477   2.327   4.061   2.506 -0.3095  0.1464 -0.0656
26877SOL    HW185478   2.320   4.014   2.589 -0.2012 -2.0464 -1.2196
26877SOL    HW285479   2.381   4.004   2.451  0.5272  2.0380 -1.3192
26878SOL     OW85480   7.272   4.589   3.038  0.4581  0.0368 -0.0754
26878SOL    HW185481   7.346   4.584   2.977  0.1468 -1.7594 -0.3639
26878SOL    HW285482   7.240   4.499   3.043 -0.4187  0.4168  1.6609
26879SOL     OW85483   2.574   9.742   0.039  0.0275  0.0033 -0.6151
26879SOL    HW185484   2.621   9.802  -0.018  0.0840  0.5521 -0.0004
26879SOL    HW285485   2.485   9.774   0.042  0.1095  0.1996 -0.1054
26880SOL     OW85486   8.193   4.764   2.485 -0.6287  0.2592  0.3375
26880SOL    HW185487   8.104   4.758   2.450 -0.8017  2.0497  0.4049
26880SOL    HW285488   8.202   4.854   2.514  1.1951  0.0958  0.4081
26881SOL     OW85489   5.217   0.529   8.222  0.2530 -0.2377 -0.4719
26881SOL    HW185490   5.140   0.488   8.263  0.2861  1.2350  1.1683
26881SOL    HW285491   5.180   0.587   8.156 -0.0491  0.3249  0.1824
26882SOL     OW85492   5.030   4.638   9.437 -0.2416 -0.5967  0.2256
26882SOL    HW185493   5.004   4.610   9.350 -2.2595 -0.6972  0.8065
26882SOL    HW285494   5.126   4.646   9.433 -0.2715 -0.9054 -1.8732
26883SOL     OW85495   5.109   8.583   9.014 -0.0867  0.0946 -0.6931
26883SOL    HW185496   5.098   8.494   8.980  0.4627  0.2058 -1.1650
26883SOL    HW285497   5.026   8.601   9.059  0.6247 -1.4932  1.3969
26884SOL     OW85498   9.448   3.023   4.630 -0.5949  0.0717  0.7278
26884SOL    HW185499   9.517   3.078   4.667 -0.2888  1.3261 -1.5686
26884SOL    HW285500   9.469   3.016   4.537 -0.7275 -3.7999  0.8020
26885SOL     OW85501   3.609   4.976   6.550 -0.1704 -0.1413  0.6012
26885SOL    HW185502   3.521   4.967   6.586 -0.4935 -2.3871 -0.5568
26885SOL    HW285503   3.596   5.026   6.469 -0.4427 -0.7912  0.2401
26886SOL     OW85504   3.017   4.587   7.362  0.1391  0.6363  0.4756
26886SOL    HW185505   3.091   4.591   7.302  1.5754 -0.2821  2.1229
26886SOL    HW285506   2.955   4.527   7.320  0.6920  0.7346 -0.5137
26887SOL     OW85507   4.087   4.726   6.991  0.0679  0.3346  0.1264
26887SOL    HW185508   4.027   4.652   6.986 -0.3944  0.5873  1.4161
26887SOL    HW285509   4.054   4.779   7.064  0.5053  1.7036 -0.6205
26888SOL     OW85510   6.779   1.847   3.008  0.0120  0.0247 -0.0960
26888SOL    HW185511   6.684   1.843   2.996 -0.3056 -0.3011  2.0672
26888SOL    HW285512   6.809   1.907   2.940 -2.1867  2.8664  1.2231
26889SOL     OW85513   0.442   9.326   2.686  0.2287  0.2569 -0.1035
26889SOL    HW185514   0.456   9.420   2.688  0.8670  0.3139 -3.3256
26889SOL    HW285515   0.377   9.312   2.617 -0.1759 -1.6586  0.5805
26890SOL     OW85516   1.268   6.886   6.667  0.4716  0.4779 -0.2908
26890SOL    HW185517   1.324   6.817   6.631 -0.5849 -1.6310  1.7996
26890SOL    HW285518   1.329   6.942   6.715  1.1525 -0.1717 -0.3707
26891SOL     OW85519   8.065   7.662   7.821  0.1900 -0.6853  0.5528
26891SOL    HW185520   8.148   7.710   7.812 -0.1224 -0.3049 -0.4234
26891SOL    HW285521   8.054   7.651   7.916  1.0707 -0.2292  0.7172
26892SOL     OW85522   4.280   5.524   7.300  0.2013 -0.1050 -0.2884
26892SOL    HW185523   4.274   5.506   7.393  0.2596  1.7332  0.1210
26892SOL    HW285524   4.220   5.462   7.259 -1.1803  0.2134  1.1615
26893SOL     OW85525   2.136   1.395   0.075 -0.0401 -0.2640  0.0905
26893SOL    HW185526   2.127   1.373   0.168 -1.6090  0.2620  0.0859
26893SOL    HW285527   2.088   1.326   0.029  0.9654 -0.6783 -0.3685
26894SOL     OW85528   9.613   2.819   3.669 -0.0760 -0.3269  0.2964
26894SOL    HW185529   9.596   2.885   3.602  1.6437 -0.5153 -0.3900
26894SOL    HW285530   9.585   2.737   3.629  3.0864 -0.8133 -1.3039
26895SOL     OW85531   8.401   6.640   1.523  0.9234  0.1996 -0.0294
26895SOL    HW185532   8.317   6.674   1.554  0.2093 -0.3038 -1.3270
26895SOL    HW285533   8.448   6.717   1.490  0.2975  0.2873 -0.7578
26896SOL     OW85534   4.923   6.195   2.606 -0.9306  0.8430 -0.3218
26896SOL    HW185535   4.962   6.253   2.672 -1.6963  0.4770  0.4638
26896SOL    HW285536   4.832   6.224   2.599 -1.6756 -0.9797  0.9646
26897SOL     OW85537   5.698   7.122   5.099  0.4317 -0.4406  0.0569
26897SOL    HW185538   5.699   7.102   5.193 -0.7153  0.1215  0.2029
26897SOL    HW285539   5.705   7.036   5.057 -0.9460 -0.8934  0.6764
26898SOL     OW85540   8.029   8.647   7.252 -0.4798  0.2927  0.2616
26898SOL    HW185541   8.019   8.680   7.163 -0.6692  0.1186  0.2201
26898SOL    HW285542   7.940   8.633   7.284 -0.4401 -2.4463 -0.5628
26899SOL     OW85543   5.880   1.003   5.019 -0.8296  0.3134 -0.3122
26899SOL    HW185544   5.952   0.990   5.081 -0.6347  0.6439 -0.4658
26899SOL    HW285545   5.802   1.002   5.073 -0.5817  1.6914  0.0923
26900SOL     OW85546   7.084   1.503   8.112 -0.2396  0.1724 -0.4162
26900SOL    HW185547   7.145   1.575   8.100 -0.7506  0.7949  0.6400
26900SOL    HW285548   7.040   1.494   8.027 -0.1767  1.1081 -0.5573
26901SOL     OW85549   9.661   4.610   8.721  0.0530  0.2973 -0.2134
26901SOL    HW185550   9.740   4.662   8.735 -0.1737  0.2418  1.4353
26901SOL    HW285551   9.692   4.528   8.683  0.3565  1.7954 -3.5548
26902SOL     OW85552   1.355   8.133   7.512 -1.0125 -0.1848 -0.0342
26902SOL    HW185553   1.443   8.146   7.477 -0.2468 -0.4660  1.6839
26902SOL    HW285554   1.330   8.218   7.548 -0.5836 -0.5920  1.2796
26903SOL     OW85555   0.753   0.983   0.054 -0.2640 -0.3632  0.5914
26903SOL    HW185556   0.691   0.910   0.063  0.3078 -0.9158  0.1227
26903SOL    HW285557   0.784   0.999   0.143 -0.7240 -0.4034  0.7607
26904SOL     OW85558   1.702   7.610   0.830  0.6124 -0.4045 -0.1830
26904SOL    HW185559   1.675   7.571   0.746  1.5806 -1.4026 -0.0506
26904SOL    HW285560   1.797   7.603   0.830  0.6035 -0.6815  1.1369
26905SOL     OW85561   6.854   2.350   4.632  0.7564  0.0129  0.4560
26905SOL    HW185562   6.759   2.348   4.625  0.6723 -0.5882  1.5910
26905SOL    HW285563   6.883   2.381   4.546 -0.4554  0.2753  0.1158
26906SOL     OW85564   6.574   6.915   8.510 -0.1441 -0.1154 -0.0249
26906SOL    HW185565   6.521   6.940   8.586 -0.5429  0.3599 -0.4512
26906SOL    HW285566   6.533   6.961   8.437 -0.2360 -1.1776 -0.6591
26907SOL     OW85567   3.993   7.738   0.784  0.2371  0.6214 -0.0080
26907SOL    HW185568   3.971   7.651   0.815  0.5175  1.1665  1.8079
26907SOL    HW285569   4.011   7.726   0.690 -2.1917 -0.8143 -0.3835
26908SOL     OW85570   0.006   9.436   1.812 -0.2304  0.0052 -0.1882
26908SOL    HW185571   0.043   9.363   1.762 -0.0376 -0.6344  0.8501
26908SOL    HW285572   0.056   9.512   1.785  0.5167 -0.5055 -0.2640
26909SOL     OW85573   6.724   7.025   9.288  0.2383 -0.0797  0.8377
26909SOL    HW185574   6.719   7.011   9.193  1.2494 -1.8777  1.0199
26909SOL    HW285575   6.671   7.104   9.303 -1.4767 -0.8091 -0.9838
26910SOL     OW85576   2.740   7.299   4.525 -0.1489 -0.3087  0.1494
26910SOL    HW185577   2.769   7.221   4.478  1.2486 -0.0193  0.4804
26910SOL    HW285578   2.713   7.360   4.456 -1.0226 -0.9929 -0.1208
26911SOL     OW85579   9.531   0.751   8.209 -0.0196 -0.9600  0.3468
26911SOL    HW185580   9.615   0.769   8.252  0.3375  1.0398 -1.0334
26911SOL    HW285581   9.544   0.666   8.166  2.3849  0.4787 -2.1039
26912SOL     OW85582   1.091   3.804   5.501  0.1454  0.0770  0.0613
26912SOL    HW185583   1.130   3.727   5.459 -1.3809  0.4567 -2.1991
26912SOL    HW285584   0.997   3.786   5.502 -0.0403  1.0013  1.5155
26913SOL     OW85585   9.170   7.468   4.129  0.0619 -0.7958 -0.5995
26913SOL    HW185586   9.102   7.453   4.063  0.7455  0.9069 -1.7837
26913SOL    HW285587   9.123   7.478   4.211 -1.3891  1.9831 -1.6302
26914SOL     OW85588   7.444   1.404   2.739  0.1741 -0.7525 -0.1514
26914SOL    HW185589   7.355   1.431   2.716  1.0229  0.8015 -1.8703
26914SOL    HW285590   7.500   1.446   2.673  2.1164 -2.4398  0.3151
26915SOL     OW85591   7.898   7.043   0.818 -0.2412 -0.1261 -0.1013
26915SOL    HW185592   7.984   7.005   0.835 -1.0318 -2.1888 -0.4110
26915SOL    HW285593   7.911   7.137   0.828  1.5259 -0.5099  2.2282
26916SOL     OW85594   0.226   0.432   2.979  0.5285  0.1494  0.5844
26916SOL    HW185595   0.299   0.376   3.008 -0.7574 -1.8516  0.1487
26916SOL    HW285596   0.221   0.419   2.885 -0.3788  0.2897  0.6048
26917SOL     OW85597   1.394   3.701   2.795  0.7836 -0.0801 -0.1874
26917SOL    HW185598   1.391   3.607   2.813  0.2712 -0.1726 -0.7583
26917SOL    HW285599   1.487   3.723   2.803  0.7899 -0.4387  0.9077
26918SOL     OW85600   5.684   3.653   8.838 -0.2490 -0.2467  0.0663
26918SOL    HW185601   5.779   3.649   8.827  0.0802  1.8251  1.5844
26918SOL    HW285602   5.651   3.674   8.751  1.0941  3.0305  0.2050
26919SOL     OW85603   4.170   4.661   5.436  0.7502  0.5899  0.8613
26919SOL    HW185604   4.174   4.675   5.342 -1.0587 -1.5066  0.3839
26919SOL    HW285605   4.107   4.726   5.468  0.2702  0.3730  0.3690
26920SOL     OW85606   9.533   8.733   8.149 -0.6909 -0.0779 -0.6220
26920SOL    HW185607   9.557   8.681   8.226  0.5409  0.8992 -0.3226
26920SOL    HW285608   9.557   8.823   8.172 -3.5513  0.8488 -0.7862
26921SOL     OW85609   6.199   3.407   7.804  0.6380  0.4099 -0.2462
26921SOL    HW185610   6.263   3.457   7.855 -0.3044  0.1532  1.2700
26921SOL    HW285611   6.223   3.316   7.819  0.7675  0.3444 -0.8424
26922SOL     OW85612   7.116   1.664   7.835  0.3324  0.4209  0.4455
26922SOL    HW185613   7.210   1.684   7.828  0.4542  0.5272  2.0213
26922SOL    HW285614   7.091   1.638   7.747  1.6607  1.1805 -0.1951
26923SOL     OW85615   9.590   4.033   3.003  0.2542  0.1450 -0.5457
26923SOL    HW185616   9.602   4.047   3.096  0.7745  1.5358 -0.7980
26923SOL    HW285617   9.660   3.973   2.978  0.0658 -0.2937 -0.0410
26924SOL     OW85618   5.742   1.767   0.722  0.2309  0.6722 -0.0591
26924SOL    HW185619   5.732   1.781   0.628  0.1968 -0.9264 -0.3223
26924SOL    HW285620   5.795   1.688   0.729  0.5486  0.9757  1.2794
26925SOL     OW85621   0.997   1.452   7.624 -0.0372 -0.4378  0.1952
26925SOL    HW185622   1.062   1.522   7.617  0.1778 -0.6282  0.2919
26925SOL    HW285623   1.019   1.391   7.554 -1.3458  0.4985 -1.0994
26926SOL     OW85624   1.000   1.603   3.884  0.7278  0.0885 -0.1035
26926SOL    HW185625   1.051   1.575   3.960 -0.7280  1.0349  1.2949
26926SOL    HW285626   0.916   1.559   3.894  1.3621 -1.9328 -2.7006
26927SOL     OW85627   2.166   4.899   4.554  0.0870 -0.4538  0.3014
26927SOL    HW185628   2.130   4.970   4.607 -1.9102  0.5244 -2.2008
26927SOL    HW285629   2.248   4.935   4.519  1.1606 -0.9254  2.1666
26928SOL     OW85630   4.833   4.766   0.047  0.0310 -0.4890  0.3940
26928SOL    HW185631   4.794   4.829   0.108  1.0453  0.2835  0.2737
26928SOL    HW285632   4.927   4.775   0.061  0.2797 -0.3345 -1.2611
26929SOL     OW85633   4.637   5.722   5.057  0.3030  0.6789  0.1728
26929SOL    HW185634   4.608   5.788   5.121  0.8070 -0.4217  1.5809
26929SOL    HW285635   4.719   5.688   5.094 -0.4363 -1.4185 -0.0144
26930SOL     OW85636   0.730   5.857   8.786  0.3553  0.1844  0.2913
26930SOL    HW185637   0.800   5.907   8.743  0.5798 -0.9084 -0.6658
26930SOL    HW285638   0.649   5.897   8.756  0.4853 -0.9673 -1.7518
26931SOL     OW85639   7.912   1.529   7.679  0.7315 -0.6361  0.0889
26931SOL    HW185640   7.866   1.462   7.730 -0.7399 -1.4415 -2.1243
26931SOL    HW285641   7.959   1.480   7.612  0.0573  0.4769 -1.2503
26932SOL     OW85642   1.772   8.212   1.041  0.2560 -0.4266 -0.1813
26932SOL    HW185643   1.793   8.120   1.057  0.9181 -0.2120  0.2277
26932SOL    HW285644   1.679   8.211   1.016 -0.1365 -1.0761  1.1784
26933SOL     OW85645   1.304   7.064   9.305 -0.7788  0.4531 -0.2095
26933SOL    HW185646   1.367   7.084   9.236  0.6538  0.8705  1.1617
26933SOL    HW285647   1.242   7.137   9.302 -1.3460 -0.0585 -1.7036
26934SOL     OW85648   6.266   1.942   4.596  0.8097  0.4080 -0.1517
26934SOL    HW185649   6.203   2.008   4.566  2.9073  2.4332 -0.4039
26934SOL    HW285650   6.262   1.873   4.530 -0.8559  0.6466 -0.3369
26935SOL     OW85651   2.221   5.815   6.217  0.2306 -0.0529 -0.3432
26935SOL    HW185652   2.146   5.862   6.181  0.1599  0.3989  0.3878
26935SOL    HW285653   2.264   5.878   6.275  0.5414 -0.6655  0.0992
26936SOL     OW85654   4.888   0.322   0.463  0.3744  0.5908 -0.1116
26936SOL    HW185655   4.830   0.399   0.464 -1.1839 -0.5221  0.3830
26936SOL    HW285656   4.913   0.311   0.554  1.4983  1.1255 -0.3408
26937SOL     OW85657   3.593   4.705   5.991  0.1860 -0.5930  0.3623
26937SOL    HW185658   3.513   4.673   5.948 -0.0712 -1.7042  1.5793
26937SOL    HW285659   3.642   4.749   5.922 -1.4338  0.0385 -0.4380
26938SOL     OW85660   7.651   1.286   8.845 -0.2215  0.3207  0.3925
26938SOL    HW185661   7.701   1.271   8.764 -1.8300  0.8310 -0.7459
26938SOL    HW285662   7.712   1.330   8.904  1.1377 -0.5140 -0.3563
26939SOL     OW85663   0.592   3.185   7.567  0.0737  0.1061  0.2688
26939SOL    HW185664   0.648   3.203   7.492  0.2690 -1.3395  0.0309
26939SOL    HW285665   0.653   3.177   7.641 -0.2714  3.6938  1.1051
26940SOL     OW85666   6.430   4.741   0.167 -0.3495  0.0293  0.3017
26940SOL    HW185667   6.481   4.697   0.099 -1.0643 -1.2175  0.5393
26940SOL    HW285668   6.376   4.804   0.119  1.1617  1.1783  0.0211
26941SOL     OW85669   2.016   2.423   3.246 -0.9283 -0.1421 -0.3195
26941SOL    HW185670   2.089   2.452   3.301 -0.6586  2.1841 -1.7825
26941SOL    HW285671   2.057   2.396   3.164 -1.4888 -1.6871 -0.1113
26942SOL     OW85672   0.124   5.621   6.675  0.0264  0.7200  0.0093
26942SOL    HW185673   0.205   5.604   6.626 -0.8319 -1.3095 -0.7809
26942SOL    HW285674   0.146   5.601   6.766  0.5183  0.6289 -0.1265
26943SOL     OW85675   4.815   3.501   0.259  0.6456 -0.1064  0.1116
26943SOL    HW185676   4.740   3.513   0.318  0.8083  0.9856  0.1122
26943SOL    HW285677   4.776   3.462   0.180 -0.0533  1.0994 -0.1595
26944SOL     OW85678   0.756   3.359   7.314 -0.1437  0.0941  0.5071
26944SOL    HW185679   0.840   3.393   7.345  0.4069  0.2722 -1.0598
26944SOL    HW285680   0.694   3.429   7.334  0.1682  0.1703  1.2384
26945SOL     OW85681   1.974   0.470   8.532 -0.9644  0.1379 -0.5262
26945SOL    HW185682   1.886   0.505   8.524 -0.9567  0.1255 -0.6735
26945SOL    HW285683   2.001   0.452   8.441 -0.3547  1.2633 -0.5837
26946SOL     OW85684   5.017   6.413   6.062 -0.2802 -0.0716  0.0287
26946SOL    HW185685   5.111   6.399   6.050 -0.5435 -1.0406 -1.1494
26946SOL    HW285686   4.998   6.380   6.149  0.1228 -1.9116 -0.5481
26947SOL     OW85687   7.557   8.655   3.132 -0.1966 -0.8008 -0.1804
26947SOL    HW185688   7.636   8.622   3.174  0.6662 -0.2451 -1.2904
26947SOL    HW285689   7.507   8.576   3.109  0.6486 -1.2270 -0.6036
26948SOL     OW85690   5.358   6.469   1.891 -0.3153 -0.3869  1.0275
26948SOL    HW185691   5.330   6.488   1.801  0.5228 -2.6904  0.1842
26948SOL    HW285692   5.283   6.425   1.931 -0.5724  0.3419  1.3530
26949SOL     OW85693   9.138   4.216   9.509 -0.3253  0.4790  0.3080
26949SOL    HW185694   9.044   4.214   9.529 -0.3720 -0.2352  0.0252
26949SOL    HW285695   9.153   4.303   9.473 -0.6395  1.0570  1.4944
26950SOL     OW85696   1.120   8.929   5.943 -0.4824  0.5546 -0.1076
26950SOL    HW185697   1.108   8.946   5.850 -0.4320  1.0001 -0.0353
26950SOL    HW285698   1.031   8.917   5.976 -0.7232  2.8104  0.2288
26951SOL     OW85699   8.670   9.679   3.282 -0.2175 -0.0425  0.2356
26951SOL    HW185700   8.736   9.730   3.329 -2.4597  2.5043  0.8414
26951SOL    HW285701   8.613   9.645   3.350 -0.8068 -0.3191 -0.3855
26952SOL     OW85702   5.765   3.994   7.729 -0.4638 -0.1339 -0.1377
26952SOL    HW185703   5.794   4.083   7.745  0.4912 -0.4890  0.1806
26952SOL    HW285704   5.683   3.985   7.779 -0.5113  0.5221 -0.0983
26953SOL     OW85705   6.427   8.150   0.735  0.1564 -0.4845  0.1981
26953SOL    HW185706   6.517   8.124   0.717  0.5404 -0.0547  1.3616
26953SOL    HW285707   6.431   8.245   0.747 -0.7309 -0.2419 -1.2202
26954SOL     OW85708   4.897   7.768   2.531  0.2762 -0.4281 -0.3196
26954SOL    HW185709   4.955   7.810   2.467 -0.2174 -0.8982 -1.0895
26954SOL    HW285710   4.847   7.841   2.569  1.8384  0.0717  0.8673
26955SOL     OW85711   3.113   3.327   6.835  0.2565 -0.4436 -0.0383
26955SOL    HW185712   3.092   3.379   6.912  1.5702 -1.4867  1.0770
26955SOL    HW285713   3.204   3.350   6.814 -0.1870  0.0770 -1.5053
26956SOL     OW85714   6.810   4.906   6.628  0.3673 -0.4331 -0.0597
26956SOL    HW185715   6.730   4.955   6.608  1.3241  0.7494 -1.1214
26956SOL    HW285716   6.835   4.936   6.715  1.3440  1.5829 -0.9944
26957SOL     OW85717   0.390   4.257   2.605  0.6557  0.3611 -1.1369
26957SOL    HW185718   0.367   4.245   2.697  1.2835  0.1232 -1.0070
26957SOL    HW285719   0.393   4.352   2.594 -2.0989  0.4857 -1.6123
26958SOL     OW85720   8.614   5.030   7.588 -0.3905 -0.4436  0.5285
26958SOL    HW185721   8.676   4.960   7.567  1.1025  0.8339  0.5256
26958SOL    HW285722   8.589   5.065   7.502 -2.8577 -2.3156  0.3713
26959SOL     OW85723   4.463   3.486   0.995 -0.4705 -0.1398 -0.1249
26959SOL    HW185724   4.498   3.489   1.084  0.6059 -0.7708 -0.5126
26959SOL    HW285725   4.433   3.395   0.985 -0.1415 -0.2035 -0.5633
26960SOL     OW85726   1.846   0.835   8.515 -0.0838 -0.5328  0.0268
26960SOL    HW185727   1.924   0.890   8.511  0.6248 -1.3456  1.5482
26960SOL    HW285728   1.843   0.805   8.606 -1.5511 -1.4223 -0.2796
26961SOL     OW85729   2.627   8.440   4.975  0.5500  0.0845 -0.5483
26961SOL    HW185730   2.553   8.380   4.990  0.8746 -0.6456 -1.7333
26961SOL    HW285731   2.629   8.452   4.880  1.3747  0.8678 -0.4444
26962SOL     OW85732   3.573   7.054   8.829  0.3096 -0.1769 -0.2648
26962SOL    HW185733   3.483   7.028   8.810  0.0411 -0.4803  1.2935
26962SOL    HW285734   3.572   7.150   8.823 -0.0129 -0.1998 -0.6314
26963SOL     OW85735   6.966   3.480   7.977 -0.1819 -0.0154  0.0780
26963SOL    HW185736   7.033   3.507   8.040  1.5973 -2.1295 -0.8078
26963SOL    HW285737   6.908   3.422   8.027  0.2975 -0.4230  0.1679
26964SOL     OW85738   5.245   3.554   3.898  0.5076  0.0824 -0.2350
26964SOL    HW185739   5.173   3.599   3.855  0.9796  0.4160 -0.6922
26964SOL    HW285740   5.313   3.548   3.830  1.4151  0.9631  0.5580
26965SOL     OW85741   1.382   7.045   0.515  0.3418  0.5843 -0.2541
26965SOL    HW185742   1.417   7.009   0.433  0.7107  2.3952 -0.9312
26965SOL    HW285743   1.443   7.115   0.538 -0.4380  0.8965  0.9358
26966SOL     OW85744   7.078   4.090   9.090 -0.0496  0.2617 -0.2717
26966SOL    HW185745   7.067   3.997   9.071 -1.0628  0.0237  1.2755
26966SOL    HW285746   7.014   4.135   9.035 -0.4424 -0.0692 -0.0815
26967SOL     OW85747   3.805   6.019   0.596  0.2808  0.0348  0.6628
26967SOL    HW185748   3.765   6.076   0.530  0.7893  0.0730  0.3773
26967SOL    HW285749   3.750   6.029   0.674  0.3948  0.9589  0.6354
26968SOL     OW85750   3.138   8.015   4.471 -0.4263  0.0171 -0.2680
26968SOL    HW185751   3.121   8.027   4.565 -0.7149 -1.5724 -0.0875
26968SOL    HW285752   3.230   7.988   4.467 -0.1483  0.9421 -0.5513
26969SOL     OW85753   2.309   6.812   6.284 -0.2596 -0.2173 -0.3597
26969SOL    HW185754   2.388   6.824   6.231 -1.9386 -1.0772 -3.2412
26969SOL    HW285755   2.245   6.773   6.224 -2.4067 -1.0544  2.2795
26970SOL     OW85756   2.277   1.282   4.168  0.5613 -0.5709  0.2548
26970SOL    HW185757   2.224   1.352   4.128 -0.7188 -0.4796  1.9968
26970SOL    HW285758   2.292   1.220   4.097  1.0728  1.0687 -1.1525
26971SOL     OW85759   8.868   7.637   7.716 -0.1976 -0.2370  0.3557
26971SOL    HW185760   8.802   7.639   7.785 -2.2209  0.9757 -1.4956
26971SOL    HW285761   8.944   7.595   7.757 -0.7292  1.7155  3.7492
26972SOL     OW85762   0.283   6.311   4.384  0.2655  0.2807 -0.1367
26972SOL    HW185763   0.359   6.252   4.383  0.6179  0.7289 -0.6976
26972SOL    HW285764   0.321   6.398   4.388 -0.2710  0.4646  1.2729
26973SOL     OW85765   3.996   5.274   6.979 -0.4733 -0.1034 -0.6093
26973SOL    HW185766   3.927   5.281   7.045 -0.5496  1.1265 -0.7926
26973SOL    HW285767   3.990   5.356   6.930  2.4166  1.0173  0.6817
26974SOL     OW85768   2.225   2.029   7.567 -0.1911 -0.1308 -0.5663
26974SOL    HW185769   2.291   2.002   7.632 -0.8849  1.1961  0.7385
26974SOL    HW285770   2.255   1.989   7.485  0.7926 -1.7564  0.5118
26975SOL     OW85771   3.388   6.904   0.208  0.1489 -0.3029  0.8547
26975SOL    HW185772   3.341   6.987   0.214  0.1167 -0.0641 -1.7556
26975SOL    HW285773   3.477   6.925   0.233  0.4680  0.8989 -1.0998
26976SOL     OW85774   2.605   1.928   1.813  0.4366  0.6628 -0.1290
26976SOL    HW185775   2.661   1.981   1.756  0.1363  0.3136 -0.7658
26976SOL    HW285776   2.654   1.846   1.826  0.7116  0.9202  0.5064
26977SOL     OW85777   9.268   1.268   0.193  0.1724  0.3695  0.6677
26977SOL    HW185778   9.194   1.238   0.141 -0.5457  2.5367  0.3583
26977SOL    HW285779   9.345   1.249   0.139 -0.4677  1.4048 -0.6426
26978SOL     OW85780   3.757   6.001   2.975 -0.5546 -0.5045  0.0138
26978SOL    HW185781   3.825   6.004   3.042  0.0588  0.0433 -0.6216
26978SOL    HW285782   3.779   5.925   2.922  0.3675  0.4218 -0.9958
26979SOL     OW85783   4.997   0.341   3.004  0.4578 -0.2808  0.5966
26979SOL    HW185784   4.965   0.396   2.933 -1.4963 -0.5263  1.2005
26979SOL    HW285785   5.073   0.387   3.039 -0.0601  1.1062 -0.0572
26980SOL     OW85786   6.883   7.681   8.697 -0.4811 -0.1829 -0.1140
26980SOL    HW185787   6.819   7.677   8.626  1.4120  0.2046 -1.9873
26980SOL    HW285788   6.935   7.601   8.687  1.1935  0.8963 -0.6519
26981SOL     OW85789   5.368   6.709   4.622  0.3697 -0.5993  0.0242
26981SOL    HW185790   5.462   6.723   4.610 -0.1673  1.3269 -2.6984
26981SOL    HW285791   5.347   6.755   4.703  1.9016 -2.0508  1.3144
26982SOL     OW85792   2.042   9.421   9.142 -0.0209  0.0829  0.2843
26982SOL    HW185793   2.085   9.335   9.145 -1.5352 -0.7914 -1.2872
26982SOL    HW285794   1.969   9.412   9.204  0.3847  0.6019  0.8521
26983SOL     OW85795   2.828   3.823   1.290  0.1376  0.3832 -0.2556
26983SOL    HW185796   2.798   3.867   1.370 -0.4994 -1.8675  0.8304
26983SOL    HW285797   2.891   3.884   1.252  0.2394  1.6789  1.7966
26984SOL     OW85798   2.696   7.497   1.151 -0.7505 -0.0725  0.9652
26984SOL    HW185799   2.748   7.509   1.230 -0.5359  0.6081  0.7227
26984SOL    HW285800   2.625   7.438   1.179 -0.6728  0.1481  1.6554
26985SOL     OW85801   3.551   0.771   8.884 -0.5835  0.3613 -0.8593
26985SOL    HW185802   3.578   0.819   8.806 -1.2011 -1.1205 -2.0293
26985SOL    HW285803   3.620   0.706   8.898 -2.4061 -2.1082 -2.6755
26986SOL     OW85804   1.292   3.060   7.138  0.3045 -0.5718 -0.3748
26986SOL    HW185805   1.227   3.110   7.187 -0.8634 -0.0136 -2.3846
26986SOL    HW285806   1.303   2.979   7.189 -1.2840 -0.2853  0.4935
26987SOL     OW85807   8.241   0.359   2.939  0.3625 -0.0508 -0.2291
26987SOL    HW185808   8.255   0.294   2.870 -0.6743 -2.3175  1.5242
26987SOL    HW285809   8.325   0.402   2.950  1.1576 -1.2380 -1.3725
26988SOL     OW85810   5.712   8.116   1.085 -0.7153  0.0979 -0.2571
26988SOL    HW185811   5.743   8.039   1.133  1.3220  2.6531  2.9855
26988SOL    HW285812   5.618   8.120   1.103 -0.5136 -0.6689  1.0682
26989SOL     OW85813   5.785   4.280   2.065  0.0569  0.6523  0.1990
26989SOL    HW185814   5.813   4.190   2.049 -0.2673  0.3113  1.4005
26989SOL    HW285815   5.742   4.277   2.151  0.4649  2.0484  0.4837
26990SOL     OW85816   3.549   0.583   3.439 -0.0997 -0.2140 -0.3097
26990SOL    HW185817   3.546   0.633   3.521  0.9365 -0.5946 -0.0208
26990SOL    HW285818   3.554   0.492   3.467  0.4837 -0.3374 -0.7797
26991SOL     OW85819   7.208   3.063   5.236  0.6370  0.5210 -0.0766
26991SOL    HW185820   7.240   3.110   5.159 -0.0498 -0.4803 -1.0122
26991SOL    HW285821   7.113   3.074   5.235  0.2520 -2.1056 -1.2536
26992SOL     OW85822   0.197   3.667   7.366  0.6742 -0.2078  0.1087
26992SOL    HW185823   0.250   3.594   7.334  1.8820 -0.1340  1.8459
26992SOL    HW285824   0.255   3.715   7.424 -0.2490  1.8812 -0.6064
26993SOL     OW85825   8.698   7.468   5.477  0.1397  0.1481 -0.2355
26993SOL    HW185826   8.686   7.496   5.387  1.4900  0.2259 -0.4203
26993SOL    HW285827   8.681   7.547   5.529 -0.2775  0.1963 -0.4430
26994SOL     OW85828   8.101   4.587   3.843  0.0156 -0.0826  0.0900
26994SOL    HW185829   8.181   4.636   3.824  0.9523 -1.8951 -0.8860
26994SOL    HW285830   8.037   4.620   3.780 -0.5023  2.3039  1.7033
26995SOL     OW85831   2.114   4.205   6.695  0.4815 -0.1331 -0.5811
26995SOL    HW185832   2.178   4.235   6.760 -0.0525 -0.4128  0.0892
26995SOL    HW285833   2.090   4.117   6.724 -0.7887  0.2631 -0.3608
26996SOL     OW85834   8.406   5.642   0.796  0.2645 -0.3919 -0.0765
26996SOL    HW185835   8.432   5.595   0.876  0.6437  0.7730  0.5158
26996SOL    HW285836   8.311   5.635   0.795  0.1855  0.2666  0.9401
26997SOL     OW85837   4.524   9.415   8.987 -0.3723  0.5910  0.4029
26997SOL    HW185838   4.483   9.433   9.071 -1.9598  0.8906 -0.4052
26997SOL    HW285839   4.590   9.484   8.978  1.0775 -0.4733  2.1516
26998SOL     OW85840   6.578   4.380   8.317  0.0816 -0.1903 -0.2087
26998SOL    HW185841   6.520   4.436   8.266 -0.0327 -0.2751 -0.1712
26998SOL    HW285842   6.640   4.440   8.358  0.5113 -0.1618 -0.8810
26999SOL     OW85843   3.666   5.467   7.739  0.1948 -0.6868  0.1662
26999SOL    HW185844   3.601   5.530   7.710  2.2758  0.9401 -1.2767
26999SOL    HW285845   3.685   5.492   7.830  0.9541  0.7911 -0.3667
27000SOL     OW85846   3.246   7.025   7.453 -0.3080  0.0341 -0.1267
27000SOL    HW185847   3.209   7.059   7.534  2.6220 -0.6890  1.6543
27000SOL    HW285848   3.268   7.102   7.401  2.7712  0.9111  2.2192
27001SOL     OW85849   8.276   1.573   7.270  0.1058  0.0582 -0.3330
27001SOL    HW185850   8.344   1.512   7.298  1.1112  1.0798 -0.4653
27001SOL    HW285851   8.284   1.576   7.175 -2.0157 -1.9246 -0.6548
27002SOL     OW85852   5.520   2.553   1.019  0.0673 -0.5078  0.0012
27002SOL    HW185853   5.504   2.465   1.054  0.8809 -0.0241  1.6737
27002SOL    HW285854   5.588   2.590   1.075 -0.0358  1.0878 -0.8562
27003SOL     OW85855   0.949   8.984   7.235  0.3554  0.2701 -0.1137
27003SOL    HW185856   0.991   8.992   7.320  3.0877  2.5101 -1.4989
27003SOL    HW285857   1.021   8.961   7.175 -1.7178 -2.7899 -1.6708
27004SOL     OW85858   8.905   0.433   2.011 -0.0628  0.7098  0.1452
27004SOL    HW185859   8.824   0.440   1.962 -0.6990  2.7344  1.3468
27004SOL    HW285860   8.966   0.388   1.952 -1.4331  1.0110 -1.5727
27005SOL     OW85861   8.162   6.531   2.288 -0.6465  0.0961  0.3644
27005SOL    HW185862   8.188   6.502   2.201  1.1128  1.4498  0.3660
27005SOL    HW285863   8.069   6.511   2.294 -0.3391 -2.0464 -0.9605
27006SOL     OW85864   6.667   1.591   0.703  0.1662 -0.7287  0.2199
27006SOL    HW185865   6.629   1.661   0.756  1.8873  1.6297 -1.4604
27006SOL    HW285866   6.612   1.587   0.625  0.0045 -1.3770  0.3593
27007SOL     OW85867   2.805   8.404   3.665 -0.3372  0.7318  0.3006
27007SOL    HW185868   2.829   8.465   3.596 -0.1876 -0.9165 -1.1658
27007SOL    HW285869   2.729   8.358   3.631  0.1517 -0.5977  0.9360
27008SOL     OW85870   6.510   5.955   8.777 -0.1447 -0.0246 -0.0841
27008SOL    HW185871   6.593   5.917   8.747 -0.3110 -2.7267  2.3779
27008SOL    HW285872   6.535   6.010   8.851 -0.4790 -0.7574  0.5907
27009SOL     OW85873   8.574   0.639   6.527 -0.1943 -0.0221  0.0563
27009SOL    HW185874   8.496   0.667   6.480 -0.5306  0.5068  0.8957
27009SOL    HW285875   8.632   0.716   6.525  0.4466 -0.5073 -0.8214
27010SOL     OW85876   9.154   3.051   4.133 -0.2096  0.6594 -0.1182
27010SOL    HW185877   9.187   3.102   4.059 -0.0352  1.3392  0.4158
27010SOL    HW285878   9.225   2.991   4.154  0.0105  0.9276 -0.0786
27011SOL     OW85879   3.643   1.894   0.887  0.0069  0.1602  0.4741
27011SOL    HW185880   3.689   1.813   0.863  0.1078  0.2036  0.5233
27011SOL    HW285881   3.647   1.896   0.982 -0.4303 -0.0327  0.4995
27012SOL     OW85882   5.020   9.517   3.403  0.4232  0.2256  0.1607
27012SOL    HW185883   5.058   9.587   3.456  0.9710  0.3935 -0.4437
27012SOL    HW285884   5.078   9.442   3.419 -0.7977 -0.4502  1.6976
27013SOL     OW85885   3.657   5.559   0.483 -0.3862 -0.3972  0.7806
27013SOL    HW185886   3.617   5.645   0.471  0.0680 -0.3986 -0.9916
27013SOL    HW285887   3.590   5.496   0.457  0.4296 -0.4184 -1.5213
27014SOL     OW85888   8.813   4.143   5.892  0.4816 -0.0357 -0.3760
27014SOL    HW185889   8.896   4.160   5.936 -0.0466 -0.9644  1.0503
27014SOL    HW285890   8.838   4.117   5.803  1.6216  1.0423 -0.4079
27015SOL     OW85891   3.593   0.311   3.255  0.5146 -0.1331  0.0133
27015SOL    HW185892   3.620   0.299   3.346  0.7238 -1.6080 -0.2153
27015SOL    HW285893   3.610   0.403   3.237 -0.0311  0.3170  1.6210
27016SOL     OW85894   9.735   8.166   2.107 -0.0266 -0.4937  0.2683
27016SOL    HW185895   9.699   8.246   2.145 -0.5666 -0.9002  0.6419
27016SOL    HW285896   9.666   8.100   2.121 -0.4610 -0.5718 -1.8251
27017SOL     OW85897   7.414   1.564   0.457  0.1597 -0.4873  0.6299
27017SOL    HW185898   7.339   1.606   0.416  1.1817  1.8093  0.9194
27017SOL    HW285899   7.381   1.532   0.541 -0.7112 -0.4316  0.3196
27018SOL     OW85900   4.517   8.849   4.998 -0.2181 -0.0571  1.2171
27018SOL    HW185901   4.448   8.787   5.020  1.3420 -1.5797  2.0314
27018SOL    HW285902   4.592   8.795   4.976  0.3228  1.5281 -1.2273
27019SOL     OW85903   7.315   7.954   1.829  0.6900 -0.3043  0.3404
27019SOL    HW185904   7.280   7.975   1.915  1.1543 -0.9785  0.6961
27019SOL    HW285905   7.242   7.914   1.782  0.7295 -0.9150  0.7875
27020SOL     OW85906   8.503   4.434   2.760 -0.0440 -0.1397  0.2614
27020SOL    HW185907   8.552   4.382   2.697  0.7045  0.8607 -0.0105
27020SOL    HW285908   8.416   4.443   2.721  0.2447 -0.0050 -0.3618
27021SOL     OW85909   6.058   8.853   6.523  0.0687 -0.1676 -0.1810
27021SOL    HW185910   6.078   8.788   6.591 -0.7489 -0.2506 -0.0107
27021SOL    HW285911   6.015   8.802   6.454 -0.9014  0.2446  0.1086
27022SOL     OW85912   8.769   5.152   8.715 -0.0633  0.3971 -0.2184
27022SOL    HW185913   8.794   5.167   8.806 -0.6192 -0.1566  0.0287
27022SOL    HW285914   8.674   5.155   8.716 -0.2269 -2.3156 -0.2745
27023SOL     OW85915   5.996   1.500   6.643  0.8832 -0.6176 -0.0050
27023SOL    HW185916   5.909   1.505   6.682  1.2416  0.6065  0.6687
27023SOL    HW285917   6.042   1.577   6.675  2.1341 -1.0934 -0.5784
27024SOL     OW85918   7.074   9.175   6.793  0.3278  0.0568  0.3525
27024SOL    HW185919   7.150   9.126   6.759 -0.2050 -1.9208  1.8325
27024SOL    HW285920   7.022   9.109   6.838 -1.5583  1.6550  0.6173
27025SOL     OW85921   3.724   0.660   1.086  0.6506  0.6351 -0.0994
27025SOL    HW185922   3.718   0.594   1.155  0.1216 -1.0995 -1.7121
27025SOL    HW285923   3.810   0.646   1.047  1.0852  1.8331  0.3962
27026SOL     OW85924   3.013   0.904   5.132 -0.0665  0.0454 -0.3528
27026SOL    HW185925   3.096   0.913   5.178  0.1290 -0.6711 -0.5593
27026SOL    HW285926   2.987   0.994   5.112  1.3498  0.2248 -1.5073
27027SOL     OW85927   8.186   7.872   8.969  0.7408 -0.3698 -0.7077
27027SOL    HW185928   8.184   7.966   8.987  0.7185 -0.6397  0.8839
27027SOL    HW285929   8.190   7.865   8.874 -0.6722  1.2141 -0.9199
27028SOL     OW85930   8.246   7.436   2.706  0.2729  0.3721  0.8394
27028SOL    HW185931   8.254   7.461   2.798 -0.5367  0.0719  1.0059
27028SOL    HW285932   8.244   7.519   2.658 -1.9297  0.6649  1.3451
27029SOL     OW85933   6.092   3.098   3.231 -0.1449 -0.6719  0.4178
27029SOL    HW185934   6.095   3.148   3.150  0.2388 -2.7399 -0.9279
27029SOL    HW285935   6.106   3.162   3.300  0.7067  0.9818 -1.2143
27030SOL     OW85936   3.171   1.992   7.056  0.2497  0.2947  0.3082
27030SOL    HW185937   3.098   1.931   7.070  1.2978 -0.8199  1.1408
27030SOL    HW285938   3.208   1.966   6.971 -1.0308  1.6713 -0.7310
27031SOL     OW85939   4.627   0.851   0.029 -0.2226 -0.2962 -0.3210
27031SOL    HW185940   4.697   0.796  -0.007  0.3628 -0.9692  1.7494
27031SOL    HW285941   4.644   0.938  -0.009 -0.0929 -1.0885 -2.2046
27032SOL     OW85942   2.356   5.963   1.217  0.6356  0.3921 -0.2531
27032SOL    HW185943   2.436   6.011   1.194 -0.0999  1.3057 -1.0457
27032SOL    HW285944   2.304   5.965   1.136 -0.0330 -0.4898  0.1481
27033SOL     OW85945   0.294   4.555   2.328 -0.6885  0.3841  0.5224
27033SOL    HW185946   0.309   4.531   2.420  1.0824 -1.4699 -0.1675
27033SOL    HW285947   0.382   4.567   2.292 -1.2111 -1.3745 -1.4948
27034SOL     OW85948   7.636   0.564   8.423 -0.0939 -0.0797 -0.6672
27034SOL    HW185949   7.670   0.639   8.374  0.2619  0.8506  0.9041
27034SOL    HW285950   7.714   0.525   8.463 -0.6782  2.4685  3.5393
27035SOL     OW85951   6.252   3.310   3.143  0.8094  0.1536  0.5795
27035SOL    HW185952   6.285   3.254   3.072  1.6226 -0.1359  1.1697
27035SOL    HW285953   6.326   3.319   3.203 -0.0446 -0.1148  1.7119
27036SOL     OW85954   9.194   1.558   1.895 -0.2098  0.0957 -0.0500
27036SOL    HW185955   9.159   1.476   1.863 -0.6364 -0.0173  0.6923
27036SOL    HW285956   9.121   1.601   1.939 -0.2015  1.2233 -1.0614
27037SOL     OW85957   7.612   0.133   9.503 -0.0142  0.0590 -0.4185
27037SOL    HW185958   7.683   0.068   9.506 -1.5969 -1.7596 -0.4638
27037SOL    HW285959   7.629   0.183   9.423  0.1575 -1.6730 -1.5211
27038SOL     OW85960   0.159   5.702   1.903  0.1624 -0.4578  0.5313
27038SOL    HW185961   0.242   5.747   1.918 -0.9925  1.5157  1.3550
27038SOL    HW285962   0.131   5.672   1.989  0.3745 -1.8487  0.1449
27039SOL     OW85963   0.919   6.011   4.444  0.2698 -0.4516  0.2714
27039SOL    HW185964   0.986   5.982   4.383  1.9522 -0.4221  2.0064
27039SOL    HW285965   0.957   5.995   4.531 -0.8909  1.9612  1.3144
27040SOL     OW85966   7.915   1.931   4.395  0.0343 -0.1331 -0.4934
27040SOL    HW185967   7.987   1.938   4.332 -0.3484  1.7143 -0.7801
27040SOL    HW285968   7.959   1.920   4.480  0.6122 -0.1661 -0.7932
27041SOL     OW85969   5.521   2.729   8.752 -0.5321  0.1483 -0.5639
27041SOL    HW185970   5.542   2.741   8.659  1.9182  0.6861 -0.0324
27041SOL    HW285971   5.578   2.658   8.781 -2.6917 -1.3809  0.1433
27042SOL     OW85972   2.601   7.684   9.585 -0.0860 -0.4840  0.1306
27042SOL    HW185973   2.555   7.601   9.590 -0.4158 -0.4135 -1.3012
27042SOL    HW285974   2.542   7.742   9.538  1.5410 -0.5042 -2.1199
27043SOL     OW85975   1.851   1.329   8.761  0.1386  0.3066  0.0430
27043SOL    HW185976   1.885   1.417   8.748  2.1621 -0.4460 -0.2242
27043SOL    HW285977   1.885   1.302   8.846 -0.7801 -0.0965  0.2988
27044SOL     OW85978   5.499   0.491   0.004  0.2702  0.1845  0.6181
27044SOL    HW185979   5.407   0.487   0.031 -0.9475  1.2225 -2.7958
27044SOL    HW285980   5.541   0.419   0.051 -3.2174 -3.1190 -0.7533
27045SOL     OW85981   2.811   7.578   1.411  0.0349  0.0912  0.2788
27045SOL    HW185982   2.749   7.521   1.457 -1.3835 -0.0597 -1.7051
27045SOL    HW285983   2.786   7.666   1.439  0.7621 -0.0994  1.6085
27046SOL     OW85984   4.946   6.184   7.954 -0.0285  0.5316 -0.0340
27046SOL    HW185985   4.900   6.178   7.871  0.3493 -1.6676 -0.1470
27046SOL    HW285986   5.032   6.145   7.937 -0.0203 -0.1580  1.4044
27047SOL     OW85987   8.238   5.053   9.582 -0.0961 -0.6511 -0.1045
27047SOL    HW185988   8.259   5.093   9.498  0.7816 -1.8084 -0.4458
27047SOL    HW285989   8.185   4.977   9.560  1.2763 -1.7465  0.2789
27048SOL     OW85990   9.474   1.818   4.766  0.5954  0.3037  0.3657
27048SOL    HW185991   9.515   1.792   4.848  1.1128  2.0707  0.7098
27048SOL    HW285992   9.381   1.829   4.788  0.4177 -0.9292  0.2728
27049SOL     OW85993   1.790   2.357   1.417  0.6812  0.0015  0.3273
27049SOL    HW185994   1.753   2.439   1.383  0.1359 -0.5491 -0.4624
27049SOL    HW285995   1.883   2.362   1.395  0.6286  0.3520  0.1722
27050SOL     OW85996   8.602   1.398   4.492  0.4629  0.3134  0.0066
27050SOL    HW185997   8.662   1.391   4.566  2.2105 -1.9565 -1.5060
27050SOL    HW285998   8.657   1.388   4.414 -1.8004 -1.6917 -1.4748
27051SOL     OW85999   7.188   4.583   0.220  0.4506 -0.0781  0.3124
27051SOL    HW186000   7.192   4.535   0.303  0.1489 -0.0854  0.3228
27051SOL    HW286001   7.186   4.515   0.153  0.0513 -0.0828  0.3260
27052SOL     OW86002   6.601   0.328   5.508 -0.1149  0.0545 -0.0716
27052SOL    HW186003   6.627   0.394   5.444  0.6661 -1.5633 -1.5188
27052SOL    HW286004   6.681   0.310   5.558 -0.0768 -0.3858 -0.2785
27053SOL     OW86005   4.839   3.447   8.137 -0.2214 -0.2835 -0.2020
27053SOL    HW186006   4.848   3.368   8.190 -1.0077 -0.0105  0.3702
27053SOL    HW286007   4.795   3.509   8.195  0.4484  0.6005 -0.6189
27054SOL     OW86008   8.866   5.412   2.770 -0.1619  0.4935 -0.5193
27054SOL    HW186009   8.955   5.445   2.780  0.2493 -0.5358 -0.6572
27054SOL    HW286010   8.811   5.478   2.813  0.8568  0.1027  1.5418
27055SOL     OW86011   4.332   0.549   3.456 -0.1016 -0.3710  0.0626
27055SOL    HW186012   4.288   0.633   3.445 -0.8659 -0.7061  0.4815
27055SOL    HW286013   4.262   0.485   3.454  0.2443 -0.8456  1.7318
27056SOL     OW86014   7.186   5.341   3.725 -0.4272 -0.1614  0.0078
27056SOL    HW186015   7.161   5.312   3.813  0.9056  0.3584  0.5871
27056SOL    HW286016   7.140   5.424   3.713 -0.8326 -0.3713  0.0981
27057SOL     OW86017   2.113   3.771   6.210  0.9559 -0.4647 -0.3639
27057SOL    HW186018   2.181   3.813   6.262 -1.8075  0.7486  2.6462
27057SOL    HW286019   2.067   3.844   6.168  0.9806 -1.1909 -1.6997
27058SOL     OW86020   6.330   3.800   2.869 -0.1268 -0.6749 -0.2538
27058SOL    HW186021   6.362   3.877   2.821 -1.6372 -0.9293 -1.7861
27058SOL    HW286022   6.303   3.739   2.800  0.5780 -2.4069  0.9270
27059SOL     OW86023   6.123   5.142   5.968  0.4219 -0.0130  0.1673
27059SOL    HW186024   6.211   5.179   5.964  0.8588 -1.0837 -0.2981
27059SOL    HW286025   6.124   5.069   5.907 -0.4880 -0.6713  0.9052
27060SOL     OW86026   8.586   2.966   1.597  0.7386 -0.0587  0.0890
27060SOL    HW186027   8.547   3.050   1.570 -0.8265 -0.5018  0.8226
27060SOL    HW286028   8.558   2.904   1.529 -0.4437 -0.5147  0.9591
27061SOL     OW86029   0.922   8.872   4.287 -0.8412  0.3907 -0.0155
27061SOL    HW186030   0.998   8.912   4.244 -0.5875 -0.9040 -0.8277
27061SOL    HW286031   0.851   8.934   4.270 -0.8885 -0.2779 -2.8494
27062SOL     OW86032   8.107   7.478   1.407 -0.2179 -0.6741  0.1820
27062SOL    HW186033   8.102   7.407   1.470 -1.9291 -1.6067 -0.9202
27062SOL    HW286034   8.101   7.435   1.321 -0.0689  0.6944 -0.5529
27063SOL     OW86035   1.365   8.419   3.941  0.1346  0.1565 -0.0203
27063SOL    HW186036   1.285   8.371   3.961 -0.4387  1.7884  1.9363
27063SOL    HW286037   1.396   8.450   4.026  1.8718  1.0657 -0.9418
27064SOL     OW86038   6.623   5.465   6.886  0.4890  0.0349 -0.1471
27064SOL    HW186039   6.660   5.423   6.963  0.8592 -1.2266 -0.9882
27064SOL    HW286040   6.556   5.404   6.855  0.1987  0.6233 -0.7173
27065SOL     OW86041   6.757   4.920   8.570 -0.2752  0.2095 -0.5397
27065SOL    HW186042   6.799   4.858   8.510 -1.4057 -0.2536 -0.8815
27065SOL    HW286043   6.795   4.900   8.655  0.1620 -0.2222 -0.8296
27066SOL     OW86044   1.713   2.748   5.585 -0.1701 -0.7107 -0.4725
27066SOL    HW186045   1.722   2.797   5.667  2.2207  2.2837 -2.3123
27066SOL    HW286046   1.785   2.685   5.587 -1.2317 -1.9663  0.4255
27067SOL     OW86047   2.053   5.277   1.098 -0.0691  0.4342 -0.3450
27067SOL    HW186048   2.033   5.184   1.113 -2.1685  0.9549  0.4014
27067SOL    HW286049   2.079   5.310   1.184  0.1149  0.6891 -0.4977
27068SOL     OW86050   7.188   6.164   4.970  1.0065 -0.1333 -0.7267
27068SOL    HW186051   7.270   6.197   5.006  0.1703  2.1253 -0.6822
27068SOL    HW286052   7.128   6.239   4.976 -1.6126 -2.2036  0.8934
27069SOL     OW86053   0.526   4.058   8.494  0.1125 -0.6537  0.6305
27069SOL    HW186054   0.444   4.056   8.445 -0.7915  2.4981  1.7700
27069SOL    HW286055   0.499   4.060   8.586  1.3087  1.6454  1.0148
27070SOL     OW86056   8.617   5.426   4.820 -0.0343 -0.7217  0.3297
27070SOL    HW186057   8.592   5.469   4.738 -0.5653  0.6497  1.1697
27070SOL    HW286058   8.644   5.338   4.794  1.8329  0.3168 -1.5736
27071SOL     OW86059   3.616   9.617   7.453  0.1855 -0.0801 -0.3938
27071SOL    HW186060   3.659   9.696   7.423 -2.5953  1.6752 -0.0766
27071SOL    HW286061   3.599   9.567   7.373  0.3243  0.5168 -0.8023
27072SOL     OW86062   1.509   6.296   9.586  0.3643 -0.2379 -0.2721
27072SOL    HW186063   1.549   6.242   9.655  0.7800 -1.2662 -1.2813
27072SOL    HW286064   1.436   6.243   9.554 -0.1061  0.4368 -0.3087
27073SOL     OW86065   2.610   0.516   8.659  0.0646  0.4127 -0.2494
27073SOL    HW186066   2.588   0.507   8.751  2.2994 -0.4019  0.2751
27073SOL    HW286067   2.612   0.611   8.643 -0.7873  0.5455  0.3919
27074SOL     OW86068   4.216   6.839   2.998  0.0157 -0.1901  0.3058
27074SOL    HW186069   4.292   6.820   3.052  0.1997  0.2743  0.2144
27074SOL    HW286070   4.251   6.882   2.920 -0.3990  0.7487  0.6202
27075SOL     OW86071   0.987   9.665   8.333  0.1045 -0.0847 -0.8497
27075SOL    HW186072   1.043   9.604   8.286 -0.3332 -0.6448 -0.6595
27075SOL    HW286073   0.993   9.638   8.424 -0.0882  0.1613 -0.7640
27076SOL     OW86074   8.134   2.473   9.223 -0.9914  0.5041  0.3804
27076SOL    HW186075   8.049   2.498   9.185 -0.9103 -0.5489 -0.5523
27076SOL    HW286076   8.171   2.555   9.256 -1.5392  1.3015 -0.9168
27077SOL     OW86077   1.558   4.832   3.509 -0.1268 -0.1485  0.2009
27077SOL    HW186078   1.560   4.738   3.489  0.4306 -0.0454 -0.2567
27077SOL    HW286079   1.490   4.841   3.576  0.5200 -1.0266  1.0071
27078SOL     OW86080   3.204   3.749   5.122 -0.4429  0.7930 -0.6575
27078SOL    HW186081   3.272   3.773   5.186 -0.7564  0.4560 -0.1886
27078SOL    HW286082   3.245   3.764   5.037  0.2584  0.5090 -0.3822
27079SOL     OW86083   7.645   2.572   3.979  0.3743 -0.7133 -0.1297
27079SOL    HW186084   7.602   2.632   4.040 -1.9435 -1.3868 -0.9787
27079SOL    HW286085   7.695   2.628   3.920 -0.7576  0.2992 -0.1549
27080SOL     OW86086   1.199   4.268   0.041  0.3903  0.0269 -0.3791
27080SOL    HW186087   1.251   4.276  -0.039 -0.1268 -0.8044 -0.8187
27080SOL    HW286088   1.256   4.222   0.103  1.6336  2.6601  0.5520
27081SOL     OW86089   5.583   4.861   1.606  0.1139 -0.2909  0.0590
27081SOL    HW186090   5.637   4.794   1.646  1.4621  1.2213  0.8360
27081SOL    HW286091   5.642   4.909   1.548 -1.0126 -0.2574 -1.1183
27082SOL     OW86092   0.233   4.105   4.229  0.3360 -0.0963  0.0113
27082SOL    HW186093   0.163   4.164   4.257  1.1405  1.1773 -0.5495
27082SOL    HW286094   0.252   4.052   4.306 -0.7891 -0.0146  0.3668
27083SOL     OW86095   0.522   8.687   4.445  0.1699 -0.4938 -0.1690
27083SOL    HW186096   0.461   8.622   4.480  0.2490 -0.3540  0.2422
27083SOL    HW286097   0.497   8.698   4.354 -0.2263 -0.6565 -0.0805
27084SOL     OW86098   6.552   5.177   1.477 -0.5589 -0.2690 -0.3104
27084SOL    HW186099   6.567   5.166   1.383  0.3510  1.7358 -0.4719
27084SOL    HW286100   6.474   5.232   1.482 -1.2797 -1.3143  0.1683
27085SOL     OW86101   4.170   4.417   7.855 -0.1144 -0.2950 -0.1612
27085SOL    HW186102   4.147   4.510   7.849 -1.2365 -0.5356  0.1093
27085SOL    HW286103   4.266   4.416   7.854 -0.0719  0.9089  0.4004
27086SOL     OW86104   3.998   7.992   6.603  0.5037  0.3692  0.4634
27086SOL    HW186105   3.990   7.920   6.664  2.0532 -0.9797 -0.8297
27086SOL    HW286106   3.914   8.038   6.609 -1.7821 -3.2121 -0.7168
27087SOL     OW86107   3.250   5.848   8.652 -0.4776  0.2998 -0.5202
27087SOL    HW186108   3.332   5.883   8.686  0.6381 -1.7933 -0.9418
27087SOL    HW286109   3.228   5.905   8.579  0.3597  1.1310 -0.1357
27088SOL     OW86110   4.160   3.732   5.147  0.2630  0.2585  0.6314
27088SOL    HW186111   4.114   3.667   5.200  0.8731  0.1884  1.0920
27088SOL    HW286112   4.098   3.756   5.078 -0.0198 -0.7058  0.5391
27089SOL     OW86113   3.500   5.126   6.300  0.3076  0.1993 -0.0042
27089SOL    HW186114   3.409   5.104   6.319  0.8632 -2.9713 -0.4247
27089SOL    HW286115   3.512   5.098   6.209  1.1371  2.8034 -0.7658
27090SOL     OW86116   7.693   8.300   5.410 -0.0818 -0.1007  0.4290
27090SOL    HW186117   7.731   8.363   5.471 -0.5028  0.5989 -0.0093
27090SOL    HW286118   7.666   8.353   5.334  1.5383 -1.0983 -0.9143
27091SOL     OW86119   1.544   5.048   8.693 -0.2618  0.7130 -0.6000
27091SOL    HW186120   1.588   4.967   8.718  0.2165  1.6474  1.8430
27091SOL    HW286121   1.480   5.064   8.763 -0.1139  2.5958 -0.8320
27092SOL     OW86122   2.228   6.914   8.219  0.0259 -0.0753 -0.2610
27092SOL    HW186123   2.232   6.969   8.297 -1.9208 -0.1510 -0.0508
27092SOL    HW286124   2.195   6.972   8.151 -0.9736 -0.6974 -0.3128
27093SOL     OW86125   7.270   5.079   1.402 -0.2062  0.0202  0.0241
27093SOL    HW186126   7.315   4.999   1.374  2.0271  1.1829  0.0775
27093SOL    HW286127   7.195   5.087   1.342 -0.8043 -2.3566  0.3699
27094SOL     OW86128   9.570   6.354   9.260  0.0107  0.2833 -0.3982
27094SOL    HW186129   9.664   6.349   9.242 -0.3077 -1.8735 -1.8351
27094SOL    HW286130   9.529   6.344   9.174 -1.5491 -0.5328  0.4015
27095SOL     OW86131   6.080   4.644   6.688 -0.4019  0.3453 -0.1342
27095SOL    HW186132   6.005   4.688   6.646 -0.8429 -0.9924 -0.8124
27095SOL    HW286133   6.042   4.568   6.731  0.5105 -0.0768 -0.0579
27096SOL     OW86134   2.747   2.552   9.410  0.0071 -0.6479  0.7635
27096SOL    HW186135   2.735   2.638   9.370  0.3196 -0.8386  0.2536
27096SOL    HW286136   2.680   2.548   9.479  1.5718  1.0255  2.5211
27097SOL     OW86137   4.380   0.720   9.706 -0.1530 -0.7564 -0.4872
27097SOL    HW186138   4.458   0.739   9.758  0.4440  1.6039 -2.0996
27097SOL    HW286139   4.307   0.757   9.756  0.1533 -0.2761 -0.4002
27098SOL     OW86140   4.776   8.788   0.018  0.1263 -0.5621 -0.1257
27098SOL    HW186141   4.711   8.814   0.084 -1.0782 -3.4687 -0.0528
27098SOL    HW286142   4.782   8.864  -0.040  0.1365  1.5456  2.4122
27099SOL     OW86143   0.131   2.331   4.888  0.5925  0.0975  0.3342
27099SOL    HW186144   0.143   2.238   4.904  0.7505 -0.1358 -0.9650
27099SOL    HW286145   0.180   2.375   4.957  1.9160 -0.8008  0.0032
27100SOL     OW86146   9.378   5.943   4.005 -0.2906 -0.0229  0.4393
27100SOL    HW186147   9.314   5.965   4.072  0.0350  0.7530  0.5036
27100SOL    HW286148   9.329   5.893   3.940 -0.7826 -0.0921  0.8624
27101SOL     OW86149   3.874   1.049   7.306  0.4258 -0.2054  0.0889
27101SOL    HW186150   3.884   0.964   7.349 -1.1533  0.1372  1.2197
27101SOL    HW286151   3.930   1.108   7.357 -1.6181  0.2504  1.9797
27102SOL     OW86152   7.022   7.043   0.552  0.1605  0.0624 -0.2681
27102SOL    HW186153   7.049   7.135   0.548 -1.3490  0.5280 -0.1099
27102SOL    HW286154   7.023   7.022   0.645  0.4683 -0.0813 -0.3019
27103SOL     OW86155   0.357   0.914   9.643 -0.0729  0.6848  0.2128
27103SOL    HW186156   0.265   0.890   9.632  0.5365 -1.4012 -1.0201
27103SOL    HW286157   0.357   1.009   9.649 -2.1309  0.9207 -2.0182
27104SOL     OW86158   1.873   5.584   9.349  0.0926 -0.1797  0.0231
27104SOL    HW186159   1.803   5.646   9.331 -0.1512 -0.1423  1.0389
27104SOL    HW286160   1.878   5.580   9.444  0.0406 -1.7666  0.0020
27105SOL     OW86161   3.308   6.278   3.913  0.7040  0.4564  0.1297
27105SOL    HW186162   3.261   6.347   3.866  0.9082  0.2928 -0.3201
27105SOL    HW286163   3.330   6.317   3.998 -0.0723  0.6007  0.2771
27106SOL     OW86164   4.368   7.233   2.993 -0.3711  0.1233 -0.1483
27106SOL    HW186165   4.455   7.230   2.954 -0.5630 -0.1490 -0.5634
27106SOL    HW286166   4.309   7.205   2.923 -0.8342  0.6663  0.0137
27107SOL     OW86167   0.881   0.996   3.343  0.5826 -0.6503 -0.2089
27107SOL    HW186168   0.878   0.936   3.418  2.2151 -1.5625 -0.8110
27107SOL    HW286169   0.963   0.974   3.298  1.4370  2.2261 -0.3057
27108SOL     OW86170   0.584   5.156   0.911  0.4705  0.2419 -0.0219
27108SOL    HW186171   0.561   5.190   0.998 -0.7246  1.3016 -0.7270
27108SOL    HW286172   0.679   5.150   0.913  0.5185  1.0123  1.0923
27109SOL     OW86173   1.883   3.902   4.384  0.0049 -0.5185  0.3998
27109SOL    HW186174   1.837   3.819   4.373 -0.1233 -0.2093 -2.0509
27109SOL    HW286175   1.933   3.892   4.465  0.3164 -3.1467 -0.0286
27110SOL     OW86176   4.605   2.772   9.526  0.9446  0.0614 -0.3116
27110SOL    HW186177   4.618   2.696   9.469 -2.1541 -0.5327 -0.3949
27110SOL    HW286178   4.592   2.734   9.613  3.3887  0.8326  0.4654
27111SOL     OW86179   9.436   6.747   7.376 -0.3725  0.2143 -0.3507
27111SOL    HW186180   9.383   6.740   7.297  0.4269 -0.8786 -0.8181
27111SOL    HW286181   9.515   6.696   7.357  0.6755  1.4599  0.4719
27112SOL     OW86182   4.574   3.282   2.106  0.2409  0.0599  0.3315
27112SOL    HW186183   4.578   3.357   2.046  0.9996 -0.7203 -0.6230
27112SOL    HW286184   4.566   3.206   2.048  1.0630 -0.7127  1.2102
27113SOL     OW86185   7.629   5.692   9.312 -0.7606  0.0445 -0.2164
27113SOL    HW186186   7.570   5.618   9.325 -1.7548  0.8999  0.2406
27113SOL    HW286187   7.689   5.664   9.243 -0.4791 -1.5686  0.6440
27114SOL     OW86188   2.195   2.224   7.824  0.2619 -0.2949 -0.2889
27114SOL    HW186189   2.240   2.164   7.883  1.8123  2.0105  1.0519
27114SOL    HW286190   2.256   2.238   7.752  0.0853  0.0138 -0.3823
27115SOL     OW86191   8.232   0.637   4.824  0.4303 -0.3612  0.3335
27115SOL    HW186192   8.144   0.675   4.815  0.2872 -0.2232  2.0265
27115SOL    HW286193   8.290   0.699   4.780 -0.1294  0.4157  0.6777
27116SOL     OW86194   5.527   8.486   8.624 -0.1659 -0.6794 -0.4508
27116SOL    HW186195   5.502   8.546   8.694  0.6636  0.5268 -1.1475
27116SOL    HW286196   5.445   8.443   8.600 -1.2672  1.6694 -1.2749
27117SOL     OW86197   9.609   5.134   1.179  0.3909  0.5468 -0.2775
27117SOL    HW186198   9.619   5.218   1.223 -2.2688  1.8501 -1.8693
27117SOL    HW286199   9.520   5.105   1.203  0.9788 -1.4855 -0.3511
27118SOL     OW86200   4.052   1.012   0.129  0.1025  0.6237 -0.1013
27118SOL    HW186201   4.061   0.998   0.035  3.4846  1.1054  0.0049
27118SOL    HW286202   4.083   1.102   0.142  1.2131  0.0390  1.5936
27119SOL     OW86203   7.221   0.502   7.705 -0.3661 -0.4331  0.1189
27119SOL    HW186204   7.316   0.510   7.703 -0.3566  0.1955  1.6341
27119SOL    HW286205   7.195   0.494   7.613  0.9825  1.2897 -0.4528
27120SOL     OW86206   1.905   6.313   8.222 -0.1792 -0.1271  0.6320
27120SOL    HW186207   1.915   6.223   8.191 -0.2828 -0.3076  1.1132
27120SOL    HW286208   1.904   6.366   8.143  0.0440 -0.5364  0.3529
27121SOL     OW86209   8.129   6.826   7.251  0.3870  0.0085 -0.0987
27121SOL    HW186210   8.096   6.811   7.340  2.8532  3.1755  1.5361
27121SOL    HW286211   8.062   6.880   7.210 -0.4972 -0.9982 -0.0461
27122SOL     OW86212   7.215   6.207   6.589  0.3255  0.3853  0.2798
27122SOL    HW186213   7.276   6.141   6.620 -1.6069 -0.2983  2.9596
27122SOL    HW286214   7.129   6.167   6.597 -0.7884  2.5862  0.3028
27123SOL     OW86215   0.876   5.301   7.466  0.3157  0.1961 -0.3716
27123SOL    HW186216   0.853   5.392   7.444  1.6324  0.3792 -1.1419
27123SOL    HW286217   0.880   5.256   7.381 -0.5602 -0.6516  0.0273
27124SOL     OW86218   4.396   5.275   3.637  0.7132 -0.1926  0.3871
27124SOL    HW186219   4.316   5.227   3.615 -0.1260 -0.0462  2.8106
27124SOL    HW286220   4.443   5.217   3.698  0.6810  1.1642  1.7567
27125SOL     OW86221   0.678   7.741   0.291  0.4258 -0.0903  0.5540
27125SOL    HW186222   0.732   7.714   0.217  1.4467 -0.6284  1.4566
27125SOL    HW286223   0.730   7.717   0.368 -1.7514 -2.0910  1.5376
27126SOL     OW86224   1.522   3.243   7.004  0.6302 -0.1057 -0.3308
27126SOL    HW186225   1.439   3.227   6.959  1.1128  0.7769 -1.5942
27126SOL    HW286226   1.510   3.206   7.091 -0.9890 -0.2372 -0.5864
27127SOL     OW86227   2.072   0.122   4.950 -0.2694  0.0991  0.5678
27127SOL    HW186228   2.080   0.027   4.959  2.3224  0.1443 -0.3568
27127SOL    HW286229   1.978   0.138   4.947 -0.7792 -2.4035  1.0255
27128SOL     OW86230   3.174   8.915   0.483 -1.0778  0.0912  0.0181
27128SOL    HW186231   3.114   8.861   0.431 -0.4655 -0.3563 -0.2354
27128SOL    HW286232   3.192   8.862   0.561 -1.8467  0.6808  0.6171
27129SOL     OW86233   2.895   0.799   0.828 -0.5884 -0.7996  0.0960
27129SOL    HW186234   2.912   0.877   0.776  1.9487 -1.4652 -0.2316
27129SOL    HW286235   2.800   0.793   0.833 -0.8618  1.3576 -1.2742
27130SOL     OW86236   3.536   4.124   7.343  0.6778  0.6473  0.4701
27130SOL    HW186237   3.618   4.156   7.306  0.8941  1.1385  1.3609
27130SOL    HW286238   3.487   4.203   7.366  0.5267  0.3579  1.1767
27131SOL     OW86239   4.786   8.246   5.831  0.4085  0.1659 -0.2504
27131SOL    HW186240   4.721   8.252   5.901  0.2109 -1.9318 -0.1913
27131SOL    HW286241   4.752   8.178   5.773  2.2168 -0.5176 -0.5640
27132SOL     OW86242   4.626   2.131   3.841 -0.4921 -0.4460  0.1420
27132SOL    HW186243   4.535   2.126   3.810  0.2679  0.1415 -2.3693
27132SOL    HW286244   4.625   2.199   3.908 -2.0562 -1.1404  0.8811
27133SOL     OW86245   8.829   6.809   8.215 -0.2222  0.3155 -0.1431
27133SOL    HW186246   8.749   6.783   8.262 -0.2365 -1.3024 -1.0008
27133SOL    HW286247   8.814   6.779   8.125  0.6242  1.5974 -0.7286
27134SOL     OW86248   6.536   7.340   7.860 -0.4037  0.6630  0.9140
27134SOL    HW186249   6.458   7.377   7.902 -0.6559 -0.3353  1.3701
27134SOL    HW286250   6.509   7.253   7.831 -0.4631  1.5669 -2.0852
27135SOL     OW86251   6.607   1.096   4.853  0.2309  0.0269  0.1053
27135SOL    HW186252   6.563   1.148   4.786  1.5145 -0.6806 -1.3641
27135SOL    HW286253   6.666   1.038   4.803 -0.5133 -2.2348  1.6864
27136SOL     OW86254   1.040   2.097   0.916  0.3296 -0.5993  0.0363
27136SOL    HW186255   1.069   2.059   0.999  1.1828  1.4711  0.7607
27136SOL    HW286256   1.116   2.091   0.858  1.1340  1.5185  0.7553
27137SOL     OW86257   5.363   5.883   7.293  0.5439  0.3664 -0.0507
27137SOL    HW186258   5.406   5.797   7.300  1.2129  0.6684 -0.3901
27137SOL    HW286259   5.297   5.882   7.362 -1.1745 -1.3945 -1.5761
27138SOL     OW86260   3.515   1.604   6.749  0.5407 -0.0519 -0.0078
27138SOL    HW186261   3.523   1.598   6.654 -2.3750 -2.4026 -0.2469
27138SOL    HW286262   3.541   1.518   6.781  1.6723  0.7743  1.4068
27139SOL     OW86263   3.595   7.627   9.023  0.5711 -0.1878 -0.4817
27139SOL    HW186264   3.516   7.646   9.074 -0.0472  2.4610 -2.2360
27139SOL    HW286265   3.652   7.702   9.039  2.9152 -2.0768  0.8232
27140SOL     OW86266   3.816   8.445   0.641 -0.1790 -0.0778  0.2976
27140SOL    HW186267   3.855   8.413   0.722  1.0499 -0.3150 -0.3551
27140SOL    HW286268   3.766   8.371   0.607  0.2637 -0.3634  0.2576
27141SOL     OW86269   7.920   3.027   3.830 -0.2653  0.0180 -0.1577
27141SOL    HW186270   7.995   3.056   3.882 -2.0242  1.5974  1.7061
27141SOL    HW286271   7.877   3.109   3.803 -1.0190 -0.8266 -1.6582
27142SOL     OW86272   5.673   9.640   8.220  0.3305  0.2285 -0.0649
27142SOL    HW186273   5.705   9.586   8.147 -1.1988  0.9474 -1.3271
27142SOL    HW286274   5.652   9.724   8.180 -1.2076  0.4261  1.0671
27143SOL     OW86275   4.462   3.234   7.663  0.3457  0.4166  0.2549
27143SOL    HW186276   4.511   3.286   7.726  2.3181 -0.3116 -0.5864
27143SOL    HW286277   4.452   3.148   7.704  1.4243  0.0149 -0.2638
27144SOL     OW86278   6.912   5.601   1.670  0.3295 -0.7611 -0.0842
27144SOL    HW186279   6.832   5.579   1.718 -0.5021  2.2108  0.1105
27144SOL    HW286280   6.888   5.591   1.577 -0.6266  0.9057 -0.0623
27145SOL     OW86281   1.022   0.801   2.901 -0.4170 -0.3763 -0.5228
27145SOL    HW186282   0.988   0.801   2.990 -0.4148 -1.7353 -0.5068
27145SOL    HW286283   1.114   0.826   2.909  0.0530 -2.1595  0.0768
27146SOL     OW86284   7.788   5.412   1.127 -0.0720 -0.6027 -0.2293
27146SOL    HW186285   7.878   5.444   1.136 -0.3768  0.6019 -1.1101
27146SOL    HW286286   7.742   5.450   1.201 -0.0728 -0.3907 -0.3385
27147SOL     OW86287   3.823   5.004   1.398  0.4527 -0.3849 -0.1382
27147SOL    HW186288   3.909   5.009   1.357  0.0308  1.7199 -0.8978
27147SOL    HW286289   3.809   5.091   1.436 -1.2527 -0.7422  0.1498
27148SOL     OW86290   3.047   3.474   6.136 -0.0428 -0.6258  0.1454
27148SOL    HW186291   2.964   3.455   6.180 -0.1069 -0.9524 -0.1141
27148SOL    HW286292   3.083   3.388   6.115 -0.0157 -0.4773 -0.4440
27149SOL     OW86293   0.845   6.403   4.292  0.3695  0.0502  0.1098
27149SOL    HW186294   0.856   6.350   4.371  0.0479 -0.0639  0.0810
27149SOL    HW286295   0.931   6.402   4.250  0.4460 -0.1934  0.2706
27150SOL     OW86296   4.369   3.350   6.751 -0.2357 -0.2806  0.6748
27150SOL    HW186297   4.341   3.423   6.807 -0.2337 -0.5690  1.0579
27150SOL    HW286298   4.394   3.391   6.668 -0.4263  0.1325  0.8191
27151SOL     OW86299   4.511   6.329   2.868 -0.0586 -0.0981  0.5796
27151SOL    HW186300   4.457   6.273   2.923  0.4714 -0.7030  0.4967
27151SOL    HW286301   4.476   6.417   2.881  0.2801 -0.1661  2.1807
27152SOL     OW86302   6.846   1.315   9.674  0.3355  0.3930 -0.4125
27152SOL    HW186303   6.778   1.271   9.726  0.0396  1.4628  0.1428
27152SOL    HW286304   6.871   1.251   9.608  0.7604 -1.0507  1.0678
27153SOL     OW86305   2.500   8.753   2.192  0.4353  0.1907  0.5769
27153SOL    HW186306   2.452   8.814   2.248  1.3467  0.9020  0.6044
27153SOL    HW286307   2.523   8.804   2.115 -1.5472 -1.0042 -0.9017
27154SOL     OW86308   9.499   6.694   3.439  0.4811  0.1227 -0.7943
27154SOL    HW186309   9.465   6.672   3.352  2.3126  0.2633 -1.6007
27154SOL    HW286310   9.594   6.689   3.429  0.7421 -1.4098  1.6212
27155SOL     OW86311   9.159   7.228   1.835  0.2039  0.0758 -0.5378
27155SOL    HW186312   9.113   7.278   1.769 -1.4427 -1.9394 -1.0250
27155SOL    HW286313   9.104   7.233   1.913 -0.0387 -1.0183 -0.6242
27156SOL     OW86314   9.531   4.453   1.700 -0.1056 -0.4399 -0.7369
27156SOL    HW186315   9.447   4.496   1.718 -0.1805 -0.8764 -0.0284
27156SOL    HW286316   9.511   4.389   1.632  0.0275  0.6973 -1.8870
27157SOL     OW86317   0.642   9.224   0.976 -0.3397  0.0893  0.1635
27157SOL    HW186318   0.704   9.258   0.911 -0.3684  3.4975  1.6812
27157SOL    HW286319   0.696   9.174   1.036  0.9119  2.1530  0.8923
27158SOL     OW86320   7.090   7.503   5.623  0.1884  0.5740  0.0492
27158SOL    HW186321   7.080   7.471   5.533  1.0878 -0.2956  0.2322
27158SOL    HW286322   7.072   7.597   5.618 -2.2830  0.1346 -0.5651
27159SOL     OW86323   4.818   6.923   6.301  0.0089 -0.4067  0.0656
27159SOL    HW186324   4.872   6.867   6.244  0.1644 -1.1002  0.8833
27159SOL    HW286325   4.787   6.864   6.370 -1.5835  0.0493 -0.2388
27160SOL     OW86326   5.404   0.010   6.573  0.0371  0.3282 -0.0450
27160SOL    HW186327   5.483  -0.020   6.529  0.9097  0.5361  1.3197
27160SOL    HW286328   5.434   0.075   6.636 -0.9062 -0.9541  1.8631
27161SOL     OW86329   5.530   1.930   7.363 -0.0603  0.4655  0.0542
27161SOL    HW186330   5.619   1.958   7.384 -0.2472  0.3793  1.0001
27161SOL    HW286331   5.540   1.883   7.280  0.7800  0.4407  0.1521
27162SOL     OW86332   1.843   2.092   0.257 -0.5754 -1.2945  0.0881
27162SOL    HW186333   1.758   2.118   0.219 -0.7672  0.1674  1.4187
27162SOL    HW286334   1.822   2.018   0.313 -1.1888 -0.2978  1.2133
27163SOL     OW86335   3.459   8.370   8.098  0.2993  0.1652 -0.5396
27163SOL    HW186336   3.401   8.407   8.031 -0.7251  0.6680  0.5749
27163SOL    HW286337   3.421   8.400   8.181  1.7764 -0.0936  0.2521
27164SOL     OW86338   4.199   6.196   8.996  0.0769 -0.2850 -0.2882
27164SOL    HW186339   4.280   6.220   9.041 -0.9145  2.0326  0.4195
27164SOL    HW286340   4.176   6.111   9.032  0.9346  0.1103  1.2930
27165SOL     OW86341   7.710   7.252   0.721 -0.5955  0.7529  0.6894
27165SOL    HW186342   7.618   7.230   0.737 -1.2142  0.9515 -2.0516
27165SOL    HW286343   7.745   7.272   0.808 -2.4438 -1.7859  2.1847
27166SOL     OW86344   1.132   0.973   3.254 -0.4886  0.0455 -0.5010
27166SOL    HW186345   1.201   1.027   3.217 -1.2584  1.0667 -0.4714
27166SOL    HW286346   1.145   0.978   3.349 -0.4963  0.1045 -0.5029
27167SOL     OW86347   8.620   0.301   3.417  0.4347  0.0976  0.0268
27167SOL    HW186348   8.580   0.387   3.411  2.5992  1.2145  0.6822
27167SOL    HW286349   8.620   0.268   3.327 -0.5227  0.7126 -0.2129
27168SOL     OW86350   4.865   9.548   1.595 -0.6785  0.2387  0.1039
27168SOL    HW186351   4.791   9.487   1.596 -0.0251 -0.5657  0.2976
27168SOL    HW286352   4.938   9.496   1.563  0.3041  0.4348  1.9032
27169SOL     OW86353   4.038   0.594   2.083 -0.1959  0.4259  1.2575
27169SOL    HW186354   4.077   0.665   2.033  0.9624 -1.6121 -0.9131
27169SOL    HW286355   4.103   0.572   2.150  1.6267 -1.5298 -0.9909
27170SOL     OW86356   6.123   7.255   8.173 -0.4642  0.1411  0.0377
27170SOL    HW186357   6.049   7.314   8.185 -1.4061 -0.5923 -1.7642
27170SOL    HW286358   6.099   7.176   8.222 -0.4473  0.2373  0.2027
27171SOL     OW86359   4.163   2.326   7.998 -0.2467  0.1079 -0.6656
27171SOL    HW186360   4.079   2.280   8.005 -0.6970  1.0657  0.5361
27171SOL    HW286361   4.154   2.382   7.921 -0.9067  0.5606 -0.2689
27172SOL     OW86362   2.810   8.975   4.475  0.3742 -0.6664 -0.0233
27172SOL    HW186363   2.749   8.933   4.535  1.4058  0.3793  1.8411
27172SOL    HW286364   2.885   8.998   4.529  1.2917  0.4880 -1.6975
27173SOL     OW86365   2.981   3.550   2.541 -0.4524  0.1979 -0.0439
27173SOL    HW186366   2.886   3.540   2.534 -0.4115  0.3794 -1.1108
27173SOL    HW286367   2.994   3.634   2.585 -0.7748 -0.7516  1.9431
27174SOL     OW86368   9.063   5.598   3.965  0.0451 -0.5021  0.7267
27174SOL    HW186369   9.100   5.624   3.880  0.3938 -1.4267  0.5891
27174SOL    HW286370   8.984   5.652   3.973 -0.8976 -1.5441 -0.9491
27175SOL     OW86371   4.819   8.206   6.618 -0.0828 -0.1344 -0.3036
27175SOL    HW186372   4.888   8.234   6.678 -0.7027 -0.4472  0.5757
27175SOL    HW286373   4.847   8.239   6.532  1.0306 -0.0479  0.0732
27176SOL     OW86374   6.427   0.957   7.366  0.0442  0.7999  0.0390
27176SOL    HW186375   6.431   1.039   7.317  1.8263  0.5143 -0.3344
27176SOL    HW286376   6.478   0.973   7.445  0.0201  0.1800  0.1859
27177SOL     OW86377   8.867   4.473   2.471 -0.0977  0.2352  0.4405
27177SOL    HW186378   8.942   4.425   2.436 -0.3156  0.8835 -0.9848
27177SOL    HW286379   8.882   4.474   2.566  0.2817 -1.9817  0.4683
27178SOL     OW86380   0.492   0.507   7.375 -0.3229 -0.3573 -0.6575
27178SOL    HW186381   0.546   0.538   7.447 -0.4625 -0.4395 -0.5186
27178SOL    HW286382   0.484   0.413   7.390 -2.9742  0.0499  0.9910
27179SOL     OW86383   5.745   5.030   8.139 -0.5107  0.6364 -0.0430
27179SOL    HW186384   5.793   4.997   8.064  0.1768  2.0059 -0.2394
27179SOL    HW286385   5.655   5.039   8.108 -0.2107  1.2915 -0.7463
27180SOL     OW86386   7.191   4.246   4.153 -0.7769  0.0785  0.3751
27180SOL    HW186387   7.203   4.284   4.240  0.5965 -1.3865  0.8874
27180SOL    HW286388   7.143   4.312   4.103  1.1431  2.3016  1.3031
27181SOL     OW86389   4.207   7.637   3.975  0.3739 -0.1627 -0.3198
27181SOL    HW186390   4.230   7.681   4.057 -4.7356 -1.4980  2.2313
27181SOL    HW286391   4.159   7.702   3.925  0.9404 -0.2290 -0.9764
27182SOL     OW86392   5.664   4.935   5.167 -0.3388 -0.1290 -0.3209
27182SOL    HW186393   5.657   4.924   5.072 -0.8147  0.4994 -0.3640
27182SOL    HW286394   5.716   4.860   5.196 -1.0524 -0.8866 -0.9562
27183SOL     OW86395   2.264   0.059   1.729 -0.0491  0.1396 -0.0421
27183SOL    HW186396   2.194   0.074   1.793  2.0762 -2.0645  3.1539
27183SOL    HW286397   2.228  -0.006   1.669 -0.8361 -0.8983  1.4868
27184SOL     OW86398   4.114   8.728   5.594  0.4422 -0.1877 -0.6107
27184SOL    HW186399   4.060   8.678   5.656  1.5050 -2.3614 -1.3303
27184SOL    HW286400   4.150   8.800   5.646 -0.2724 -0.8071  0.7946
27185SOL     OW86401   1.244   8.942   6.741  0.7200  0.4148 -0.5044
27185SOL    HW186402   1.259   8.912   6.651 -0.5949 -1.4538 -0.1637
27185SOL    HW286403   1.278   8.871   6.795  0.9796  1.2710  0.4872
27186SOL     OW86404   9.744   1.262   7.389  0.0616  0.3441  0.7019
27186SOL    HW186405   9.682   1.298   7.326  0.6450  0.2651  0.0731
27186SOL    HW286406   9.750   1.328   7.458  0.8422  1.3152 -0.2555
27187SOL     OW86407   6.365   6.800   8.984 -0.0529  0.4791  0.8334
27187SOL    HW186408   6.279   6.840   8.992 -0.4843  0.0970 -1.2094
27187SOL    HW286409   6.347   6.708   8.963  0.8629  0.2878  0.8084
27188SOL     OW86410   3.147   8.453   9.099  0.2099 -0.5537  0.3655
27188SOL    HW186411   3.233   8.449   9.058 -0.6832 -0.6752 -1.6209
27188SOL    HW286412   3.092   8.500   9.035 -1.1019 -0.1120  1.7558
27189SOL     OW86413   3.190   6.352   6.848 -0.5244 -0.4888  0.0669
27189SOL    HW186414   3.185   6.330   6.755  0.4341 -1.1933  0.1631
27189SOL    HW286415   3.245   6.283   6.886  0.5979  0.7739  0.8356
27190SOL     OW86416   0.771   9.402   2.022 -0.6016 -0.1219  0.0811
27190SOL    HW186417   0.698   9.365   1.972 -0.4296 -0.2342 -0.0888
27190SOL    HW286418   0.761   9.365   2.110 -1.7821  1.2518  0.5549
27191SOL     OW86419   0.007   7.785   2.268  0.1248  0.6812  0.0500
27191SOL    HW186420   0.069   7.852   2.296  0.6808 -0.3118  1.2888
27191SOL    HW286421   0.059   7.725   2.215  0.5360 -0.7205  1.9410
27192SOL     OW86422   8.037   0.883   5.871  0.0265  0.0064 -0.3873
27192SOL    HW186423   7.951   0.890   5.829 -0.5537 -0.4447  0.6812
27192SOL    HW286424   8.082   0.812   5.824 -0.0091  0.5207 -1.2212
27193SOL     OW86425   9.118   8.815   0.560 -0.2869 -0.1989 -0.0397
27193SOL    HW186426   9.066   8.811   0.640  1.1769 -1.6036  0.8990
27193SOL    HW286427   9.102   8.732   0.516 -0.9752  0.5084 -1.1751
27194SOL     OW86428   7.296   2.815   7.110  0.0604  0.2818  0.2653
27194SOL    HW186429   7.369   2.874   7.128 -0.1197 -0.0789  2.3228
27194SOL    HW286430   7.225   2.845   7.166 -0.7716 -0.5110 -0.3238
27195SOL     OW86431   7.050   6.983   0.836  0.2820  0.0858  0.1883
27195SOL    HW186432   6.993   7.040   0.887 -0.3198  0.0802 -0.4569
27195SOL    HW286433   7.033   6.895   0.871 -0.5558  0.0080 -0.3899
27196SOL     OW86434   8.322   8.417   1.071 -0.5692 -0.2109  0.3781
27196SOL    HW186435   8.303   8.507   1.045 -0.2645 -0.0140  0.8207
27196SOL    HW286436   8.242   8.369   1.050  0.5518 -0.6796 -3.5498
27197SOL     OW86437   1.944   6.540   3.182 -0.2709  0.3966  0.1118
27197SOL    HW186438   1.939   6.599   3.107  1.9936  0.2106 -0.2472
27197SOL    HW286439   2.012   6.578   3.238  1.0616 -1.6557  0.0043
27198SOL     OW86440   8.178   6.525   7.249 -0.0589 -0.6775  0.0907
27198SOL    HW186441   8.125   6.473   7.189 -0.0624 -0.0682 -0.4494
27198SOL    HW286442   8.154   6.616   7.229  0.4469 -0.4431  0.5349
27199SOL     OW86443   7.819   7.650   5.483  0.4323  0.5946  0.7046
27199SOL    HW186444   7.828   7.684   5.394 -0.7357  1.1484  0.7720
27199SOL    HW286445   7.736   7.688   5.515 -0.6193 -1.8042  1.0139
27200SOL     OW86446   8.673   3.369   6.513  0.1313  0.4522  0.1178
27200SOL    HW186447   8.762   3.397   6.491 -0.4097  1.3162 -1.1643
27200SOL    HW286448   8.630   3.359   6.428 -0.9385 -0.1490  0.7102
27201SOL     OW86449   7.577   2.448   8.985 -0.2050  0.3915  0.0536
27201SOL    HW186450   7.487   2.446   9.019  0.0412 -0.6254  0.6893
27201SOL    HW286451   7.624   2.383   9.037  0.3910 -0.6548 -1.7273
27202SOL     OW86452   5.953   8.301   7.376 -0.3212  0.1274 -0.0871
27202SOL    HW186453   5.987   8.270   7.292 -1.5510 -0.9020 -0.2358
27202SOL    HW286454   5.921   8.389   7.358 -0.0524  0.1303 -0.5648
27203SOL     OW86455   4.654   1.847   9.219  0.6934 -0.6466 -0.1894
27203SOL    HW186456   4.636   1.784   9.289 -1.2434  0.9550  0.8658
27203SOL    HW286457   4.728   1.899   9.251  0.9469 -1.0466 -0.1274
27204SOL     OW86458   4.170   2.879   1.962 -0.9270  0.4701 -0.3587
27204SOL    HW186459   4.231   2.878   1.888  1.0929  0.2037  1.2353
27204SOL    HW286460   4.175   2.968   1.996  0.8681 -0.2729  1.5174
27205SOL     OW86461   8.268   2.448   1.433 -0.0498  0.6873 -0.2534
27205SOL    HW186462   8.222   2.519   1.478  0.8193 -0.5788  2.9153
27205SOL    HW286463   8.200   2.382   1.418 -0.1514  0.6786  0.2268
27206SOL     OW86464   2.881   7.271   0.102  0.3391 -0.4770  0.3036
27206SOL    HW186465   2.890   7.260   0.008 -0.3692  1.0516  0.0180
27206SOL    HW286466   2.799   7.320   0.113  1.0517  0.4944  1.6141
27207SOL     OW86467   7.734   8.943   7.771 -0.0118 -0.1919 -0.1627
27207SOL    HW186468   7.688   8.979   7.695 -0.7906 -0.1535  0.3116
27207SOL    HW286469   7.822   8.925   7.739 -0.4943 -0.7490 -1.2445
27208SOL     OW86470   9.067   7.302   5.029  0.2667  0.4105 -0.3346
27208SOL    HW186471   8.996   7.343   5.078  1.0505  2.2138 -0.6291
27208SOL    HW286472   9.143   7.358   5.044  1.3277 -0.7562 -1.0612
27209SOL     OW86473   0.325   7.490   5.441 -0.1290  0.3872  0.8296
27209SOL    HW186474   0.345   7.553   5.372  0.0453 -1.4804 -0.9102
27209SOL    HW286475   0.242   7.451   5.414 -0.2035 -0.1762  1.8462
27210SOL     OW86476   7.757   9.627   7.038 -0.2518  0.2420 -0.0101
27210SOL    HW186477   7.848   9.648   7.060 -1.0828  1.8865  2.2779
27210SOL    HW286478   7.706   9.664   7.110 -2.7847 -0.3094 -1.4041
27211SOL     OW86479   2.921   8.150   1.071  0.2037  0.3522  0.0925
27211SOL    HW186480   2.837   8.194   1.080 -0.3234 -0.7508  0.7000
27211SOL    HW286481   2.942   8.158   0.978  0.2516  2.0784  0.2308
27212SOL     OW86482   9.699   8.619   1.230  0.4964  0.2448  0.1822
27212SOL    HW186483   9.767   8.674   1.192 -0.9152  2.5144  0.7084
27212SOL    HW286484   9.619   8.671   1.223 -1.0846 -2.0110  0.2192
27213SOL     OW86485   5.730   6.585   5.520  0.1592  0.5291 -0.0816
27213SOL    HW186486   5.792   6.561   5.451  0.3446  0.1945  0.2024
27213SOL    HW286487   5.644   6.580   5.478  0.2160 -0.3240 -0.1110
27214SOL     OW86488   9.177   6.966   1.786 -0.0492 -0.1287  0.6380
27214SOL    HW186489   9.262   6.927   1.767  0.3947  1.5302 -1.1986
27214SOL    HW286490   9.197   7.056   1.811 -1.2076 -0.1283  1.6810
27215SOL     OW86491   0.613   7.215   0.677  0.3078  0.1063 -0.0313
27215SOL    HW186492   0.599   7.309   0.686  2.4621  0.5896 -1.0313
27215SOL    HW286493   0.600   7.197   0.584  1.1227 -0.3327 -0.0696
27216SOL     OW86494   6.219   2.196   3.603  0.8994 -0.0430  0.6193
27216SOL    HW186495   6.170   2.125   3.560  2.0396 -0.3815 -0.1601
27216SOL    HW286496   6.239   2.258   3.533 -0.0369  1.0547  1.2850
27217SOL     OW86497   6.764   4.193   5.981 -0.5166  0.1906  0.4039
27217SOL    HW186498   6.794   4.274   6.022 -0.0570 -0.3359  1.1186
27217SOL    HW286499   6.669   4.202   5.978 -0.4163  1.1700 -0.4153
27218SOL     OW86500   1.502   5.259   8.995 -0.0672 -0.5684 -0.5350
27218SOL    HW186501   1.521   5.337   9.046  0.7943  0.3127 -2.1337
27218SOL    HW286502   1.456   5.291   8.917  0.5059 -1.6008 -1.3404
27219SOL     OW86503   5.060   0.298   3.542  0.3313 -0.4682 -0.5100
27219SOL    HW186504   4.971   0.270   3.523  0.3926 -0.6425 -0.5479
27219SOL    HW286505   5.051   0.386   3.579 -0.0818 -1.5272  2.0752
27220SOL     OW86506   4.720   2.957   7.804 -0.4269  0.6704  0.4120
27220SOL    HW186507   4.689   3.009   7.878 -0.1288 -0.2044  1.1689
27220SOL    HW286508   4.799   2.914   7.836 -0.5419 -0.0684 -0.2624
27221SOL     OW86509   6.602   4.066   8.881  0.1703 -0.1064 -0.3044
27221SOL    HW186510   6.556   3.985   8.905  0.8036  0.3026  2.6430
27221SOL    HW286511   6.538   4.136   8.898  0.3553  0.1520 -0.6648
27222SOL     OW86512   4.749   4.044   7.183 -0.0123 -0.2717  0.2120
27222SOL    HW186513   4.764   4.034   7.277  0.5723  0.6221  0.2238
27222SOL    HW286514   4.757   4.138   7.167  0.4337 -0.4746 -0.8265
27223SOL     OW86515   9.591   1.296   0.990  0.0028  0.1521  0.0657
27223SOL    HW186516   9.611   1.205   1.009  1.8237  0.3684 -0.6605
27223SOL    HW286517   9.637   1.346   1.056  0.0365  0.5955 -0.2873
27224SOL     OW86518   1.772   8.380   1.292 -0.2446  0.0475  0.3902
27224SOL    HW186519   1.695   8.389   1.235  0.5852  0.3157 -0.7338
27224SOL    HW286520   1.787   8.286   1.297 -0.4897  0.0078  0.4003
27225SOL     OW86521   2.709   9.018   2.054  0.0604 -0.0363  0.2567
27225SOL    HW186522   2.804   9.029   2.048 -0.0323  0.6064 -0.1608
27225SOL    HW286523   2.675   9.057   1.973 -0.3925 -2.6326 -0.9008
27226SOL     OW86524   8.424   1.599   0.790 -0.5049 -0.1714  0.4519
27226SOL    HW186525   8.334   1.627   0.802 -0.3176 -0.0820  1.7175
27226SOL    HW286526   8.470   1.628   0.869 -0.0342 -2.9295  1.2831
27227SOL     OW86527   9.083   9.708   3.813 -0.0563 -0.0170 -0.4554
27227SOL    HW186528   9.136   9.677   3.740 -2.3433 -2.0740 -1.4005
27227SOL    HW286529   9.004   9.742   3.773 -0.9133 -0.2005  0.9939
27228SOL     OW86530   2.141   8.643   3.839  0.3560 -0.3871  0.0237
27228SOL    HW186531   2.052   8.677   3.826 -0.2089 -1.1946  1.5535
27228SOL    HW286532   2.131   8.548   3.838  1.2930 -0.4966 -0.2590
27229SOL     OW86533   7.678   8.043   3.331  0.1147  0.9541 -0.4336
27229SOL    HW186534   7.727   8.081   3.258  1.2578 -0.2725 -0.3495
27229SOL    HW286535   7.727   8.071   3.409 -0.1299  0.8900 -0.2567
27230SOL     OW86536   2.916   2.959   4.663  0.5985  0.5076  0.8236
27230SOL    HW186537   3.006   2.931   4.646  0.0304 -0.9906  0.0682
27230SOL    HW286538   2.891   3.009   4.586  0.1608 -0.7446  0.1336
27231SOL     OW86539   5.631   4.777   3.169  0.6101  1.0183 -0.6798
27231SOL    HW186540   5.654   4.805   3.258 -1.2138  0.0862  0.1440
27231SOL    HW286541   5.694   4.708   3.148 -1.5973 -2.0666  1.8322
27232SOL     OW86542   8.762   9.378   6.232 -0.5883 -0.3425  0.2943
27232SOL    HW186543   8.797   9.444   6.291  2.0151 -0.7577 -0.6388
27232SOL    HW286544   8.707   9.427   6.170  1.8404  1.1824 -0.8209
27233SOL     OW86545   1.864   4.687   2.758  0.7959  0.0167  0.0452
27233SOL    HW186546   1.893   4.736   2.834 -0.0909  0.7666 -0.0917
27233SOL    HW286547   1.945   4.665   2.711  1.2013  4.6760 -1.9819
27234SOL     OW86548   1.916   3.294   2.402 -0.7297 -0.0475 -0.3968
27234SOL    HW186549   1.848   3.290   2.469  1.2168  1.1546  1.7922
27234SOL    HW286550   1.933   3.202   2.379 -1.0437 -0.5336  1.2024
27235SOL     OW86551   5.516   5.530   4.067 -0.0308 -0.0579 -0.0172
27235SOL    HW186552   5.457   5.602   4.088 -0.0771 -0.1582  0.2073
27235SOL    HW286553   5.497   5.509   3.976 -2.1481 -1.7089  0.7010
27236SOL     OW86554   0.676   3.667   4.652 -0.2270  0.3487 -0.5515
27236SOL    HW186555   0.687   3.599   4.718  0.1829  1.0517  0.1201
27236SOL    HW286556   0.765   3.693   4.628 -0.2738  2.8127  1.5011
27237SOL     OW86557   3.988   9.045   6.507  0.1823  0.4528  0.5343
27237SOL    HW186558   4.043   9.063   6.583  1.7303  0.9477 -0.6398
27237SOL    HW286559   4.020   9.106   6.440  0.6343 -1.6812 -1.3102
27238SOL     OW86560   9.679   4.683   3.298  0.1590  0.3605  0.5992
27238SOL    HW186561   9.589   4.654   3.283  0.8403 -1.0979 -1.0457
27238SOL    HW286562   9.711   4.625   3.367  0.2923 -0.1544  0.1111
27239SOL     OW86563   2.279   3.718   9.277  0.1994  0.2993 -0.5598
27239SOL    HW186564   2.312   3.652   9.216 -0.0387 -0.1071 -0.2510
27239SOL    HW286565   2.356   3.746   9.326  0.1019 -0.6894  0.2008
27240SOL     OW86566   7.443   2.220   6.190 -0.1775 -0.3028 -0.1471
27240SOL    HW186567   7.348   2.230   6.198 -0.1529 -0.6457  0.6773
27240SOL    HW286568   7.471   2.190   6.276  0.4140 -2.3059 -0.9928
27241SOL     OW86569   8.728   1.331   0.439  0.1811 -0.0967  0.1456
27241SOL    HW186570   8.674   1.406   0.415  0.8922  0.8191  1.2660
27241SOL    HW286571   8.714   1.322   0.533  1.1537 -0.5067  0.2563
27242SOL     OW86572   6.431   4.319   1.804 -0.2114 -0.2909  0.7024
27242SOL    HW186573   6.388   4.292   1.723  0.3575 -1.7548  0.8596
27242SOL    HW286574   6.368   4.379   1.846 -0.5315  0.4460 -0.7673
27243SOL     OW86575   5.059   0.738   9.165 -0.0152  0.3367  0.0678
27243SOL    HW186576   5.112   0.658   9.159 -0.0968  0.3703 -1.6372
27243SOL    HW286577   5.122   0.809   9.152 -0.0875  0.5157  0.6624
27244SOL     OW86578   7.273   1.098   6.552  0.0165  0.4836  0.1049
27244SOL    HW186579   7.270   1.089   6.647 -1.1021  1.6650  0.2110
27244SOL    HW286580   7.182   1.089   6.523  0.1575  1.4352 -0.6978
27245SOL     OW86581   0.450   6.108   4.417 -0.7977 -0.1518 -0.1001
27245SOL    HW186582   0.528   6.069   4.378 -1.3061 -0.5042 -0.7812
27245SOL    HW286583   0.377   6.062   4.376 -1.3585 -0.7856  1.5076
27246SOL     OW86584   9.404   0.482   7.778  0.0301 -0.2449 -0.0462
27246SOL    HW186585   9.388   0.534   7.699  2.4575 -1.3694 -1.3775
27246SOL    HW286586   9.477   0.525   7.821 -1.2120  0.2964  1.5940
27247SOL     OW86587   7.584   4.132   5.455  0.4251  0.6454  0.1302
27247SOL    HW186588   7.600   4.071   5.383 -0.2054  0.8842 -0.2215
27247SOL    HW286589   7.643   4.206   5.438  1.2019  0.1343  0.5664
27248SOL     OW86590   6.542   9.053   5.067 -0.0584  0.7127  0.5261
27248SOL    HW186591   6.476   9.009   5.014 -1.0620  2.1924  0.4625
27248SOL    HW286592   6.556   9.137   5.022  2.2378  0.2549  0.2821
27249SOL     OW86593   8.625   3.144   5.148  0.1418  0.1238 -0.1178
27249SOL    HW186594   8.716   3.119   5.134  0.4138  0.7923  0.4358
27249SOL    HW286595   8.591   3.077   5.208  0.5364  0.4092  0.4279
27250SOL     OW86596   2.439   9.752   3.722  0.1257  0.6154 -0.3133
27250SOL    HW186597   2.469   9.663   3.704 -0.1839 -0.0186  1.8782
27250SOL    HW286598   2.498   9.784   3.790 -1.2697  1.0961  0.7352
27251SOL     OW86599   8.249   3.458   9.713  0.5467  0.3267 -0.2365
27251SOL    HW186600   8.218   3.437   9.801 -1.4832  0.3216 -0.8989
27251SOL    HW286601   8.299   3.539   9.724  4.3685 -1.9610  1.5756
27252SOL     OW86602   3.534   0.034   7.785 -0.0681  0.3554 -0.1078
27252SOL    HW186603   3.620   0.015   7.823 -0.4532 -1.0936  0.1115
27252SOL    HW286604   3.472   0.018   7.856 -0.5105  1.8814 -0.1184
27253SOL     OW86605   9.348   4.077   8.534  0.2557 -0.1521  0.4182
27253SOL    HW186606   9.293   4.140   8.487 -2.0726 -0.5284  2.4271
27253SOL    HW286607   9.435   4.087   8.496 -0.3308  3.2849 -0.2704
27254SOL     OW86608   2.113   6.721   1.907  0.5478 -0.4908  0.1988
27254SOL    HW186609   2.180   6.691   1.968  1.4889 -0.0343 -0.5839
27254SOL    HW286610   2.161   6.740   1.826 -0.5634 -0.3875 -0.4526
27255SOL     OW86611   7.670   2.161   7.403 -0.0187 -0.3485  0.1454
27255SOL    HW186612   7.663   2.067   7.420 -1.1748 -0.2375  0.4017
27255SOL    HW286613   7.761   2.182   7.421  0.2370 -1.4098  0.1643
27256SOL     OW86614   0.912   0.309   0.720 -0.3208 -0.2793 -0.0028
27256SOL    HW186615   0.949   0.396   0.734 -0.3155 -0.3849  0.6655
27256SOL    HW286616   0.988   0.253   0.706 -0.3825  0.1135 -2.2542
27257SOL     OW86617   5.409   5.766   7.658  0.5532  0.2482  0.1450
27257SOL    HW186618   5.343   5.805   7.600  0.5334  2.6888  1.6863
27257SOL    HW286619   5.479   5.738   7.598  0.7314  3.0416 -1.1223
27258SOL     OW86620   6.196   8.301   2.140  0.0939  0.3205  0.1158
27258SOL    HW186621   6.125   8.357   2.107 -0.5785 -0.4067  0.3091
27258SOL    HW286622   6.240   8.270   2.061 -1.9123 -1.9493 -0.2539
27259SOL     OW86623   2.409   9.737   6.170  0.6589 -0.4801  0.2472
27259SOL    HW186624   2.473   9.689   6.223 -0.3933 -0.3695  1.6759
27259SOL    HW286625   2.361   9.668   6.124  1.6475 -0.5740 -0.6617
27260SOL     OW86626   2.768   5.850   5.442  0.3041 -0.4774  0.1947
27260SOL    HW186627   2.673   5.848   5.435  0.3262  0.0541 -0.3410
27260SOL    HW286628   2.798   5.879   5.356  1.0567 -2.6753 -0.3618
27261SOL     OW86629   0.014   1.804   3.777 -0.1866  0.7755  0.1782
27261SOL    HW186630  -0.005   1.870   3.710  0.9694  1.8693  0.8780
27261SOL    HW286631  -0.063   1.803   3.833  0.1330  2.1897  0.6646
27262SOL     OW86632   3.061   9.435   1.134 -0.4787 -0.0640  0.4306
27262SOL    HW186633   3.055   9.363   1.197 -1.8070 -1.6913 -1.4261
27262SOL    HW286634   3.139   9.415   1.082  0.1320  0.8110  0.9841
27263SOL     OW86635   0.081   5.643   9.124  0.0743 -0.1010 -0.3327
27263SOL    HW186636   0.110   5.556   9.096 -0.5295 -0.3884 -0.0880
27263SOL    HW286637   0.013   5.626   9.189 -2.8946  0.4450 -3.0377
27264SOL     OW86638   1.249   6.364   7.672  0.0819  0.2349  0.2924
27264SOL    HW186639   1.159   6.343   7.647  0.4743 -0.6132 -0.4664
27264SOL    HW286640   1.299   6.354   7.591  0.8336  0.8819  0.6640
27265SOL     OW86641   5.064   7.860   7.226  0.1199  0.4955 -0.2095
27265SOL    HW186642   5.085   7.938   7.174 -0.8832  1.1343  0.3144
27265SOL    HW286643   5.034   7.895   7.310 -0.2044 -0.4658  0.0850
27266SOL     OW86644   5.995   1.068   9.677  0.1397  1.1577  0.3344
27266SOL    HW186645   5.978   0.977   9.652  1.6933  0.7400  0.7017
27266SOL    HW286646   5.929   1.087   9.743 -0.1311  0.2529  0.3427
27267SOL     OW86647   8.278   6.886   6.087 -0.8411 -0.0748 -0.2306
27267SOL    HW186648   8.243   6.862   6.173 -1.3268 -3.8593 -1.3114
27267SOL    HW286649   8.372   6.872   6.094 -1.0284 -1.7515 -0.6105
27268SOL     OW86650   4.781   2.515   6.803 -0.5920 -0.1627  0.4190
27268SOL    HW186651   4.855   2.455   6.815 -0.5654 -0.0367  0.8981
27268SOL    HW286652   4.781   2.570   6.882  0.3063  1.4708 -0.6473
27269SOL     OW86653   6.707   2.647   3.482 -0.4675  0.0721  0.2755
27269SOL    HW186654   6.626   2.597   3.474 -0.2721 -0.4862  1.5255
27269SOL    HW286655   6.679   2.735   3.509 -0.9351  1.2235 -3.3748
27270SOL     OW86656   4.977   6.102   1.230  1.1869  0.0647  0.1143
27270SOL    HW186657   4.964   6.084   1.323  0.6822 -1.2357 -0.1797
27270SOL    HW286658   4.989   6.196   1.225 -0.1850  0.3455  1.3402
27271SOL     OW86659   7.051   7.577   3.167  0.0770  0.0638  0.0132
27271SOL    HW186660   7.009   7.492   3.152 -0.8539  0.6871 -1.0705
27271SOL    HW286661   6.988   7.641   3.135  1.1683  1.1269 -0.0895
27272SOL     OW86662   5.871   2.611   2.601 -0.0311  0.2516 -0.0913
27272SOL    HW186663   5.799   2.661   2.563  0.0893 -1.0282 -2.1476
27272SOL    HW286664   5.856   2.521   2.572 -0.7986 -1.2775  4.2551
27273SOL     OW86665   2.219   6.600   5.138  0.7352  0.1385 -0.4248
27273SOL    HW186666   2.273   6.677   5.156 -0.1644  0.6427  0.1543
27273SOL    HW286667   2.136   6.635   5.108  0.4519 -0.6198 -0.5459
27274SOL     OW86668   1.658   2.595   1.364 -0.1670  0.3213  0.0631
27274SOL    HW186669   1.622   2.649   1.295 -0.6543  0.6154  0.5372
27274SOL    HW286670   1.645   2.646   1.444  0.5987  0.0908  0.3410
27275SOL     OW86671   8.792   0.488   9.338 -0.0935 -0.2667  0.0806
27275SOL    HW186672   8.797   0.542   9.260  2.3813  0.5745  0.7061
27275SOL    HW286673   8.785   0.399   9.306  1.1613  0.0464 -1.1503
27276SOL     OW86674   3.342   3.875   0.798 -0.1824  0.0885  0.3268
27276SOL    HW186675   3.372   3.947   0.854 -0.5093 -0.4972  1.2561
27276SOL    HW286676   3.331   3.916   0.712  1.8083  0.6773  0.2821
27277SOL     OW86677   3.932   5.895   0.383 -0.0188 -0.1623  0.5487
27277SOL    HW186678   3.956   5.981   0.351  1.3203 -0.6763  0.1003
27277SOL    HW286679   3.890   5.911   0.467  0.5573  0.8923  0.6485
27278SOL     OW86680   8.350   7.290   9.403 -0.1814 -0.8076 -0.4978
27278SOL    HW186681   8.363   7.381   9.430 -0.4572 -1.1146  0.7369
27278SOL    HW286682   8.414   7.276   9.333 -0.1245  0.3226 -0.6842
27279SOL     OW86683   7.197   9.523   6.200 -0.0391 -0.2614  0.1109
27279SOL    HW186684   7.177   9.463   6.273  0.9279 -1.0085 -0.2259
27279SOL    HW286685   7.228   9.466   6.130  0.5312  0.6057 -0.3561
27280SOL     OW86686   7.306   7.910   4.221  0.1011  0.1263 -0.1427
27280SOL    HW186687   7.288   7.998   4.187 -0.7175  0.4638  1.1052
27280SOL    HW286688   7.230   7.858   4.195  1.3299 -0.7000 -2.3507
27281SOL     OW86689   5.563   8.864   8.168  0.6873  0.5711 -0.4308
27281SOL    HW186690   5.646   8.819   8.155  0.0760 -0.4889 -0.7372
27281SOL    HW286691   5.522   8.866   8.082 -0.3435 -0.4190  0.0141
27282SOL     OW86692   8.719   5.150   6.975  0.4766  0.5911 -0.1813
27282SOL    HW186693   8.665   5.229   6.967 -2.3699 -1.2211 -0.4622
27282SOL    HW286694   8.716   5.111   6.887  2.6622  0.5755 -0.3105
27283SOL     OW86695   2.646   5.074   5.162 -0.2119  0.2523  0.3455
27283SOL    HW186696   2.697   5.053   5.085 -1.1810  1.1593 -0.5804
27283SOL    HW286697   2.563   5.028   5.150 -0.6667  1.0265  0.4549
27284SOL     OW86698   6.040   6.868   9.748 -0.3295  0.4213 -0.0163
27284SOL    HW186699   6.135   6.878   9.749 -0.4684  1.8855 -0.0002
27284SOL    HW286700   6.007   6.944   9.795 -1.4756 -0.7505  1.1596
27285SOL     OW86701   1.373   0.694   2.239 -0.0211 -0.2743  0.3120
27285SOL    HW186702   1.288   0.670   2.275  0.1092  0.6394  1.2767
27285SOL    HW286703   1.437   0.660   2.301  0.2057  1.3130  1.0002
27286SOL     OW86704   5.779   8.789   7.739 -0.5049 -0.1842 -0.4847
27286SOL    HW186705   5.849   8.762   7.680 -1.4506  0.6481 -2.0353
27286SOL    HW286706   5.815   8.865   7.786 -0.6458  0.7946 -1.9098
27287SOL     OW86707   7.315   5.814   7.559  0.4884 -0.3766  0.7905
27287SOL    HW186708   7.399   5.843   7.523 -0.0019  1.7007  1.2299
27287SOL    HW286709   7.313   5.851   7.647 -1.6841  1.2651  0.1299
27288SOL     OW86710   3.598   0.291   1.671 -0.8292 -1.0271 -0.0286
27288SOL    HW186711   3.606   0.324   1.760 -0.0991 -1.1160 -0.0479
27288SOL    HW286712   3.689   0.280   1.642 -1.0563 -1.6606 -0.5336
27289SOL     OW86713   4.048   4.673   4.919 -0.3768  0.4805 -0.2504
27289SOL    HW186714   3.968   4.676   4.866 -1.1775 -0.8536  0.8016
27289SOL    HW286715   4.030   4.606   4.985 -0.0189  3.0440  2.6789
27290SOL     OW86716   2.862   2.212   9.627 -0.3997  0.4277  0.1659
27290SOL    HW186717   2.915   2.140   9.592 -0.9865 -0.4614  1.0207
27290SOL    HW286718   2.826   2.256   9.550 -0.3092 -0.4187 -0.3740
27291SOL     OW86719   3.784   4.688   7.757 -0.1969  0.6281 -0.4627
27291SOL    HW186720   3.701   4.645   7.733 -0.6581  0.0915  1.8843
27291SOL    HW286721   3.851   4.622   7.739 -0.7343 -0.5268  1.4966
27292SOL     OW86722   9.001   6.585   5.785  0.5473  0.0799 -0.0296
27292SOL    HW186723   9.020   6.492   5.768 -1.0241 -0.3731  0.4763
27292SOL    HW286724   9.065   6.611   5.851  2.0539 -0.1593 -1.3289
27293SOL     OW86725   8.578   1.164   4.892  0.5608 -0.0439  0.6908
27293SOL    HW186726   8.492   1.183   4.853  1.1318  1.4068  0.0576
27293SOL    HW286727   8.567   1.188   4.984 -0.2198 -1.6091  1.0385
27294SOL     OW86728   5.432   6.139   8.970  0.6945 -0.3549 -0.0747
27294SOL    HW186729   5.489   6.145   9.047 -2.6490  2.2179  2.5509
27294SOL    HW286730   5.359   6.085   8.999 -0.0494 -0.4087 -1.9402
27295SOL     OW86731   9.482   4.391   9.312 -0.2763 -0.7318 -0.2730
27295SOL    HW186732   9.489   4.396   9.408  3.8982 -0.0208 -0.4558
27295SOL    HW286733   9.489   4.482   9.283  5.4846 -1.1578 -1.2761
27296SOL     OW86734   8.036   4.110   3.389  0.2921  0.3569  0.3966
27296SOL    HW186735   7.948   4.135   3.359  0.5889  0.9769  0.0094
27296SOL    HW286736   8.028   4.102   3.484 -0.2945 -0.0689  0.3164
27297SOL     OW86737   1.551   2.870   3.713 -0.5384 -0.5172 -0.3359
27297SOL    HW186738   1.635   2.874   3.668 -0.2955 -1.6644 -0.0052
27297SOL    HW286739   1.489   2.907   3.650  0.0633 -0.5240 -0.9440
27298SOL     OW86740   0.113   4.728   8.525 -0.1658 -0.1800  0.0890
27298SOL    HW186741   0.196   4.706   8.482  0.7503  1.2586  1.0607
27298SOL    HW286742   0.134   4.725   8.619 -0.3326  3.2164  0.3314
27299SOL     OW86743   2.740   1.305   7.387 -0.1016 -1.0699  0.4306
27299SOL    HW186744   2.666   1.305   7.328  0.3240 -2.9026 -0.1586
27299SOL    HW286745   2.802   1.242   7.349  0.8555 -1.1296  1.9893
27300SOL     OW86746   1.705   6.736   0.597  0.2394  0.2745 -0.2084
27300SOL    HW186747   1.676   6.823   0.567 -1.0135  0.4691  1.4191
27300SOL    HW286748   1.720   6.687   0.516  1.9403  2.2588 -1.2148
27301SOL     OW86749   9.208   2.900   3.790  0.2135 -0.1530 -0.7135
27301SOL    HW186750   9.183   2.976   3.842  1.6144  0.6002 -1.1095
27301SOL    HW286751   9.172   2.917   3.703 -0.2041 -0.3594 -0.5852
27302SOL     OW86752   5.671   2.938   6.401  0.2127 -0.1941  0.1099
27302SOL    HW186753   5.693   3.006   6.464 -1.1719 -0.3079  0.7410
27302SOL    HW286754   5.615   2.981   6.337 -2.5400 -1.1487  1.7149
27303SOL     OW86755   0.202   6.799   6.139 -0.6625  0.5637  0.4694
27303SOL    HW186756   0.285   6.846   6.149 -0.3573 -0.1331  1.3672
27303SOL    HW286757   0.179   6.810   6.047  0.7104  0.3099  0.0760
27304SOL     OW86758   0.192   9.194   3.319 -0.1623 -0.4752 -0.2033
27304SOL    HW186759   0.213   9.164   3.407 -1.0475  0.5986  0.4049
27304SOL    HW286760   0.146   9.121   3.278 -1.7805 -0.2032  1.0401
27305SOL     OW86761   6.130   6.695   0.245  0.1539 -0.1209 -0.0204
27305SOL    HW186762   6.166   6.783   0.233 -1.7288  0.3996 -2.4826
27305SOL    HW286763   6.207   6.640   0.259  1.6609  1.4464 -1.5838
27306SOL     OW86764   8.413   8.034   8.197  0.3036  0.0696 -0.1487
27306SOL    HW186765   8.490   7.998   8.153  0.1257 -0.8536  0.2684
27306SOL    HW286766   8.444   8.115   8.237  0.6281  0.5952 -1.4105
27307SOL     OW86767   0.289   6.769   4.269  0.4591  0.0233 -0.0404
27307SOL    HW186768   0.203   6.799   4.238  0.5625  0.3019 -0.0697
27307SOL    HW286769   0.349   6.839   4.242  0.9659 -0.9298 -1.5132
27308SOL     OW86770   8.417   6.484   8.808 -0.4986 -0.2202 -0.3350
27308SOL    HW186771   8.405   6.394   8.778  1.1775  0.0432 -1.9949
27308SOL    HW286772   8.368   6.538   8.746 -1.3315  0.0570  0.5316
27309SOL     OW86773   7.551   6.886   1.249  0.5726 -0.1531 -0.0038
27309SOL    HW186774   7.560   6.791   1.237  0.8817 -0.5338  2.7429
27309SOL    HW286775   7.487   6.896   1.319  0.6157  1.6801 -0.1774
27310SOL     OW86776   2.071   4.188   2.559  0.2791 -0.7661 -0.1348
27310SOL    HW186777   2.051   4.236   2.479  1.4851  1.9638  1.0840
27310SOL    HW286778   2.138   4.124   2.533  0.5816  0.0110 -1.3246
27311SOL     OW86779   8.870   3.385   5.902  0.4147  0.7205  0.1422
27311SOL    HW186780   8.779   3.360   5.889  0.3255  1.3481 -0.5046
27311SOL    HW286781   8.909   3.312   5.950 -0.0143 -0.3012 -1.0143
27312SOL     OW86782   1.268   5.518   4.262  0.0406 -0.0419  0.0291
27312SOL    HW186783   1.265   5.569   4.342  1.3148 -0.0249  0.0838
27312SOL    HW286784   1.209   5.563   4.202  1.0770  1.4815  0.0992
27313SOL     OW86785   0.672   6.373   1.145  0.7233 -0.5739 -0.1736
27313SOL    HW186786   0.660   6.424   1.065 -1.0018 -0.6626 -0.0126
27313SOL    HW286787   0.641   6.286   1.122 -1.6024 -0.1385  1.0772
27314SOL     OW86788   0.955   2.039   4.609 -0.3870  0.0227 -0.3717
27314SOL    HW186789   1.039   2.003   4.581  0.5620  1.0094  1.0691
27314SOL    HW286790   0.963   2.049   4.704 -2.2206 -0.0545 -0.1655
27315SOL     OW86791   0.638   2.763   8.068  0.9357  0.3333  0.1941
27315SOL    HW186792   0.660   2.692   8.008  0.7322  1.2100 -0.9569
27315SOL    HW286793   0.707   2.761   8.134  2.1137  0.3737 -0.9937
27316SOL     OW86794   8.340   4.267   7.006 -0.0992  0.6412  0.4709
27316SOL    HW186795   8.329   4.183   6.962 -2.0215  0.2402  1.5848
27316SOL    HW286796   8.426   4.298   6.979  0.2547 -1.2369 -0.7034
27317SOL     OW86797   2.413   3.161   9.176 -0.0417 -0.2731 -0.6318
27317SOL    HW186798   2.383   3.166   9.267 -0.5084  2.0516 -0.8734
27317SOL    HW286799   2.503   3.130   9.183 -0.7801 -2.4049  0.4322
27318SOL     OW86800   2.966   7.172   0.779 -0.6804 -0.0878  0.0206
27318SOL    HW186801   2.943   7.101   0.719  0.7828 -1.1188  0.6215
27318SOL    HW286802   2.882   7.203   0.813 -1.3725 -1.2803 -0.5318
27319SOL     OW86803   4.471   8.857   0.537  0.7663 -0.8227  0.5258
27319SOL    HW186804   4.546   8.898   0.495  0.1067 -0.8677 -0.7658
27319SOL    HW286805   4.509   8.793   0.598  1.7750 -0.9943 -0.2538
27320SOL     OW86806   4.169   0.935   5.082  0.3126  0.2958 -0.4595
27320SOL    HW186807   4.120   0.854   5.067  1.6029 -0.3560 -1.3602
27320SOL    HW286808   4.243   0.908   5.137  0.8240  0.8287 -0.8706
27321SOL     OW86809   7.250   0.326   1.618  0.1564  0.1551  0.4657
27321SOL    HW186810   7.329   0.380   1.621 -1.0355  2.0068  0.4360
27321SOL    HW286811   7.213   0.331   1.706  0.1020 -0.7580  0.5032
27322SOL     OW86812   4.429   5.658   3.275 -0.1169 -0.3029 -0.2982
27322SOL    HW186813   4.386   5.589   3.326 -0.5132 -0.7309 -1.1749
27322SOL    HW286814   4.358   5.698   3.225  0.3854 -0.5153 -1.2039
27323SOL     OW86815   6.799   4.278   0.605 -0.8565  0.0647  0.2429
27323SOL    HW186816   6.827   4.349   0.662  0.0889 -0.6774  0.7224
27323SOL    HW286817   6.791   4.318   0.519 -1.0636  0.9119  0.6521
27324SOL     OW86818   9.713   5.843   6.340 -0.4117  0.1251 -0.3060
27324SOL    HW186819   9.732   5.937   6.332  0.5309 -0.0353 -0.0255
27324SOL    HW286820   9.677   5.834   6.429 -1.4571  0.3659 -0.6916
27325SOL     OW86821   1.710   9.722   9.573 -0.5229 -0.6235  0.1052
27325SOL    HW186822   1.761   9.648   9.606  1.1220 -0.2224 -1.3856
27325SOL    HW286823   1.703   9.706   9.479 -0.3329  0.9898 -0.2069
27326SOL     OW86824   3.042   7.618   0.829  0.0962  0.5356  0.5232
27326SOL    HW186825   3.086   7.533   0.838 -0.4739  0.2403  0.5893
27326SOL    HW286826   3.106   7.673   0.785  0.0277 -0.3090 -0.6984
27327SOL     OW86827   4.334   0.331   3.138  0.3361  0.5288  0.3437
27327SOL    HW186828   4.351   0.371   3.053 -0.8313 -2.6360 -1.5605
27327SOL    HW286829   4.268   0.387   3.179  0.4168  1.7502 -1.1239
27328SOL     OW86830   0.470   6.937   2.404  0.3157 -0.0570  0.1930
27328SOL    HW186831   0.485   6.859   2.457 -1.1609  0.2166  1.0557
27328SOL    HW286832   0.398   6.913   2.346 -0.0660  0.6171  0.3794
27329SOL     OW86833   5.758   0.333   2.398 -0.0960 -0.3082  0.1179
27329SOL    HW186834   5.686   0.287   2.442  0.8726 -0.9319  1.1202
27329SOL    HW286835   5.807   0.264   2.354 -0.5493  0.2165 -1.2515
27330SOL     OW86836   6.731   9.412   8.424 -0.6092 -0.4026  0.7874
27330SOL    HW186837   6.818   9.396   8.461 -0.7233 -1.2366  0.7119
27330SOL    HW286838   6.745   9.408   8.329 -0.4489  1.0184  0.7378
27331SOL     OW86839   1.720   3.041   8.832  0.1807  0.4598 -0.3717
27331SOL    HW186840   1.705   2.988   8.910  0.2280  0.7819 -0.1410
27331SOL    HW286841   1.633   3.071   8.807  0.4660  3.9120  2.0875
27332SOL     OW86842   6.219   3.705   1.297  0.3822  0.0852  0.1636
27332SOL    HW186843   6.203   3.673   1.208  0.7937 -0.2736  0.2147
27332SOL    HW286844   6.176   3.791   1.300  0.4632  0.1480 -0.4139
27333SOL     OW86845   2.922   2.229   2.214  0.1009  0.0231  0.2985
27333SOL    HW186846   2.872   2.179   2.278  0.8089 -0.9447  0.1069
27333SOL    HW286847   2.857   2.256   2.149 -0.6125  0.9339  1.3359
27334SOL     OW86848   5.300   8.658   8.110  0.1599 -0.1775 -0.1498
27334SOL    HW186849   5.363   8.591   8.081 -0.1701 -0.4069 -0.3531
27334SOL    HW286850   5.344   8.703   8.181 -0.0945 -1.4688  0.8717
27335SOL     OW86851   8.786   3.649   0.799  0.2671 -0.4621 -0.0739
27335SOL    HW186852   8.862   3.676   0.851 -1.0277  3.4041  0.1463
27335SOL    HW286853   8.823   3.606   0.722  2.7304  1.1659  0.0864
27336SOL     OW86854   2.866   7.427   4.717 -0.5396 -0.3725  0.4938
27336SOL    HW186855   2.940   7.368   4.733 -0.9469 -0.6299  1.5486
27336SOL    HW286856   2.816   7.384   4.647  1.0398  0.5240 -1.2531
27337SOL     OW86857   4.491   1.836   0.758 -0.8133  0.0215  0.1315
27337SOL    HW186858   4.471   1.765   0.819  0.5689  0.7395  1.4720
27337SOL    HW286859   4.476   1.916   0.808 -2.3415  0.7186 -1.3595
27338SOL     OW86860   1.607   2.078   9.726  0.0056  0.6792  0.6417
27338SOL    HW186861   1.590   2.128   9.806  0.4509  1.4745  0.2538
27338SOL    HW286862   1.556   1.998   9.736 -0.8654  1.2832  1.2114
27339SOL     OW86863   7.326   9.405   7.511 -0.1148 -0.1094 -0.6085
27339SOL    HW186864   7.410   9.445   7.535 -0.3966 -1.0035  2.1387
27339SOL    HW286865   7.350   9.327   7.460  0.6462  0.3685 -0.9974
27340SOL     OW86866   0.023   7.103   8.215 -0.4270  0.5353  0.3348
27340SOL    HW186867   0.085   7.132   8.147  0.7497 -1.1117  0.6257
27340SOL    HW286868  -0.056   7.079   8.166 -0.4839  1.7087 -0.1663
27341SOL     OW86869   5.330   8.075   7.993 -0.4321  0.2906  0.1261
27341SOL    HW186870   5.289   8.116   8.069  0.2382  0.2567  0.5121
27341SOL    HW286871   5.406   8.029   8.028 -0.0308  0.3904 -0.5811
27342SOL     OW86872   5.412   3.870   4.370  0.2633 -0.6837  0.6174
27342SOL    HW186873   5.377   3.907   4.450 -0.7002  0.2561 -0.2038
27342SOL    HW286874   5.395   3.776   4.377  0.2706 -0.6195  1.5322
27343SOL     OW86875   3.789   1.831   2.491 -0.5423 -0.9058 -0.1457
27343SOL    HW186876   3.741   1.767   2.439 -0.4968 -0.3063 -0.9346
27343SOL    HW286877   3.759   1.916   2.458  1.5593 -0.5048 -1.1185
27344SOL     OW86878   4.387   2.010   2.679 -0.0830  0.1090 -0.0432
27344SOL    HW186879   4.474   2.026   2.643  0.2730 -0.3743  0.5715
27344SOL    HW286880   4.329   2.008   2.603  0.5465 -0.2247 -0.5221
27345SOL     OW86881   6.017   0.345   1.327  0.0247  0.0916 -0.4516
27345SOL    HW186882   5.999   0.254   1.352  0.4018  0.7669  2.7488
27345SOL    HW286883   6.111   0.355   1.343 -0.4356  1.6409  1.8637
27346SOL     OW86884   4.745   0.198   7.158  0.3408  0.2357 -0.2209
27346SOL    HW186885   4.775   0.134   7.223  0.3753  1.0932  0.6382
27346SOL    HW286886   4.825   0.230   7.117  0.4427  0.6818  0.2976
27347SOL     OW86887   8.923   1.003   2.387  0.3768 -0.1850 -0.2662
27347SOL    HW186888   8.935   0.916   2.425 -0.7341 -0.1848  0.1337
27347SOL    HW286889   8.909   0.986   2.293 -1.4625 -0.6053  0.0509
27348SOL     OW86890   8.841   5.359   2.266 -0.5139  0.9607 -0.9343
27348SOL    HW186891   8.787   5.297   2.314 -0.1963  0.8339 -0.7415
27348SOL    HW286892   8.778   5.416   2.222 -0.8698 -0.6081 -2.6106
27349SOL     OW86893   5.206   4.781   2.016  0.0195  0.0669 -0.3041
27349SOL    HW186894   5.181   4.842   1.947  2.4482  1.7307  0.1471
27349SOL    HW286895   5.261   4.717   1.973 -1.5156 -1.1389 -0.5431
27350SOL     OW86896   0.088   5.551   9.549 -0.0914  0.6201 -0.1336
27350SOL    HW186897   0.129   5.635   9.567 -1.2207  1.1212  0.1167
27350SOL    HW286898   0.030   5.568   9.475  1.3698 -0.4709 -1.6176
27351SOL     OW86899   9.652   0.885   7.369 -0.0619  0.3363 -0.2588
27351SOL    HW186900   9.619   0.927   7.290 -0.1283  2.4081  0.8042
27351SOL    HW286901   9.708   0.951   7.410 -1.4324  0.0366  2.3086
27352SOL     OW86902   1.988   4.545   7.480  0.0352  0.8204 -0.7265
27352SOL    HW186903   1.999   4.640   7.473  1.3438  0.8848  1.2471
27352SOL    HW286904   1.945   4.532   7.565  0.1082 -0.3610 -0.8546
27353SOL     OW86905   0.280   5.758   7.039 -0.3031  0.1283 -0.2918
27353SOL    HW186906   0.216   5.687   7.031 -0.5432  0.1454  1.1297
27353SOL    HW286907   0.230   5.830   7.076  0.1184  0.7981 -0.9949
27354SOL     OW86908   4.679   7.866   8.036  0.6743  0.1790 -0.1260
27354SOL    HW186909   4.644   7.938   7.984 -0.3810  0.4205  0.8824
27354SOL    HW286910   4.694   7.903   8.122  1.9654 -0.3374 -0.0954
27355SOL     OW86911   8.374   2.193   0.578 -0.2813 -0.2130 -0.5300
27355SOL    HW186912   8.404   2.233   0.496  0.1339  0.3448 -0.1192
27355SOL    HW286913   8.441   2.219   0.642 -1.4130  0.6979  0.3196
27356SOL     OW86914   6.454   4.424   6.165  0.7183  0.2054 -0.2410
27356SOL    HW186915   6.451   4.351   6.227 -1.3409  1.4635  1.2647
27356SOL    HW286916   6.435   4.384   6.080 -1.1470 -0.9398  0.6561
27357SOL     OW86917   4.072   0.386   4.604  0.3855  0.3969  0.0375
27357SOL    HW186918   4.075   0.354   4.694  3.0118  1.7687  0.5520
27357SOL    HW286919   4.094   0.309   4.550 -0.3770 -0.2393  0.6194
27358SOL     OW86920   8.720   5.463   5.615  0.2059  0.2013 -0.9474
27358SOL    HW186921   8.627   5.463   5.593  0.3507  1.8616 -1.6719
27358SOL    HW286922   8.752   5.380   5.578 -1.1734 -0.9661  0.3544
27359SOL     OW86923   3.866   3.093   0.197 -0.4222 -0.1246 -0.5085
27359SOL    HW186924   3.877   3.146   0.276 -2.1161 -0.2293 -0.1631
27359SOL    HW286925   3.805   3.024   0.222 -0.7750 -0.3294 -1.8284
27360SOL     OW86926   2.403   3.239   3.907 -0.5034  0.0764  0.4032
27360SOL    HW186927   2.493   3.221   3.933  0.1549  1.3308 -0.9001
27360SOL    HW286928   2.365   3.152   3.892  0.5060 -0.4574  0.8309
27361SOL     OW86929   2.270   0.837   3.411  0.3020 -0.0271 -0.2239
27361SOL    HW186930   2.283   0.931   3.397  0.6394 -0.1742 -0.9036
27361SOL    HW286931   2.299   0.822   3.501 -0.4176  0.6403  0.1322
27362SOL     OW86932   6.234   2.686   9.351  0.0704 -0.1618  0.0378
27362SOL    HW186933   6.221   2.615   9.414  0.0124 -0.5545 -0.4178
27362SOL    HW286934   6.327   2.706   9.356  0.1135 -0.3671  0.0594
27363SOL     OW86935   0.144   5.996   7.153 -0.4233 -0.7365  0.6191
27363SOL    HW186936   0.129   5.975   7.245 -0.7594 -0.1535  0.7027
27363SOL    HW286937   0.092   6.074   7.138  0.2878 -0.3400  0.1501
27364SOL     OW86938   5.749   3.197   4.760 -0.1009  0.0491 -0.1795
27364SOL    HW186939   5.821   3.175   4.701  1.1289  0.5772  1.0503
27364SOL    HW286940   5.688   3.247   4.707  0.3387 -0.5881 -1.3111
27365SOL     OW86941   0.166   6.870   8.300 -0.0345  0.1869  0.3751
27365SOL    HW186942   0.186   6.962   8.285 -2.5393  0.7583 -0.0499
27365SOL    HW286943   0.126   6.841   8.218  3.2327 -2.1874 -0.5814
27366SOL     OW86944   6.472   2.319   9.536  0.1143 -0.0940  0.3813
27366SOL    HW186945   6.428   2.234   9.540  0.6885 -0.4052  0.1800
27366SOL    HW286946   6.549   2.304   9.481 -0.8248  1.0395 -1.3198
27367SOL     OW86947   0.862   8.257   5.064 -0.4185 -0.3845  0.7466
27367SOL    HW186948   0.901   8.342   5.086 -0.4848  0.0546 -0.7350
27367SOL    HW286949   0.903   8.196   5.125  0.2883  0.5646  1.2569
27368SOL     OW86950   2.432   3.146   7.546  0.2384 -0.3697  0.8894
27368SOL    HW186951   2.365   3.084   7.516 -0.4060  1.3155 -1.5226
27368SOL    HW286952   2.396   3.184   7.626 -1.9331  0.7070 -0.4984
27369SOL     OW86953   2.462   9.069   0.119 -0.5889  0.2579 -0.0051
27369SOL    HW186954   2.506   9.143   0.161 -0.9676 -0.1792  1.2341
27369SOL    HW286955   2.507   9.058   0.036  1.2911  0.1832  0.9590
27370SOL     OW86956   1.954   4.885   1.772  0.3557 -0.0362 -0.3390
27370SOL    HW186957   1.971   4.896   1.866  2.5179 -0.3486 -0.6371
27370SOL    HW286958   1.859   4.879   1.765 -0.0080  2.1152  1.5848
27371SOL     OW86959   4.870   2.891   9.251 -0.1561  0.0563 -0.1907
27371SOL    HW186960   4.929   2.932   9.313 -2.0372  0.1153  1.6727
27371SOL    HW286961   4.814   2.963   9.220 -0.6337 -0.3414 -0.2653
27372SOL     OW86962   6.915   1.554   4.128  0.1957 -0.6666 -0.4622
27372SOL    HW186963   6.938   1.464   4.153  1.5988 -0.6050 -1.4136
27372SOL    HW286964   6.988   1.583   4.073 -0.7793  0.6655 -1.1137
27373SOL     OW86965   1.017   5.473   0.018 -0.2792 -0.0171  0.4125
27373SOL    HW186966   0.949   5.536   0.042  0.1191  0.3649  0.5739
27373SOL    HW286967   1.062   5.515  -0.056  1.3181  0.8859  1.8205
27374SOL     OW86968   4.256   8.953   6.033  0.2081 -0.0306  0.1220
27374SOL    HW186969   4.182   8.956   5.972  1.4330  1.4996 -1.4341
27374SOL    HW286970   4.323   8.901   5.987  1.1035  1.0237  0.1821
27375SOL     OW86971   3.053   1.946   5.016 -0.0521 -0.1700  0.9088
27375SOL    HW186972   2.969   1.915   5.048 -1.4850  1.2682 -1.2117
27375SOL    HW286973   3.049   2.041   5.026  0.6339  0.0588 -0.7272
27376SOL     OW86974   4.227   9.429   4.876  0.5205  0.0463  0.2329
27376SOL    HW186975   4.232   9.520   4.905 -0.6942  0.4738 -0.8022
27376SOL    HW286976   4.160   9.430   4.808  1.4548 -1.3845 -0.7385
27377SOL     OW86977   0.513   6.821   3.193  0.3181  0.1546 -0.1371
27377SOL    HW186978   0.551   6.734   3.207  0.8151  0.5407  1.1263
27377SOL    HW286979   0.584   6.873   3.156  0.3077  0.2480 -0.0292
27378SOL     OW86980   1.054   5.323   0.914 -0.0209 -0.3122 -0.3175
27378SOL    HW186981   1.128   5.338   0.972  0.1612  0.5482 -0.7477
27378SOL    HW286982   1.061   5.392   0.848  0.5031 -1.9752 -2.0970
27379SOL     OW86983   3.654   4.494   2.715  0.5240 -0.1601  0.1846
27379SOL    HW186984   3.746   4.483   2.740  0.3463  1.2763  1.6677
27379SOL    HW286985   3.632   4.583   2.743 -1.5664 -0.7763  0.6982
27380SOL     OW86986   5.674   2.147   8.505 -0.1278 -0.2405  0.3654
27380SOL    HW186987   5.770   2.146   8.511 -0.1148  1.1099  0.5698
27380SOL    HW286988   5.645   2.084   8.571  0.5587  1.3306  2.2492
27381SOL     OW86989   2.671   2.918   3.541 -0.1812  0.2214 -0.4081
27381SOL    HW186990   2.722   2.870   3.476  1.1471  1.5970 -0.4414
27381SOL    HW286991   2.671   2.862   3.618 -0.7244 -0.8807 -1.1820
27382SOL     OW86992   8.002   0.177   3.697  0.1835 -0.3097 -0.2731
27382SOL    HW186993   8.074   0.235   3.720 -0.0657 -0.1217  0.0463
27382SOL    HW286994   8.042   0.108   3.644  0.7510 -0.7003  0.6484
27383SOL     OW86995   4.681   0.279   2.099  0.5361 -0.0402 -0.6229
27383SOL    HW186996   4.650   0.346   2.160  0.3328  0.1947 -0.9787
27383SOL    HW286997   4.609   0.217   2.093 -0.5950  1.3396 -2.6939
27384SOL     OW86998   2.762   8.685   0.422 -0.1688  0.2243  0.3008
27384SOL    HW186999   2.751   8.754   0.487 -0.6678 -1.1376  1.7369
27384SOL    HW287000   2.855   8.661   0.428 -0.1107  0.4150  0.1706
27385SOL     OW87001   6.492   9.216   3.903 -0.0534  0.4963 -0.3902
27385SOL    HW187002   6.404   9.201   3.870 -1.3002  1.3951  2.3026
27385SOL    HW287003   6.527   9.285   3.846 -1.0544  0.1704 -1.4520
27386SOL     OW87004   9.166   7.506   5.328  0.3513  0.5406 -0.0726
27386SOL    HW187005   9.203   7.506   5.240  1.4666  0.2051  0.3860
27386SOL    HW287006   9.094   7.570   5.323  0.3390  0.4573 -1.2397
27387SOL     OW87007   1.709   7.148   5.970 -0.0142  0.3172 -0.1181
27387SOL    HW187008   1.619   7.172   5.948  0.3619  1.0582 -0.9281
27387SOL    HW287009   1.705   7.116   6.060 -0.8276  2.0022  0.4904
27388SOL     OW87010   3.316   0.311   1.588 -0.0022 -0.3122 -0.2744
27388SOL    HW187011   3.308   0.238   1.649 -0.1257 -0.4905 -0.5056
27388SOL    HW287012   3.410   0.323   1.576  0.0106 -0.6666 -0.5235
27389SOL     OW87013   9.667   5.985   6.761 -0.1903  0.1076 -0.1182
27389SOL    HW187014   9.613   6.027   6.828 -0.3453 -0.3717  0.0590
27389SOL    HW287015   9.750   5.966   6.804  0.9987  2.8525 -0.9784
27390SOL     OW87016   3.176   3.856   5.870  0.1846 -0.2579 -0.0799
27390SOL    HW187017   3.183   3.809   5.953 -0.7959  1.6732  1.1633
27390SOL    HW287018   3.088   3.837   5.839 -0.7430  1.7573  1.1397
27391SOL     OW87019   3.131   5.112   0.959  0.4304 -0.1214  0.3868
27391SOL    HW187020   3.199   5.131   0.894  0.6688 -1.6764  0.1358
27391SOL    HW287021   3.051   5.148   0.921  0.4600 -1.4934 -1.0802
27392SOL     OW87022   4.117   3.681   2.632 -0.2727  0.8015  0.1588
27392SOL    HW187023   4.207   3.651   2.622  0.1727  2.2601 -0.4012
27392SOL    HW287024   4.073   3.653   2.552  0.3498  2.3274 -0.7373
27393SOL     OW87025   5.540   1.206   1.962  0.1419  0.6718 -0.1840
27393SOL    HW187026   5.552   1.113   1.982 -1.4497  0.3025 -0.7229
27393SOL    HW287027   5.609   1.251   2.010 -0.5029 -0.5932  2.0729
27394SOL     OW87028   7.341   5.647   3.132  0.1354 -0.9266  0.3569
27394SOL    HW187029   7.326   5.573   3.191 -1.6014 -1.3359 -0.5202
27394SOL    HW287030   7.268   5.707   3.150 -0.4196 -1.0542 -1.3227
27395SOL     OW87031   4.355   3.972   1.183  0.0919 -0.2809 -0.3513
27395SOL    HW187032   4.359   4.022   1.101 -0.7254  0.2922 -0.0548
27395SOL    HW287033   4.323   3.886   1.157  0.2494 -0.2411 -0.6854
27396SOL     OW87034   6.018   3.985   8.781 -0.5363 -0.8030 -0.1935
27396SOL    HW187035   6.062   3.900   8.773 -0.1664 -0.7096  0.6975
27396SOL    HW287036   6.064   4.041   8.719 -1.5847 -1.5392 -1.7173
27397SOL     OW87037   2.492   3.283   5.699  0.2871 -0.6497  0.1273
27397SOL    HW187038   2.444   3.241   5.770 -1.1728  1.8795  0.7885
27397SOL    HW287039   2.424   3.314   5.638  0.9486  2.4826  0.7748
27398SOL     OW87040   2.108   2.741   2.089 -0.4439 -0.2152 -0.3090
27398SOL    HW187041   2.019   2.750   2.122 -0.4995 -0.7664 -0.2900
27398SOL    HW287042   2.098   2.725   1.995 -0.3570 -0.0437 -0.3469
27399SOL     OW87043   8.369   3.712   9.148 -0.4711 -0.4127  0.1172
27399SOL    HW187044   8.429   3.646   9.182  0.5251  0.4169  0.0319
27399SOL    HW287045   8.425   3.771   9.097 -1.2786  0.6604  0.4403
27400SOL     OW87046   0.491   4.780   1.137 -0.2680 -0.5820  0.5567
27400SOL    HW187047   0.422   4.835   1.100 -1.1368 -1.5217  0.7270
27400SOL    HW287048   0.555   4.772   1.066 -0.4549  0.0880  0.3016
27401SOL     OW87049   7.340   8.048   7.556 -0.1159 -0.6059  0.0267
27401SOL    HW187050   7.246   8.039   7.572 -0.0991 -0.3283  0.2820
27401SOL    HW287051   7.360   7.978   7.494 -0.7546  0.2078 -1.1205
27402SOL     OW87052   5.503   0.044   1.498 -0.1031  0.4995  0.4980
27402SOL    HW187053   5.532   0.064   1.586 -1.7185 -0.5542  1.3165
27402SOL    HW287054   5.450  -0.035   1.507 -0.9288  0.7922 -1.2905
27403SOL     OW87055   1.609   1.503   7.311 -0.5357 -0.0558  0.4000
27403SOL    HW187056   1.542   1.561   7.276 -1.8149 -0.5658  1.8683
27403SOL    HW287057   1.637   1.545   7.393 -1.3380 -1.3412  1.3811
27404SOL     OW87058   5.001   8.449   7.023 -0.0572  0.2233 -0.0631
27404SOL    HW187059   4.961   8.506   6.957  0.1822 -0.5921 -0.9468
27404SOL    HW287060   5.079   8.496   7.052  0.2558  0.2683 -0.9424
27405SOL     OW87061   2.362   4.542   0.050 -0.2518  0.3619  0.3487
27405SOL    HW187062   2.280   4.550   0.100  0.3260  1.1363  1.2168
27405SOL    HW287063   2.336   4.504  -0.034 -1.4872  0.5036  0.6502
27406SOL     OW87064   0.380   1.577   1.506 -0.2657 -0.2933  0.4136
27406SOL    HW187065   0.362   1.649   1.445  0.1874  1.3244  2.0868
27406SOL    HW287066   0.459   1.605   1.552 -0.4291 -1.5894  1.5285
27407SOL     OW87067   4.446   4.683   2.959 -0.0278  0.3195 -0.2091
27407SOL    HW187068   4.430   4.749   2.892 -1.7489 -0.4801 -0.6505
27407SOL    HW287069   4.393   4.608   2.932 -0.4468 -0.1834  1.8109
27408SOL     OW87070   6.807   4.673   4.591  0.2721  0.0011  0.2243
27408SOL    HW187071   6.717   4.692   4.618 -0.3930  0.1909 -1.9347
27408SOL    HW287072   6.820   4.727   4.513  1.2031 -2.2151 -1.2460
27409SOL     OW87073   5.774   8.040   4.749  0.8238  0.3722  0.0077
27409SOL    HW187074   5.774   8.025   4.655 -2.4670  0.5864 -0.1255
27409SOL    HW287075   5.690   8.007   4.779  1.4939  0.9338  2.7924
27410SOL     OW87076   2.268   7.575   6.742  0.4637 -0.0155 -0.4074
27410SOL    HW187077   2.201   7.643   6.748 -0.2309 -0.4862 -2.3134
27410SOL    HW287078   2.350   7.621   6.760 -0.3587  0.3661  3.0342
27411SOL     OW87079   0.235   5.163   6.284  0.7782  0.0742 -0.3021
27411SOL    HW187080   0.280   5.094   6.333  0.5244  0.3250  0.2912
27411SOL    HW287081   0.153   5.123   6.256  0.1193  0.4558  0.9964
27412SOL     OW87082   6.620   0.787   1.115 -0.4203  0.2809  0.3176
27412SOL    HW187083   6.615   0.727   1.190  0.0308 -0.9679 -0.6131
27412SOL    HW287084   6.575   0.741   1.045  0.0375  0.9929 -0.4576
27413SOL     OW87085   4.949   6.778   0.630  0.2848 -0.7071 -0.2895
27413SOL    HW187086   4.948   6.864   0.674  1.0628  0.6381 -2.7012
27413SOL    HW287087   4.997   6.721   0.690  0.5794  0.7941  0.9667
27414SOL     OW87088   8.511   5.231   8.708 -0.1540 -0.7996  0.5382
27414SOL    HW187089   8.472   5.288   8.775 -1.0127 -0.5130 -0.1971
27414SOL    HW287090   8.473   5.261   8.626  0.8468 -1.1962 -0.0834
27415SOL     OW87091   0.685   3.906   0.607 -0.1375  0.3128  0.4699
27415SOL    HW187092   0.602   3.901   0.560 -0.0271 -0.2632  0.3185
27415SOL    HW287093   0.739   3.965   0.554 -0.8262  1.6272  1.1897
27416SOL     OW87094   9.577   0.097   8.032  0.1087 -0.0482 -0.1115
27416SOL    HW187095   9.630   0.160   8.080  0.2531 -1.8410  2.2627
27416SOL    HW287096   9.568   0.022   8.092 -2.6866 -1.0063 -1.5385
27417SOL     OW87097   1.990   6.865   4.811  0.1071  1.0012  0.2647
27417SOL    HW187098   1.990   6.815   4.730 -1.4193  0.9647  0.2464
27417SOL    HW287099   2.010   6.955   4.784 -1.9811  1.3067 -0.4308
27418SOL     OW87100   9.726   2.676   4.861 -0.1942 -0.3829 -0.3541
27418SOL    HW187101   9.637   2.700   4.887  0.0968  0.1186  0.2081
27418SOL    HW287102   9.725   2.677   4.766 -0.6941 -0.0060 -0.3478
27419SOL     OW87103   5.284   9.096   6.324  0.5878  0.1615  0.5528
27419SOL    HW187104   5.334   9.073   6.403 -0.1934  1.2316  1.3845
27419SOL    HW287105   5.242   9.179   6.346 -1.4288 -0.6153 -0.1902
27420SOL     OW87106   3.446   8.333   7.087  0.0682  0.1331 -0.4523
27420SOL    HW187107   3.364   8.354   7.042 -0.1106 -0.1473 -0.2608
27420SOL    HW287108   3.478   8.417   7.120  0.4661  0.4245 -1.5403
27421SOL     OW87109   8.041   5.397   3.698 -0.3540  0.4019 -0.3188
27421SOL    HW187110   8.018   5.489   3.683  0.6238  0.8838  0.9760
27421SOL    HW287111   7.973   5.348   3.652 -1.2625  1.7640 -0.5014
27422SOL     OW87112   7.299   3.376   3.011 -0.1027 -0.1522  0.3270
27422SOL    HW187113   7.318   3.374   3.105  1.0368  0.1364  0.1209
27422SOL    HW287114   7.252   3.458   2.998 -2.8791 -1.5173  1.0683
27423SOL     OW87115   0.730   3.600   6.735  0.7330  0.3384 -0.0863
27423SOL    HW187116   0.691   3.681   6.705  0.6981  0.9593  1.5490
27423SOL    HW287117   0.666   3.532   6.712 -1.4434  1.3153  2.5266
27424SOL     OW87118   9.488   9.524   4.215  0.1623 -0.2370 -0.3146
27424SOL    HW187119   9.471   9.618   4.223 -1.2436 -0.5666  1.0670
27424SOL    HW287120   9.544   9.503   4.291 -1.3202 -0.8554  0.6621
27425SOL     OW87121   7.567   5.157   3.595 -0.1029 -0.4742  0.6606
27425SOL    HW187122   7.566   5.247   3.561  0.3238 -0.3403  0.9945
27425SOL    HW287123   7.488   5.117   3.558  0.2080 -0.2532 -0.2586
27426SOL     OW87124   8.694   1.175   6.272  0.1228 -0.6178  0.2955
27426SOL    HW187125   8.600   1.176   6.253  0.2057  0.7677 -0.1661
27426SOL    HW287126   8.717   1.267   6.283  1.3914 -0.9557  0.5922
27427SOL     OW87127   5.791   6.991   4.266  0.2815 -0.3188  0.3040
27427SOL    HW187128   5.846   7.067   4.251  0.9526 -0.5053  1.7174
27427SOL    HW287129   5.850   6.916   4.257 -0.2101 -0.6434 -0.3193
27428SOL     OW87130   2.247   2.537   7.101 -0.1794  0.6301  0.4357
27428SOL    HW187131   2.209   2.553   7.014  0.3734 -0.7946 -0.1025
27428SOL    HW287132   2.208   2.604   7.157  0.1808  2.2059 -1.1038
27429SOL     OW87133   6.263   1.023   9.478  0.3367  0.2321  0.2539
27429SOL    HW187134   6.225   1.018   9.390  1.2589  1.5928 -0.2415
27429SOL    HW287135   6.209   1.088   9.524  2.2382  2.5455 -0.6049
27430SOL     OW87136   7.518   0.094   0.254  0.4513  0.2041  0.5507
27430SOL    HW187137   7.464   0.044   0.315 -2.2236 -1.1322 -2.6341
27430SOL    HW287138   7.465   0.171   0.232 -0.1825 -0.9571 -2.3814
27431SOL     OW87139   1.875   2.356   8.608 -0.4134  0.0539 -0.0249
27431SOL    HW187140   1.799   2.325   8.560 -0.5385  0.2058  0.0744
27431SOL    HW287141   1.875   2.306   8.689 -1.0927  0.8872  0.5096
27432SOL     OW87142   2.225   0.094   5.884 -0.2213 -0.3305  0.5993
27432SOL    HW187143   2.228   0.066   5.792 -0.0063  0.6304  0.3090
27432SOL    HW287144   2.267   0.022   5.932  1.5171  0.0579 -0.2765
27433SOL     OW87145   4.222   8.554   3.858 -0.3756 -0.2029  0.3754
27433SOL    HW187146   4.208   8.617   3.788  1.6552 -1.1945 -1.0321
27433SOL    HW287147   4.306   8.580   3.896 -0.0415 -1.4121  0.4897
27434SOL     OW87148   8.582   0.604   0.216 -0.2318 -0.1626  0.4319
27434SOL    HW187149   8.586   0.602   0.121  1.0276 -0.6086  0.4808
27434SOL    HW287150   8.648   0.668   0.242 -0.5740 -0.0357  1.0124
27435SOL     OW87151   1.498   0.624   3.011  0.1650  0.6062 -0.1562
27435SOL    HW187152   1.527   0.565   2.941 -0.0505  0.6359 -0.2703
27435SOL    HW287153   1.412   0.591   3.036  0.9975 -0.5234  1.3579
27436SOL     OW87154   1.290   7.002   2.368 -0.1588 -0.2428 -0.2555
27436SOL    HW187155   1.260   6.941   2.301  0.0906 -1.4552  0.6783
27436SOL    HW287156   1.280   6.953   2.450  2.2427  0.0707  0.3161
27437SOL     OW87157   2.185   6.417   1.443 -0.1139  0.0909  0.2908
27437SOL    HW187158   2.250   6.349   1.427 -1.1959 -1.0052  0.4002
27437SOL    HW287159   2.220   6.467   1.517  0.1435 -1.1063  1.0064
27438SOL     OW87160   2.233   4.230   0.409 -0.0634 -0.0128  0.1182
27438SOL    HW187161   2.248   4.210   0.502  0.3237 -0.3426 -0.0116
27438SOL    HW287162   2.290   4.304   0.391 -0.7987  0.6239  0.3622
27439SOL     OW87163   5.678   0.060   0.994 -0.3575  0.0427 -1.2518
27439SOL    HW187164   5.600   0.092   1.039 -0.0494 -0.4656 -0.3330
27439SOL    HW287165   5.747   0.121   1.019 -0.4139  0.4026 -1.9419
27440SOL     OW87166   3.395   3.528   2.721  0.1183  0.2240 -0.0280
27440SOL    HW187167   3.433   3.590   2.784  0.5834 -0.4278  0.3591
27440SOL    HW287168   3.310   3.505   2.758 -1.0273  2.2125 -1.2415
27441SOL     OW87169   5.330   7.209   2.134 -0.0116  0.2526  0.0958
27441SOL    HW187170   5.284   7.269   2.193 -3.1997 -0.6302 -1.2653
27441SOL    HW287171   5.325   7.124   2.179  0.7835  0.2181  0.1372
27442SOL     OW87172   3.666   7.216   6.070  0.3587  0.2278  0.5075
27442SOL    HW187173   3.712   7.259   6.142  0.7653  2.1305 -0.8061
27442SOL    HW287174   3.585   7.266   6.060 -0.3813 -0.9214  0.5461
27443SOL     OW87175   8.483   4.130   3.102  0.1265 -0.3443 -0.2739
27443SOL    HW187176   8.453   4.131   3.011  0.2735  0.6095 -0.3256
27443SOL    HW287177   8.571   4.093   3.097  1.3131  2.2840 -0.9589
27444SOL     OW87178   0.124   9.050   3.544 -0.3677 -0.5231  0.2357
27444SOL    HW187179   0.029   9.039   3.550 -0.6556  1.7302  0.5704
27444SOL    HW287180   0.159   8.978   3.596 -1.8589 -1.7151 -0.3474
27445SOL     OW87181   4.693   4.154   1.140  0.4226  0.0686 -0.1153
27445SOL    HW187182   4.689   4.063   1.172 -0.0681  0.1590  0.0899
27445SOL    HW287183   4.621   4.198   1.185  1.3052  0.8222  0.5974
27446SOL     OW87184   6.009   7.974   5.283 -0.7477  0.1409  0.3786
27446SOL    HW187185   5.944   8.043   5.268 -0.2018  0.4002 -0.9302
27446SOL    HW287186   6.091   8.021   5.296 -0.0873 -0.2566 -2.0034
27447SOL     OW87187   8.816   0.912   9.243 -0.2200  0.4090 -0.1884
27447SOL    HW187188   8.744   0.869   9.196  0.1294 -0.3709 -0.0346
27447SOL    HW287189   8.787   1.002   9.256 -0.1311  0.8097 -2.3565
27448SOL     OW87190   3.531   0.779   6.167  0.2114 -0.7859  0.0211
27448SOL    HW187191   3.453   0.726   6.152  0.7489 -1.2210 -1.3440
27448SOL    HW287192   3.603   0.716   6.171  0.7496 -0.2381 -0.7551
27449SOL     OW87193   5.299   3.695   0.251 -0.0283  0.7621  0.3637
27449SOL    HW187194   5.223   3.637   0.259 -0.1046  0.9719  1.2627
27449SOL    HW287195   5.334   3.701   0.340  0.0282  2.0376  0.2752
27450SOL     OW87196   9.138   4.569   7.267 -0.0508  0.3898 -0.6869
27450SOL    HW187197   9.077   4.495   7.273  1.3116 -0.7310  0.0247
27450SOL    HW287198   9.145   4.602   7.357 -0.9518  1.6857 -1.0592
27451SOL     OW87199   3.634   8.657   3.888  0.2114  0.0614 -0.0613
27451SOL    HW187200   3.679   8.726   3.936  1.4299 -0.5873 -0.2501
27451SOL    HW287201   3.620   8.587   3.953 -1.2017  0.5290  0.1846
27452SOL     OW87202   3.950   5.605   3.691 -0.0278  0.0171 -0.3516
27452SOL    HW187203   3.990   5.638   3.610 -0.7273 -1.1188 -1.1937
27452SOL    HW287204   3.894   5.533   3.662  0.2769 -0.9067  1.2394
27453SOL     OW87205   5.835   7.607   2.785 -0.6853  0.4203 -0.0717
27453SOL    HW187206   5.893   7.598   2.861 -1.1651 -0.9262  0.1610
27453SOL    HW287207   5.762   7.659   2.817 -1.3733 -0.9764  0.7147
27454SOL     OW87208   0.339   4.759   6.587  0.3236 -0.0514  0.1802
27454SOL    HW187209   0.426   4.736   6.620  1.5841  2.4129 -1.1718
27454SOL    HW287210   0.337   4.725   6.497  0.3730  0.8909 -0.1911
27455SOL     OW87211   8.770   2.556   8.542 -0.0152 -0.1262  0.0523
27455SOL    HW187212   8.731   2.498   8.608  0.6139 -1.4158 -0.6634
27455SOL    HW287213   8.762   2.508   8.460  1.4533  0.3417 -0.4018
27456SOL     OW87214   1.096   4.685   4.569 -0.5508  0.1713 -0.2006
27456SOL    HW187215   1.167   4.623   4.586  0.8017  1.8075  0.4108
27456SOL    HW287216   1.128   4.739   4.497 -1.0424  1.1260  0.2791
27457SOL     OW87217   8.829   7.856   6.506  0.2575  0.0049  0.3604
27457SOL    HW187218   8.783   7.782   6.547 -1.0227  0.1213 -0.7837
27457SOL    HW287219   8.847   7.916   6.579  1.4054 -1.4458  1.3242
27458SOL     OW87220   7.909   7.434   6.342  0.1390 -0.3017  0.0252
27458SOL    HW187221   7.983   7.494   6.332 -1.4280  2.0268  1.5181
27458SOL    HW287222   7.944   7.361   6.393  1.3950  0.7745  0.7438
27459SOL     OW87223   4.217   2.897   9.631  0.0616  0.1174  0.8883
27459SOL    HW187224   4.270   2.974   9.610 -0.7711  0.0543 -1.7485
27459SOL    HW287225   4.154   2.928   9.696 -0.7948  1.9495 -0.7225
27460SOL     OW87226   2.463   4.715   9.569 -0.4808 -0.1768 -0.2168
27460SOL    HW187227   2.455   4.635   9.516 -1.8307 -1.2982  1.5489
27460SOL    HW287228   2.557   4.726   9.582 -0.0946  0.1683 -2.7920
27461SOL     OW87229   1.686   5.709   0.696 -0.1370  0.3167  0.3720
27461SOL    HW187230   1.779   5.712   0.675  0.0099  0.0443  0.9631
27461SOL    HW287231   1.655   5.799   0.683 -0.1406  0.1026 -1.3434
27462SOL     OW87232   9.026   0.689   6.622 -0.5598 -0.4800 -0.2548
27462SOL    HW187233   8.977   0.627   6.568 -2.4421 -0.6894  1.5602
27462SOL    HW287234   9.002   0.775   6.588 -1.2330 -0.6300 -0.1760
27463SOL     OW87235   5.245   8.815   0.477 -0.1692  0.0130  0.1823
27463SOL    HW187236   5.173   8.752   0.476 -1.5032  1.5038 -0.1023
27463SOL    HW287237   5.254   8.840   0.569 -0.8292  0.7282  0.0551
27464SOL     OW87238   1.088   4.455   7.340  0.0462 -0.8548 -0.2542
27464SOL    HW187239   1.047   4.497   7.265 -0.7837 -1.0051  0.0963
27464SOL    HW287240   1.182   4.469   7.328 -0.1721  0.7542 -0.3539
27465SOL     OW87241   6.647   1.857   1.319 -0.0243 -0.8066  0.0534
27465SOL    HW187242   6.729   1.868   1.271  0.4510  3.1691  1.3888
27465SOL    HW287243   6.581   1.899   1.263 -0.2685 -0.0905  0.8461
27466SOL     OW87244   8.828   4.476   3.876  0.2565 -0.0520 -0.4501
27466SOL    HW187245   8.891   4.474   3.948 -0.4847  0.4830  0.2440
27466SOL    HW287246   8.744   4.492   3.919  0.0407  2.3249 -1.5819
27467SOL     OW87247   7.586   3.986   2.916  0.1234  0.4777  0.1860
27467SOL    HW187248   7.572   3.892   2.920  0.7263  0.4319  1.7897
27467SOL    HW287249   7.663   3.997   2.861  1.3708 -0.1489  1.7414
27468SOL     OW87250   4.350   6.034   0.996  0.2996 -0.3860  0.0267
27468SOL    HW187251   4.342   5.943   1.027  1.3657  0.1979  2.2301
27468SOL    HW287252   4.323   6.087   1.071 -1.5669  1.1654 -1.6449
27469SOL     OW87253   1.305   5.593   7.188 -0.4381  0.0047 -0.0316
27469SOL    HW187254   1.394   5.608   7.220 -1.0568  2.6256  0.7300
27469SOL    HW287255   1.305   5.627   7.098 -0.2653 -1.6772 -0.7091
27470SOL     OW87256   2.933   7.661   8.340  0.4746 -0.1198  0.1874
27470SOL    HW187257   3.007   7.698   8.291 -0.0283  0.7940  0.0919
27470SOL    HW287258   2.970   7.633   8.423  1.0449 -0.2384 -0.1041
27471SOL     OW87259   2.475   4.497   4.732 -0.2344  0.5924  0.1186
27471SOL    HW187260   2.525   4.416   4.726 -2.7253 -0.9661 -1.3507
27471SOL    HW287261   2.471   4.517   4.826  3.4702  1.1449  0.2827
27472SOL     OW87262   7.113   7.655   8.440  0.4713 -0.2040 -0.3222
27472SOL    HW187263   7.096   7.749   8.450  0.3347  0.0189 -2.2493
27472SOL    HW287264   7.188   7.638   8.498 -1.8272  0.1975  3.0895
27473SOL     OW87265   0.587   9.455   7.945  0.0528  0.3655 -0.7279
27473SOL    HW187266   0.598   9.496   8.031  1.2927  1.4748 -1.3831
27473SOL    HW287267   0.502   9.410   7.951 -0.5126  1.5294  0.6221
27474SOL     OW87268   4.150   4.767   1.740  0.0197  0.2734 -0.7476
27474SOL    HW187269   4.154   4.696   1.803  0.2728  1.6440  0.8595
27474SOL    HW287270   4.056   4.785   1.729 -0.0322 -0.1252 -0.9549
27475SOL     OW87271   2.314   0.919   6.123  0.0747 -0.3410  0.2120
27475SOL    HW187272   2.293   0.836   6.080  0.4513 -0.1443 -0.3665
27475SOL    HW287273   2.260   0.984   6.077  0.2192 -0.1793  0.2710
27476SOL     OW87274   0.119   2.497   1.237  0.6619  0.3474 -0.6615
27476SOL    HW187275   0.056   2.466   1.302 -0.2229  0.4552 -1.4508
27476SOL    HW287276   0.146   2.418   1.190  0.3430  0.4368 -0.9939
27477SOL     OW87277   4.781   6.094   4.067 -0.1316 -0.2066  0.7707
27477SOL    HW187278   4.791   6.103   4.161  1.8726 -1.2565  0.7113
27477SOL    HW287279   4.868   6.069   4.036 -0.9761 -0.8517 -1.2374
27478SOL     OW87280   4.928   7.654   8.093  0.2344  0.0030  1.0324
27478SOL    HW187281   5.012   7.607   8.095  0.7238  0.8474  0.7145
27478SOL    HW287282   4.952   7.745   8.077 -0.9027 -0.2668 -3.5612
27479SOL     OW87283   4.077   9.095   4.667  0.8130 -0.4947  0.3035
27479SOL    HW187284   4.004   9.060   4.718  1.2538  0.1816  1.4417
27479SOL    HW287285   4.155   9.072   4.718  1.2909 -0.0585 -0.2225
27480SOL     OW87286   5.360   8.938   7.319  0.4122 -0.0584 -0.2093
27480SOL    HW187287   5.428   8.962   7.381 -0.0119 -0.5587  0.4629
27480SOL    HW287288   5.295   9.008   7.325  0.8939  0.4558 -0.9050
27481SOL     OW87289   5.341   5.653   5.066  0.3308  0.3196 -0.5411
27481SOL    HW187290   5.307   5.642   5.154 -0.5136  0.8728 -0.7862
27481SOL    HW287291   5.393   5.734   5.071  0.9306 -0.0673 -0.3735
27482SOL     OW87292   6.156   7.240   7.875  0.1515 -0.1851 -0.3243
27482SOL    HW187293   6.153   7.226   7.970 -0.1626  0.5086 -0.2281
27482SOL    HW287294   6.184   7.331   7.865 -0.2006 -0.1377 -0.8939
27483SOL     OW87295   3.696   1.784   7.779  0.5660 -0.1912 -0.2501
27483SOL    HW187296   3.708   1.690   7.798 -1.4339 -0.1370  1.6850
27483SOL    HW287297   3.603   1.793   7.762  0.6143  1.5454  0.2693
27484SOL     OW87298   5.273   6.849   4.872 -0.0860  0.4524  0.1581
27484SOL    HW187299   5.203   6.784   4.868 -0.3318  0.6427  1.0739
27484SOL    HW287300   5.347   6.801   4.910  0.5540  0.0452 -1.4936
27485SOL     OW87301   4.058   5.674   6.551  0.2687  0.0780  0.1516
27485SOL    HW187302   3.968   5.644   6.538  0.1490  0.5199 -0.0503
27485SOL    HW287303   4.077   5.653   6.643 -0.0446 -0.0044  0.1983
27486SOL     OW87304   2.482   3.466   4.357  0.5649  0.4886  0.6027
27486SOL    HW187305   2.423   3.505   4.422  1.2337  0.0417  1.4972
27486SOL    HW287306   2.458   3.374   4.354 -1.9394  1.0724 -2.5072
27487SOL     OW87307   4.875   7.292   0.760 -0.1811 -0.4294 -0.0896
27487SOL    HW187308   4.966   7.322   0.763 -0.5318  0.8434 -1.3555
27487SOL    HW287309   4.837   7.323   0.842  0.2045  0.1737 -0.1302
27488SOL     OW87310   6.215   2.844   3.293 -0.3293 -0.0848 -0.0148
27488SOL    HW187311   6.305   2.824   3.318 -0.5428  0.2682  1.1238
27488SOL    HW287312   6.220   2.932   3.254 -0.6226  1.6697  3.4950
27489SOL     OW87313   4.159   2.612   2.473  0.0169  0.2197  0.1667
27489SOL    HW187314   4.241   2.570   2.498  0.0031 -0.1302 -0.3541
27489SOL    HW287315   4.092   2.544   2.486  0.3376 -0.9510 -3.3510
27490SOL     OW87316   2.607   1.973   6.976  0.1811 -0.3124  0.0685
27490SOL    HW187317   2.621   1.939   7.064 -2.3742  1.6237  1.3778
27490SOL    HW287318   2.542   1.914   6.938  0.3782 -0.4487 -0.0579
27491SOL     OW87319   4.625   5.580   0.538 -0.1373 -0.5069  0.5241
27491SOL    HW187320   4.683   5.655   0.536  2.2352 -2.2417 -0.4888
27491SOL    HW287321   4.537   5.618   0.543  0.7740  2.4180 -2.0218
27492SOL     OW87322   8.399   5.515   8.077 -0.1062 -0.0906 -0.1161
27492SOL    HW187323   8.313   5.550   8.053 -0.0463  0.3870  0.3447
27492SOL    HW287324   8.456   5.538   8.004  0.1062  1.4653  0.5112
27493SOL     OW87325   2.291   5.699   2.109 -0.4081  0.2350  0.1681
27493SOL    HW187326   2.211   5.658   2.140 -0.7271  0.6699 -0.0760
27493SOL    HW287327   2.276   5.793   2.120 -0.0028  0.3267 -0.0486
27494SOL     OW87328   0.717   3.597   6.299 -0.7147  0.0615  0.3487
27494SOL    HW187329   0.669   3.608   6.217 -0.8611  0.6554  0.5127
27494SOL    HW287330   0.685   3.668   6.355 -0.3573 -0.1305  0.7972
27495SOL     OW87331   3.010   7.119   0.373  0.4439  0.0334 -0.0688
27495SOL    HW187332   3.049   7.092   0.290 -2.5282 -1.1525 -1.1978
27495SOL    HW287333   2.916   7.117   0.358 -0.1940  1.2843  2.9167
27496SOL     OW87334   4.209   0.375   8.518 -0.0573 -0.1075  0.4915
27496SOL    HW187335   4.296   0.394   8.482  0.2866  0.8081  1.7502
27496SOL    HW287336   4.148   0.400   8.448  0.5778  1.8744  0.5935
27497SOL     OW87337   6.847   0.098   4.230  0.4573 -0.3184  0.5863
27497SOL    HW187338   6.909   0.066   4.295  0.7368  0.8441  0.9138
27497SOL    HW287339   6.892   0.089   4.146  0.0131 -2.0299  0.4923
27498SOL     OW87340   9.245   0.553   3.026  0.4320 -0.0889  0.0838
27498SOL    HW187341   9.255   0.511   3.112  0.6942 -0.6220 -0.1999
27498SOL    HW287342   9.184   0.496   2.979  0.9525 -0.2718 -0.3800
27499SOL     OW87343   0.583   5.477   3.657 -0.4624  0.0200  0.3712
27499SOL    HW187344   0.508   5.531   3.684 -1.3451 -1.1284  0.3045
27499SOL    HW287345   0.582   5.482   3.561 -0.7861 -0.4292  0.3507
27500SOL     OW87346   4.676   9.003   0.414  0.2785  0.4488 -0.0244
27500SOL    HW187347   4.767   8.975   0.402 -0.5740 -1.8796 -2.0077
27500SOL    HW287348   4.672   9.090   0.373  1.7270  0.8754  0.6921
27501SOL     OW87349   0.608   8.165   6.873 -0.0649  0.6687  0.2547
27501SOL    HW187350   0.695   8.134   6.900 -0.2451  0.8772  1.1090
27501SOL    HW287351   0.623   8.256   6.846 -0.4362  1.7315  3.1740
27502SOL     OW87352   6.089   6.877   4.656  0.2535  0.4734 -0.5327
27502SOL    HW187353   6.101   6.865   4.750  2.0669  0.3537 -0.7538
27502SOL    HW287354   6.052   6.794   4.625  3.2519 -0.9915 -0.4796
27503SOL     OW87355   5.379   8.604   0.320 -0.3379  0.0611 -0.0825
27503SOL    HW187356   5.342   8.691   0.338 -2.4231 -1.0595  1.4757
27503SOL    HW287357   5.419   8.613   0.234  0.2269  2.7728  0.3519
27504SOL     OW87358   9.209   6.014   2.991  0.1419 -0.2833 -0.0075
27504SOL    HW187359   9.186   5.923   2.972  0.3822 -0.0335 -1.6061
27504SOL    HW287360   9.133   6.064   2.963  0.3966  0.0799 -0.0549
27505SOL     OW87361   2.643   2.563   2.832  0.0574 -0.0497 -0.5817
27505SOL    HW187362   2.649   2.654   2.860  1.4087 -0.6558  1.3125
27505SOL    HW287363   2.724   2.547   2.783 -0.3611 -0.1359 -1.2558
27506SOL     OW87364   4.583   5.243   6.096 -0.2468 -0.3026  0.6320
27506SOL    HW187365   4.554   5.179   6.161  1.3887 -1.5295  0.2372
27506SOL    HW287366   4.648   5.296   6.142  0.5272 -0.8343  0.1775
27507SOL     OW87367   4.018   8.563   6.930  0.5833  0.0665 -0.2146
27507SOL    HW187368   3.930   8.545   6.898  0.5948  1.5680 -1.1951
27507SOL    HW287369   4.062   8.607   6.857  1.8646  0.1315  0.5610
27508SOL     OW87370   0.499   5.907   1.071  0.0121  0.1664 -0.3451
27508SOL    HW187371   0.450   5.903   0.989 -1.3551 -0.5435  0.4652
27508SOL    HW287372   0.431   5.905   1.139  1.1395  0.0395  0.8048
27509SOL     OW87373   5.897   2.997   1.556 -0.2424  0.0515  0.9028
27509SOL    HW187374   5.838   3.012   1.481 -1.4854 -0.3919  1.7510
27509SOL    HW287375   5.851   3.035   1.630  0.8210  0.1878  1.5104
27510SOL     OW87376   1.094   8.276   2.489  0.7440 -0.2604  0.3768
27510SOL    HW187377   1.073   8.361   2.528 -0.4859 -0.3940  0.0439
27510SOL    HW287378   1.163   8.241   2.545  0.8264  0.6844  0.8959
27511SOL     OW87379   9.314   8.723   0.213  0.1545 -0.0297 -0.0565
27511SOL    HW187380   9.366   8.653   0.253 -1.1782 -0.6486  0.6324
27511SOL    HW287381   9.324   8.797   0.273 -0.9098 -0.6012  0.8564
27512SOL     OW87382   7.726   4.007   7.384 -0.2482 -0.0590 -0.3260
27512SOL    HW187383   7.684   3.991   7.299 -1.2530 -0.2346  0.1949
27512SOL    HW287384   7.673   4.075   7.424  0.5944  0.4766 -0.0828
27513SOL     OW87385   8.198   3.378   0.877 -0.0641 -0.5862 -0.5850
27513SOL    HW187386   8.283   3.335   0.884  0.1100 -0.3686 -1.2716
27513SOL    HW287387   8.199   3.445   0.945 -0.6811 -2.1967  1.1022
27514SOL     OW87388   1.022   7.088   4.852 -0.0368  0.0017  0.1628
27514SOL    HW187389   1.095   7.148   4.838 -0.9193  0.4618 -3.7962
27514SOL    HW287390   0.948   7.144   4.876  0.5177 -0.3438  2.9946
27515SOL     OW87391   5.074   9.246   4.268  0.1443  0.1000  0.3162
27515SOL    HW187392   5.083   9.186   4.342 -1.6461  0.6309  1.0405
27515SOL    HW287393   5.145   9.223   4.209 -0.3789 -2.6427  0.6208
27516SOL     OW87394   2.476   0.801   4.978  0.1464 -0.1816 -0.4107
27516SOL    HW187395   2.468   0.838   5.065 -0.7716  2.7351 -1.6248
27516SOL    HW287396   2.427   0.718   4.982 -1.1773  0.6334  1.4508
27517SOL     OW87397   0.200   7.146   7.549  0.0453  0.6121  0.7625
27517SOL    HW187398   0.168   7.070   7.501  1.4384  1.3336 -1.4348
27517SOL    HW287399   0.293   7.128   7.563  0.3278  1.7569  0.4669
27518SOL     OW87400   1.215   0.606   8.800 -0.1393 -0.3270 -0.4416
27518SOL    HW187401   1.246   0.647   8.719  0.1528  0.4674  0.0716
27518SOL    HW287402   1.125   0.636   8.810  0.6654  1.8780  0.9772
27519SOL     OW87403   4.940   5.319   4.620 -0.0074 -1.0411 -0.4843
27519SOL    HW187404   4.875   5.248   4.618 -0.5915 -0.5114 -0.7043
27519SOL    HW287405   4.897   5.389   4.670  0.1704 -0.4688 -1.1166
27520SOL     OW87406   4.200   4.706   3.712 -0.3009  0.5532  0.2078
27520SOL    HW187407   4.280   4.735   3.755  1.3275 -1.9275 -0.9076
27520SOL    HW287408   4.225   4.689   3.622 -2.3990  0.8030 -0.4927
27521SOL     OW87409   6.014   5.970   2.935 -0.0346 -0.0081  0.2467
27521SOL    HW187410   5.928   6.004   2.957 -1.0824 -0.5281 -2.6221
27521SOL    HW287411   6.010   5.878   2.961 -0.0393  0.1353  0.7837
27522SOL     OW87412   3.365   1.156   8.171 -0.5020  0.4264 -0.4074
27522SOL    HW187413   3.350   1.166   8.265  1.2509  0.5814 -0.1128
27522SOL    HW287414   3.346   1.242   8.134  1.2499  1.1167  0.1965
27523SOL     OW87415   2.319   5.018   6.534 -0.0430 -0.3172 -0.5033
27523SOL    HW187416   2.257   5.045   6.467 -0.0276 -0.1955 -0.4675
27523SOL    HW287417   2.405   5.035   6.496  0.0760 -2.9757 -1.6655
27524SOL     OW87418   5.941   7.905   2.852 -0.4775  0.6690 -1.0161
27524SOL    HW187419   6.010   7.963   2.885  0.4838 -0.9717  0.0168
27524SOL    HW287420   5.895   7.876   2.931 -2.6989  2.0627 -1.7129
27525SOL     OW87421   6.113   5.123   2.494  0.4891  0.3742  0.0254
27525SOL    HW187422   6.204   5.110   2.467  0.9347  2.7755  0.1474
27525SOL    HW287423   6.087   5.204   2.452 -1.1140  0.5172  1.2081
27526SOL     OW87424   6.170   3.208   5.264 -0.0543 -0.3853  0.0308
27526SOL    HW187425   6.175   3.252   5.349  0.0797  0.1535 -0.2511
27526SOL    HW287426   6.261   3.194   5.239 -0.0932 -1.7697  0.5907
27527SOL     OW87427   1.398   7.316   7.416 -0.2817  0.0347 -0.2906
27527SOL    HW187428   1.467   7.250   7.412  0.2895  0.5175  0.8736
27527SOL    HW287429   1.430   7.380   7.480 -1.5281  0.6038 -0.2010
27528SOL     OW87430   8.946   0.668   0.547  0.0036  0.3127  0.1451
27528SOL    HW187431   8.903   0.615   0.480  2.1122 -0.7699 -0.4598
27528SOL    HW287432   8.962   0.752   0.504 -2.0043  0.9710  0.6015
27529SOL     OW87433   8.956   7.962   1.865  0.2003  0.0987 -0.4531
27529SOL    HW187434   9.038   7.912   1.871  2.0899  2.9697 -0.4454
27529SOL    HW287435   8.970   8.022   1.792 -1.7567  0.9596 -0.1807
27530SOL     OW87436   7.460   6.756   0.585 -0.0309 -0.2735 -0.2959
27530SOL    HW187437   7.402   6.718   0.651 -0.3026 -1.7694 -1.3536
27530SOL    HW287438   7.410   6.829   0.548 -1.0990 -1.2767 -0.8926
27531SOL     OW87439   8.729   7.920   7.162 -0.5002 -0.1806 -0.6034
27531SOL    HW187440   8.667   7.936   7.091 -1.0734  0.9453  0.1346
27531SOL    HW287441   8.804   7.975   7.141 -2.4438  3.8456  1.8987
27532SOL     OW87442   5.540   3.353   5.097  0.4140  0.0590 -0.2653
27532SOL    HW187443   5.467   3.329   5.153 -0.5139  1.9598 -0.5712
27532SOL    HW287444   5.508   3.427   5.045  2.3038  0.4705 -0.9595
27533SOL     OW87445   9.656   8.746   0.259 -0.1906  0.1002 -0.1018
27533SOL    HW187446   9.612   8.831   0.251 -0.6911  0.1685  2.5993
27533SOL    HW287447   9.749   8.767   0.249 -0.2582  1.1082  1.1246
27534SOL     OW87448   9.267   3.124   5.593  0.4387  0.3654  0.2165
27534SOL    HW187449   9.250   3.176   5.515  1.2220  0.5650  0.1721
27534SOL    HW287450   9.251   3.183   5.666 -1.0064 -0.0304  0.2361
27535SOL     OW87451   0.728   0.569   8.405  0.0615  0.4778 -0.3351
27535SOL    HW187452   0.678   0.625   8.465  0.0407  0.7074 -0.5621
27535SOL    HW287453   0.670   0.558   8.329 -0.9053 -1.7831  0.6650
27536SOL     OW87454   7.695   2.239   9.122 -0.5085 -0.4646 -0.1719
27536SOL    HW187455   7.743   2.157   9.108  0.2535 -0.3451  1.5034
27536SOL    HW287456   7.738   2.280   9.197 -0.8375  1.5244 -1.0107
27537SOL     OW87457   5.430   3.691   2.799 -0.1532  0.3424 -0.5047
27537SOL    HW187458   5.509   3.713   2.848 -1.6782 -1.1861  3.0007
27537SOL    HW287459   5.439   3.598   2.778 -1.2788 -0.0896  0.7242
27538SOL     OW87460   8.015   4.567   7.068 -0.1390 -0.1553 -0.5803
27538SOL    HW187461   8.061   4.497   7.115 -2.3095 -1.4931 -0.3027
27538SOL    HW287462   7.940   4.523   7.028 -1.4985  1.9917 -0.5391
27539SOL     OW87463   4.873   5.768   6.775 -0.5194 -0.1968  0.2471
27539SOL    HW187464   4.807   5.758   6.844 -0.6321 -0.7132  0.0652
27539SOL    HW287465   4.822   5.779   6.695 -0.4227 -2.9328 -0.2537
27540SOL     OW87466   6.199   5.091   1.238 -0.1452  0.0976  0.3216
27540SOL    HW187467   6.183   5.078   1.331 -1.9092  2.3979  0.4197
27540SOL    HW287468   6.113   5.082   1.197  0.5391 -0.4662 -1.0410
27541SOL     OW87469   5.578   0.827   8.688 -0.0480 -0.3140 -0.6369
27541SOL    HW187470   5.489   0.794   8.677 -0.0755 -0.2420 -0.6331
27541SOL    HW287471   5.633   0.764   8.642 -0.1889  0.1415 -1.4595
27542SOL     OW87472   3.239   6.806   6.553 -0.4173  0.5182  0.5707
27542SOL    HW187473   3.234   6.745   6.480 -3.0578 -0.0319  1.1197
27542SOL    HW287474   3.223   6.752   6.631 -2.2778  1.7479  1.1103
27543SOL     OW87475   5.309   9.452   1.616  0.1763  0.2494  0.4637
27543SOL    HW187476   5.267   9.413   1.693  1.2832 -2.2424 -0.1055
27543SOL    HW287477   5.393   9.484   1.648  0.2336  0.0949  0.4663
27544SOL     OW87478   4.654   4.502   9.219 -0.1085 -0.0408  0.8859
27544SOL    HW187479   4.748   4.519   9.221  0.0955 -0.3658 -1.8741
27544SOL    HW287480   4.646   4.407   9.227  0.1603 -0.4548 -2.3849
27545SOL     OW87481   8.685   5.526   6.004 -0.0043 -0.5043  0.0720
27545SOL    HW187482   8.666   5.569   5.921 -1.2249 -2.2319 -0.5997
27545SOL    HW287483   8.669   5.593   6.070 -0.6411  0.4149 -0.9878
27546SOL     OW87484   4.107   8.633   6.031  0.3591  0.1363 -0.0876
27546SOL    HW187485   4.166   8.563   6.003  0.0012 -0.3342  0.3185
27546SOL    HW287486   4.148   8.669   6.109 -0.8931 -1.5890  1.4633
27547SOL     OW87487   4.429   0.122   0.321  0.0791  0.4158  0.4565
27547SOL    HW187488   4.395   0.135   0.410 -0.8045  0.9446  0.0528
27547SOL    HW287489   4.522   0.140   0.328 -0.1270  1.2920  1.1112
27548SOL     OW87490   6.076   9.721   5.496 -0.7759 -0.6270 -0.4228
27548SOL    HW187491   6.096   9.701   5.405  0.0318  0.3539 -0.4758
27548SOL    HW287492   6.110   9.646   5.545 -1.4828 -1.3038 -0.9353
27549SOL     OW87493   2.431   7.657   4.153 -0.1811 -0.1916 -0.5129
27549SOL    HW187494   2.442   7.740   4.199 -1.1383  0.2460 -1.0424
27549SOL    HW287495   2.398   7.597   4.220  1.6384 -0.4939  0.1610
27550SOL     OW87496   0.298   3.635   9.035 -1.7037 -0.5751 -0.4661
27550SOL    HW187497   0.343   3.587   8.966 -0.1566 -1.2337  0.9212
27550SOL    HW287498   0.334   3.599   9.116  0.5784  3.7185  0.7271
27551SOL     OW87499   2.366   8.992   3.831 -0.3221 -0.7076 -0.1150
27551SOL    HW187500   2.351   8.936   3.755 -2.4625 -0.5621  0.1383
27551SOL    HW287501   2.312   8.954   3.900 -1.6193  1.4502  0.1494
27552SOL     OW87502   5.985   5.929   7.577 -0.1058  0.0829 -0.1386
27552SOL    HW187503   5.956   5.839   7.561 -0.2514  0.4746 -2.4503
27552SOL    HW287504   6.046   5.947   7.506  0.5790  1.5587  0.7720
27553SOL     OW87505   7.280   0.601   0.979 -0.5786  0.1078 -0.4666
27553SOL    HW187506   7.286   0.525   1.037  0.2452  0.1642 -0.4550
27553SOL    HW287507   7.187   0.614   0.964 -0.7355 -0.7317 -0.2345
27554SOL     OW87508   7.552   7.149   6.764  0.3461  0.2340  0.4367
27554SOL    HW187509   7.557   7.224   6.823  0.0481  1.1012 -0.5962
27554SOL    HW287510   7.639   7.142   6.726  0.1683  0.5585 -0.0447
27555SOL     OW87511   0.706   8.656   3.594  0.1998 -0.2194  0.0651
27555SOL    HW187512   0.732   8.637   3.504 -0.1903 -0.8210  0.0795
27555SOL    HW287513   0.737   8.581   3.644  1.5383  0.6697  0.6547
27556SOL     OW87514   5.607   5.807   6.919 -0.3520  0.0607  0.1800
27556SOL    HW187515   5.526   5.838   6.959 -0.5668  1.1232 -1.0031
27556SOL    HW287516   5.663   5.783   6.993 -1.1651  0.7898  1.0574
27557SOL     OW87517   8.205   3.831   4.416 -0.2469 -1.0471  0.3217
27557SOL    HW187518   8.113   3.857   4.411 -0.1040 -0.6994 -1.8019
27557SOL    HW287519   8.206   3.741   4.383  0.2791 -0.6665 -0.7428
27558SOL     OW87520   7.197   7.546   2.686 -0.5892  0.0222  0.3432
27558SOL    HW187521   7.277   7.514   2.727  0.2934  2.4837  0.6866
27558SOL    HW287522   7.149   7.589   2.757 -1.7644 -0.5562 -0.0753
27559SOL     OW87523   2.705   7.143   3.411 -0.4705 -0.5664  0.2996
27559SOL    HW187524   2.793   7.109   3.423 -0.8950 -1.4549  0.9867
27559SOL    HW287525   2.649   7.066   3.407 -1.3837  0.0109  1.2554
27560SOL     OW87526   1.410   5.924   5.086 -0.2041  0.3589  0.0892
27560SOL    HW187527   1.479   5.985   5.111 -0.1539  0.3939 -0.1374
27560SOL    HW287528   1.332   5.978   5.076 -0.2298  0.3414  0.1839
27561SOL     OW87529   6.810   7.135   5.174 -0.1391 -0.1384 -0.1970
27561SOL    HW187530   6.855   7.074   5.116  1.6100  0.5762  0.3300
27561SOL    HW287531   6.807   7.218   5.125  0.5464  0.2287  0.3551
27562SOL     OW87532   8.111   7.776   8.083  0.7787  0.5375 -0.0086
27562SOL    HW187533   8.091   7.865   8.109  0.5596  0.0946  1.3961
27562SOL    HW287534   8.202   7.779   8.054  1.3593  0.8840  1.7561
27563SOL     OW87535   0.714   2.254   7.338  0.1603 -0.3189  0.4335
27563SOL    HW187536   0.677   2.335   7.302 -0.7673 -0.6764  0.5534
27563SOL    HW287537   0.796   2.281   7.379  0.3582  0.3929 -0.3999
27564SOL     OW87538   2.424   4.514   4.057 -0.6112  0.4185 -0.0902
27564SOL    HW187539   2.518   4.526   4.043 -0.6654  2.1013  0.8007
27564SOL    HW287540   2.391   4.485   3.972  0.6863 -0.0463 -0.4518
27565SOL     OW87541   2.834   0.359   4.359  0.9152  0.0281 -0.6239
27565SOL    HW187542   2.863   0.336   4.448  0.6591  1.6028 -0.1046
27565SOL    HW287543   2.911   0.399   4.318  1.7410 -2.6889 -1.9519
27566SOL     OW87544   4.011   5.281   6.223 -0.0211 -0.2028  0.3382
27566SOL    HW187545   3.973   5.352   6.171  0.3046 -0.4022 -0.1794
27566SOL    HW287546   4.099   5.312   6.245  0.1130 -0.4375  0.1319
27567SOL     OW87547   6.167   7.918   5.550  0.2216 -0.1254  0.1970
27567SOL    HW187548   6.074   7.926   5.531  0.2105  1.9768  0.9334
27567SOL    HW287549   6.209   7.984   5.495  0.8970  1.2993  2.3167
27568SOL     OW87550   2.245   8.917   0.542  0.2896  0.0027  0.7447
27568SOL    HW187551   2.203   8.838   0.509 -0.9699  0.1845  1.8536
27568SOL    HW287552   2.333   8.889   0.568 -0.0443 -0.9578  0.8731
27569SOL     OW87553   3.619   3.755   7.584  0.3950  0.3076 -0.7588
27569SOL    HW187554   3.694   3.745   7.643  0.5044  1.1392 -0.7439
27569SOL    HW287555   3.656   3.744   7.497  0.7073  1.4979 -0.8017
27570SOL     OW87556   1.829   4.099   8.675 -0.1639 -0.1510  0.1242
27570SOL    HW187557   1.789   4.183   8.697  0.2440  0.1984 -0.4659
27570SOL    HW287558   1.874   4.114   8.593  2.0687 -0.2578  1.2487
27571SOL     OW87559   8.981   2.450   8.702 -0.6213 -0.1150 -0.0734
27571SOL    HW187560   9.044   2.394   8.657 -0.1766  0.1739  0.1923
27571SOL    HW287561   8.909   2.459   8.640  0.0723  0.4453 -0.8031
27572SOL     OW87562   0.293   5.324   2.501  0.4107 -0.2661  0.2329
27572SOL    HW187563   0.269   5.368   2.419  0.5639 -3.1714 -1.5214
27572SOL    HW287564   0.388   5.317   2.497  0.3159 -1.6750 -0.0967
27573SOL     OW87565   1.723   7.375   1.008 -0.0925 -0.9151  0.0246
27573SOL    HW187566   1.728   7.444   0.943 -0.6385 -0.1995  0.7260
27573SOL    HW287567   1.673   7.305   0.966 -1.1425 -0.1348 -0.0414
27574SOL     OW87568   9.716   2.107   8.898 -0.0360  0.0672 -0.3796
27574SOL    HW187569   9.631   2.112   8.941 -0.4236  2.2254 -1.2556
27574SOL    HW287570   9.697   2.128   8.806  1.3935  0.3122 -0.6397
27575SOL     OW87571   5.828   9.528   8.026  0.3581 -0.6118  0.5914
27575SOL    HW187572   5.923   9.528   8.032  0.4240 -1.6095 -0.1605
27575SOL    HW287573   5.806   9.440   7.994 -0.7798 -0.2250  0.2609
27576SOL     OW87574   6.618   5.747   2.529  0.4456 -0.1729  0.2749
27576SOL    HW187575   6.592   5.664   2.489  2.0284 -0.2433 -0.7340
27576SOL    HW287576   6.539   5.801   2.526 -0.3787 -1.3416  0.1548
27577SOL     OW87577   1.522   4.260   5.440 -0.8515  0.3372 -0.4294
27577SOL    HW187578   1.547   4.199   5.510 -1.8294  1.2576  0.7646
27577SOL    HW287579   1.585   4.332   5.447 -1.5663  0.9236  0.2180
27578SOL     OW87580   0.200   1.704   9.179  0.4097 -0.1558 -0.2453
27578SOL    HW187581   0.112   1.678   9.207  0.4349  0.5763  0.5626
27578SOL    HW287582   0.249   1.713   9.260  0.7989  0.9417 -0.5855
27579SOL     OW87583   4.384   5.799   0.027  0.2097 -0.4014  0.0245
27579SOL    HW187584   4.339   5.789  -0.056 -0.0589 -0.4662  0.1767
27579SOL    HW287585   4.406   5.892   0.032  1.6355 -0.6673 -0.8408
27580SOL     OW87586   4.679   7.712   3.896  0.7314  0.2988 -0.7348
27580SOL    HW187587   4.693   7.803   3.868  1.5367  0.9549  1.5307
27580SOL    HW287588   4.632   7.720   3.979  0.4000 -1.3882 -0.7325
27581SOL     OW87589   9.678   7.141   6.880 -0.3254 -0.3282 -0.0830
27581SOL    HW187590   9.638   7.081   6.943 -0.8329  1.0805  1.0124
27581SOL    HW287591   9.619   7.216   6.878  0.8804  0.6435 -0.4949
27582SOL     OW87592   4.388   1.134   4.940 -0.0556  0.2048  0.1033
27582SOL    HW187593   4.385   1.068   4.870 -0.3547  2.2189 -1.9258
27582SOL    HW287594   4.375   1.084   5.021  1.4617 -2.4232 -1.1194
27583SOL     OW87595   7.621   3.887   4.649  0.0499  0.9022 -0.7624
27583SOL    HW187596   7.635   3.966   4.597 -0.2606  0.6462 -1.2394
27583SOL    HW287597   7.553   3.839   4.603  0.5107  0.1628 -0.6971
27584SOL     OW87598   6.054   9.134   5.579 -0.3585 -0.2147 -0.3691
27584SOL    HW187599   5.980   9.108   5.634  0.7415 -2.1660  0.2972
27584SOL    HW287600   6.082   9.218   5.615  0.7406 -1.7044  2.6438
27585SOL     OW87601   0.027   4.155   1.585 -0.3330  0.4987  0.2354
27585SOL    HW187602  -0.013   4.183   1.503  0.4163  0.0543 -0.2912
27585SOL    HW287603   0.049   4.237   1.630  0.9743  0.7676 -0.8603
27586SOL     OW87604   4.795   6.494   4.303  0.1177  0.4889 -0.2825
27586SOL    HW187605   4.731   6.424   4.311  1.0264 -0.2611  0.6491
27586SOL    HW287606   4.854   6.482   4.378  1.0019  1.5088 -0.7809
27587SOL     OW87607   8.790   3.867   7.615  0.3513  0.0581  0.2349
27587SOL    HW187608   8.792   3.953   7.657 -1.3211  0.6525 -0.7859
27587SOL    HW287609   8.839   3.810   7.674  0.5085  1.4688  1.5210
27588SOL     OW87610   4.907   3.237   0.371 -0.1857  0.5647 -0.0164
27588SOL    HW187611   4.924   3.255   0.463  1.2618  1.4840 -0.4323
27588SOL    HW287612   4.882   3.322   0.334 -0.9327  0.1692 -0.4547
27589SOL     OW87613   4.232   8.077   1.425 -0.1466  0.4311  1.0832
27589SOL    HW187614   4.314   8.062   1.378 -0.5516  0.3978  0.3785
27589SOL    HW287615   4.200   7.990   1.448  0.1104  0.4516  1.5385
27590SOL     OW87616   4.430   2.141   5.220  0.0438 -0.2114  0.0303
27590SOL    HW187617   4.377   2.180   5.151 -0.5339  0.0862  0.6313
27590SOL    HW287618   4.453   2.215   5.277  0.5600 -0.4440  0.1284
27591SOL     OW87619   2.022   6.115   7.741 -0.2227 -0.6111 -0.3909
27591SOL    HW187620   2.013   6.038   7.686  0.3926 -0.2319 -1.0388
27591SOL    HW287621   1.933   6.134   7.771 -0.5430 -0.9075 -1.1357
27592SOL     OW87622   2.051   5.634   4.117 -0.0237 -0.0325 -0.4065
27592SOL    HW187623   2.111   5.705   4.094  0.5156 -0.8489 -1.6014
27592SOL    HW287624   2.100   5.582   4.180 -0.0844  0.1607 -0.1972
27593SOL     OW87625   9.685   9.304   5.970 -0.4572  0.1807  0.1192
27593SOL    HW187626   9.734   9.345   6.041 -0.9783 -0.1421  0.6742
27593SOL    HW287627   9.750   9.285   5.903  0.7482 -2.7956  1.9609
27594SOL     OW87628   6.661   9.558   0.003 -0.3567  0.0976 -0.3800
27594SOL    HW187629   6.652   9.500  -0.072  1.1019 -0.2223 -0.3293
27594SOL    HW287630   6.668   9.499   0.078  2.1060  0.2592 -0.4304
27595SOL     OW87631   3.155   6.487   3.812 -0.4014 -0.2878  0.6488
27595SOL    HW187632   3.072   6.455   3.778 -0.2057  0.1299 -0.2647
27595SOL    HW287633   3.145   6.582   3.812  0.1255 -0.2261  0.3642
27596SOL     OW87634   7.489   7.081   4.748 -0.2515  0.3048 -0.0949
27596SOL    HW187635   7.416   7.035   4.706 -0.8262 -0.4938  1.6849
27596SOL    HW287636   7.560   7.017   4.751 -0.4389  0.1270  0.7322
27597SOL     OW87637   0.249   1.295   5.653  0.5226 -0.3647 -0.6872
27597SOL    HW187638   0.276   1.204   5.662  2.0870 -0.0432 -1.7621
27597SOL    HW287639   0.194   1.311   5.729 -0.1149 -2.3113 -0.6788
27598SOL     OW87640   9.706   9.199   6.384  0.1903 -0.2601 -0.1209
27598SOL    HW187641   9.714   9.132   6.452  3.1329  0.4358  0.3983
27598SOL    HW287642   9.636   9.256   6.415  0.3024 -0.9226  1.4697
27599SOL     OW87643   6.615   5.569   4.680 -0.7161  0.0380  0.4790
27599SOL    HW187644   6.557   5.557   4.605 -0.6676 -0.2771  0.4908
27599SOL    HW287645   6.698   5.598   4.641 -0.5360 -0.6133  0.3643
27600SOL     OW87646   3.480   7.115   9.191 -0.3456 -0.5597  0.1095
27600SOL    HW187647   3.543   7.046   9.215  1.2639  1.2242  1.4004
27600SOL    HW287648   3.402   7.096   9.244 -1.5502 -3.5476 -2.4520
27601SOL     OW87649   6.792   9.099   3.878 -0.3024  0.0392  0.8595
27601SOL    HW187650   6.722   9.161   3.859  1.0240  0.7891 -2.0736
27601SOL    HW287651   6.777   9.026   3.818  0.7953 -0.2988  0.9757
27602SOL     OW87652   9.089   9.235   1.165  0.1238 -0.2554  0.5249
27602SOL    HW187653   9.099   9.330   1.166 -0.8429 -0.0780 -1.5224
27602SOL    HW287654   9.023   9.217   1.232 -1.5554  0.8426 -0.7367
27603SOL     OW87655   0.623   9.511   4.920  0.3383 -0.0282 -0.3958
27603SOL    HW187656   0.574   9.557   4.853 -0.1694 -1.1079 -0.7949
27603SOL    HW287657   0.696   9.569   4.941 -0.2435  0.9128 -0.9093
27604SOL     OW87658   6.061   7.423   2.944  0.5279  0.5225 -0.3295
27604SOL    HW187659   6.130   7.445   3.007  1.1381 -0.3611 -0.6749
27604SOL    HW287660   6.091   7.462   2.862  0.3807  0.5468 -0.3713
27605SOL     OW87661   4.000   7.585   5.247  0.2292 -0.0253 -0.1592
27605SOL    HW187662   3.950   7.650   5.297  0.8442 -0.1830  0.6866
27605SOL    HW287663   3.934   7.525   5.213 -0.3649  1.1472 -1.1188
27606SOL     OW87664   6.822   7.351   6.756  0.0643  0.1796  0.2890
27606SOL    HW187665   6.881   7.337   6.830  0.8140  3.5133  0.4652
27606SOL    HW287666   6.753   7.406   6.790 -0.5077  0.3639 -1.0931
27607SOL     OW87667   4.560   2.316   2.408 -0.1502  0.0867 -0.4857
27607SOL    HW187668   4.549   2.223   2.390 -0.0522 -0.1623  0.6622
27607SOL    HW287669   4.652   2.325   2.433 -0.9082 -0.1290  2.6998
27608SOL     OW87670   5.194   1.513   5.173 -0.1178  0.0347 -0.3595
27608SOL    HW187671   5.231   1.596   5.144 -0.5847 -0.1638 -1.5736
27608SOL    HW287672   5.102   1.532   5.192 -0.5275 -0.4185 -1.7570
27609SOL     OW87673   7.829   0.252   1.546  0.1120 -0.0762 -0.6474
27609SOL    HW187674   7.790   0.328   1.504 -0.7061 -0.6497 -0.9546
27609SOL    HW287675   7.892   0.219   1.482  0.7941  0.5922 -0.3321
27610SOL     OW87676   1.819   3.992   4.790  0.0313  0.2627 -0.0123
27610SOL    HW187677   1.731   3.956   4.784 -0.2051  0.8893 -0.3975
27610SOL    HW287678   1.875   3.929   4.744 -0.8726  2.0015 -3.9523
27611SOL     OW87679   4.484   5.145   3.849  0.4608  0.0741 -0.2732
27611SOL    HW187680   4.563   5.150   3.903  1.5885  3.1016 -1.9882
27611SOL    HW287681   4.415   5.183   3.904  0.7755 -0.1383  0.2745
27612SOL     OW87682   0.507   3.188   7.852  0.3065 -0.4426  0.5397
27612SOL    HW187683   0.493   3.097   7.827  0.2521 -0.8480  1.9955
27612SOL    HW287684   0.420   3.226   7.856  0.4034  0.1296 -1.5864
27613SOL     OW87685   9.495   7.438   4.857 -0.0906  0.4096 -0.1991
27613SOL    HW187686   9.510   7.497   4.783 -0.5519  0.6898 -0.0711
27613SOL    HW287687   9.575   7.443   4.909 -0.6983  2.1096  0.6376
27614SOL     OW87688   1.218   0.838   9.246 -0.0900  0.2053 -0.5397
27614SOL    HW187689   1.249   0.901   9.181  1.0788 -0.1278 -0.3343
27614SOL    HW287690   1.168   0.891   9.309 -0.1650  0.7274 -1.0334
27615SOL     OW87691   1.975   3.640   1.103 -0.1266  0.4712 -0.2130
27615SOL    HW187692   1.974   3.734   1.087  1.4245  0.4264 -0.7256
27615SOL    HW287693   2.051   3.608   1.054 -0.0564 -0.8949  0.7247
27616SOL     OW87694   5.879   4.193   1.097 -0.7384  0.0530  0.0928
27616SOL    HW187695   5.794   4.199   1.055 -1.0933  1.1681  0.9323
27616SOL    HW287696   5.897   4.099   1.103 -1.8347 -0.1839 -0.2316
27617SOL     OW87697   6.643   1.079   5.996  0.1739 -0.0825  0.1880
27617SOL    HW187698   6.595   0.996   5.990 -0.0107  0.1482 -2.5988
27617SOL    HW287699   6.579   1.141   6.030 -1.5641  0.1340 -3.0998
27618SOL     OW87700   9.718   3.564   8.150 -0.3953 -0.0526  0.4417
27618SOL    HW187701   9.718   3.471   8.174 -0.4616  0.0747  0.9584
27618SOL    HW287702   9.648   3.602   8.203  0.0546  0.4093  0.7201
27619SOL     OW87703   5.192   9.723   1.480  0.3267  0.2838 -0.2399
27619SOL    HW187704   5.170   9.750   1.569  0.9140  0.1432 -0.0479
27619SOL    HW287705   5.147   9.640   1.468 -1.9879  1.5467 -1.0370
27620SOL     OW87706   7.757   4.818   8.228 -0.5998 -0.2389  0.2647
27620SOL    HW187707   7.793   4.807   8.316 -1.5829  2.5511  1.1391
27620SOL    HW287708   7.663   4.831   8.242 -1.0518 -1.4378 -1.3899
27621SOL     OW87709   7.461   2.365   6.443 -0.4214  0.6194 -0.2083
27621SOL    HW187710   7.456   2.446   6.392 -0.2798  1.8297  1.6030
27621SOL    HW287711   7.520   2.386   6.515 -2.3225 -0.2784  1.7282
27622SOL     OW87712   0.667   7.378   8.463 -0.2295 -0.2483  0.4562
27622SOL    HW187713   0.639   7.370   8.372 -1.0544  1.1144  0.5581
27622SOL    HW287714   0.668   7.288   8.496  0.6202 -0.8310 -1.0257
27623SOL     OW87715   9.250   2.588   4.843 -0.3033 -0.1036  0.9163
27623SOL    HW187716   9.300   2.615   4.766  2.0083  0.2962  2.4708
27623SOL    HW287717   9.199   2.665   4.866  0.3438  0.3739  0.7908
27624SOL     OW87718   0.957   7.995   6.400 -0.0594  0.4089  0.3502
27624SOL    HW187719   0.954   8.085   6.370  1.0720  1.0914  2.1196
27624SOL    HW287720   1.007   7.948   6.333 -1.5115  0.8280 -1.0879
27625SOL     OW87721   1.263   3.621   9.608 -0.2820  0.1941 -0.3499
27625SOL    HW187722   1.258   3.621   9.703 -0.2734  0.5615 -0.3482
27625SOL    HW287723   1.202   3.553   9.581  0.8544 -0.9818 -0.0317
27626SOL     OW87724   7.977   9.173   8.559  0.0659 -0.2973  0.4054
27626SOL    HW187725   7.991   9.248   8.615 -0.0505  0.4921 -0.5938
27626SOL    HW287726   8.059   9.164   8.509  0.0297 -0.7493  0.4150
27627SOL     OW87727   8.171   7.741   1.973 -0.2867  0.0557  0.1871
27627SOL    HW187728   8.216   7.765   1.892 -2.0189  1.1791 -0.5078
27627SOL    HW287729   8.115   7.667   1.947 -0.1854 -0.1575  0.5770
27628SOL     OW87730   4.946   7.830   6.425  0.2394  0.1883 -0.1131
27628SOL    HW187731   4.903   7.852   6.508  1.3651 -1.2247  0.9021
27628SOL    HW287732   4.959   7.915   6.382 -0.1851  0.9875  1.2578
27629SOL     OW87733   3.205   0.424   2.024 -0.6279  0.5260  0.6792
27629SOL    HW187734   3.251   0.450   1.945 -1.5897 -0.4589 -0.2499
27629SOL    HW287735   3.272   0.383   2.079 -0.3914 -1.1300 -0.7541
27630SOL     OW87736   7.091   7.838   6.685  0.2984 -0.3160 -0.5190
27630SOL    HW187737   7.139   7.887   6.753  2.1287 -2.5092 -0.1083
27630SOL    HW287738   7.061   7.759   6.729 -0.8431 -0.5316 -1.6436
27631SOL     OW87739   3.536   0.667   3.694  0.5089  0.0332 -0.0849
27631SOL    HW187740   3.499   0.590   3.738 -2.1964 -0.1229 -2.3224
27631SOL    HW287741   3.467   0.733   3.699  1.8003  1.4651 -0.3971
27632SOL     OW87742   6.474   4.346   4.518 -0.2234  0.3542 -0.0794
27632SOL    HW187743   6.525   4.365   4.439 -1.6103 -0.1657 -1.1408
27632SOL    HW287744   6.498   4.256   4.540 -2.8351 -1.0716 -2.4038
27633SOL     OW87745   7.312   3.899   9.306 -0.2604  0.3981 -0.0113
27633SOL    HW187746   7.255   3.830   9.341 -0.2303 -0.3673 -1.3888
27633SOL    HW287747   7.257   3.977   9.305 -1.0246 -0.1269 -0.4765
27634SOL     OW87748   9.008   1.742   8.515 -0.3186 -0.2822 -0.0833
27634SOL    HW187749   9.008   1.646   8.514 -1.2205 -0.3592  2.2955
27634SOL    HW287750   9.020   1.766   8.606  1.4587  1.9487 -0.8081
27635SOL     OW87751   5.002   3.709   2.882 -0.0648 -0.1865  0.0733
27635SOL    HW187752   5.018   3.802   2.898  0.5081 -0.4044  0.8412
27635SOL    HW287753   4.912   3.706   2.849 -0.7815  0.4787  1.8229
27636SOL     OW87754   8.084   6.807   3.209  0.7743  0.4497  0.0262
27636SOL    HW187755   8.094   6.714   3.190  1.6666  0.1072  1.9371
27636SOL    HW287756   8.128   6.819   3.293  0.6217  2.5949 -0.1542
27637SOL     OW87757   2.876   1.634   3.679 -0.5314  0.1527  0.0712
27637SOL    HW187758   2.965   1.649   3.647 -0.7482  0.9636 -0.1613
27637SOL    HW287759   2.873   1.540   3.697  0.0320 -0.0723 -0.9589
27638SOL     OW87760   8.728   9.552   7.854  0.3244 -0.2602 -0.0570
27638SOL    HW187761   8.666   9.499   7.803  1.1311 -1.2000 -0.0794
27638SOL    HW287762   8.736   9.633   7.805 -0.7701 -0.1821 -0.1342
27639SOL     OW87763   7.399   1.644   1.075  0.1484 -0.0157  0.0845
27639SOL    HW187764   7.454   1.716   1.046  1.4878 -1.0952 -0.1652
27639SOL    HW287765   7.458   1.569   1.082 -0.8872 -0.7411  1.8219
27640SOL     OW87766   7.239   7.440   8.151 -0.1654 -0.8120 -0.2760
27640SOL    HW187767   7.181   7.515   8.158  1.0378  0.0080  1.4809
27640SOL    HW287768   7.289   7.456   8.071  0.4201  0.5439  0.3328
27641SOL     OW87769   8.507   7.656   5.383 -0.1260  0.3030  0.3313
27641SOL    HW187770   8.413   7.657   5.404 -0.1411 -0.0747  0.2734
27641SOL    HW287771   8.511   7.626   5.292  0.1802 -1.6710  0.9668
27642SOL     OW87772   9.150   2.695   8.622 -0.3180 -0.1872 -0.0431
27642SOL    HW187773   9.108   2.610   8.619  0.7226 -0.7015 -2.7292
27642SOL    HW287774   9.242   2.678   8.603 -0.4637  1.6278 -3.1971
27643SOL     OW87775   1.921   6.675   1.577  0.1008 -0.0126  0.2598
27643SOL    HW187776   1.885   6.753   1.619  0.1311  0.1134  0.0562
27643SOL    HW287777   2.014   6.677   1.597 -0.2245 -1.1885  2.1338
27644SOL     OW87778   8.682   3.691   4.429  0.0331 -0.0773  0.7243
27644SOL    HW187779   8.764   3.693   4.477 -0.4877 -0.2158  1.6461
27644SOL    HW287780   8.660   3.598   4.423  0.8183 -0.2045 -1.1047
27645SOL     OW87781   5.899   3.391   9.700  0.6834 -0.1484 -0.2122
27645SOL    HW187782   5.829   3.326   9.691  0.6333 -0.1520  0.2075
27645SOL    HW287783   5.872   3.445   9.774  2.3328 -1.6852  1.6189
27646SOL     OW87784   8.655   5.543   3.881 -0.1525  0.2910  0.0804
27646SOL    HW187785   8.625   5.483   3.950  1.1774  0.6567  1.0095
27646SOL    HW287786   8.688   5.619   3.929 -0.0590  0.9433 -1.0125
27647SOL     OW87787   4.916   7.304   4.796  0.0908  0.0807  0.0711
27647SOL    HW187788   5.002   7.266   4.779  0.4227  0.0093  1.7306
27647SOL    HW287789   4.923   7.340   4.884 -1.2829  0.9704 -0.1592
27648SOL     OW87790   7.130   4.518   7.290  0.5632 -0.2974 -0.1447
27648SOL    HW187791   7.081   4.594   7.258 -0.6888 -0.8059  0.4975
27648SOL    HW287792   7.208   4.555   7.332 -0.4678  0.7034  0.9505
27649SOL     OW87793   5.203   7.471   9.296  0.2040  0.6422  0.2222
27649SOL    HW187794   5.230   7.380   9.290 -0.2064  0.6161 -2.6994
27649SOL    HW287795   5.134   7.480   9.231 -0.0868  2.9354  0.7601
27650SOL     OW87796   1.317   7.548   6.400  0.2590  0.4143  0.4887
27650SOL    HW187797   1.330   7.600   6.479  0.6996 -1.0679  1.4304
27650SOL    HW287798   1.226   7.518   6.405  0.2528  0.4137  0.3798
27651SOL     OW87799   2.458   4.678   1.499 -0.4200  0.5009  0.2415
27651SOL    HW187800   2.438   4.722   1.416  2.3800 -0.7765 -1.2460
27651SOL    HW287801   2.518   4.738   1.544  0.7577 -0.2718 -0.2617
27652SOL     OW87802   2.087   1.349   2.131 -0.3471  0.2052 -0.0762
27652SOL    HW187803   2.063   1.259   2.109  1.4747 -0.8300  1.8548
27652SOL    HW287804   2.179   1.356   2.105 -0.3719  1.4123  0.1121
27653SOL     OW87805   8.493   6.470   4.245  0.0481  0.3640  0.0777
27653SOL    HW187806   8.572   6.522   4.253  0.3251  0.0227 -0.3963
27653SOL    HW287807   8.427   6.517   4.296  0.2298  1.2927 -0.5396
27654SOL     OW87808   0.770   7.989   9.424  0.0164 -0.0810  0.5777
27654SOL    HW187809   0.820   7.975   9.343 -1.2269 -2.8942  0.1408
27654SOL    HW287810   0.761   7.901   9.461 -4.5210  0.1175  0.5759
27655SOL     OW87811   7.602   9.644   1.528 -0.1319 -0.7659  0.2308
27655SOL    HW187812   7.695   9.660   1.513  0.3127 -0.4481  2.8541
27655SOL    HW287813   7.564   9.731   1.539 -0.8586 -0.8720 -1.1423
27656SOL     OW87814   8.381   4.440   8.795  0.0720  0.3445  0.0669
27656SOL    HW187815   8.445   4.384   8.751  0.1021  0.8141 -0.5085
27656SOL    HW287816   8.420   4.527   8.792 -0.5728  0.6308 -0.2652
27657SOL     OW87817   4.317   3.282   8.088  0.1100  0.2685 -0.1087
27657SOL    HW187818   4.263   3.308   8.014 -1.9928 -0.0098  1.2652
27657SOL    HW287819   4.293   3.191   8.104  2.6336 -0.6138 -0.7914
27658SOL     OW87820   9.471   2.959   9.511  0.4632  0.2769 -0.7218
27658SOL    HW187821   9.421   2.894   9.561  0.7302  0.7692  0.2245
27658SOL    HW287822   9.517   2.909   9.445 -0.8423 -0.2569 -1.2693
27659SOL     OW87823   4.349   1.275   0.599 -0.1866  0.0969  0.3680
27659SOL    HW187824   4.421   1.338   0.590  0.7370 -0.7456  1.4047
27659SOL    HW287825   4.345   1.231   0.515  1.7765 -1.0896  0.8267
27660SOL     OW87826   6.665   2.693   3.785  0.0542 -0.0663  0.1267
27660SOL    HW187827   6.703   2.653   3.863 -1.1007 -1.0404  0.2288
27660SOL    HW287828   6.714   2.656   3.712  0.2612 -0.1761  0.3212
27661SOL     OW87829   8.106   2.638   7.887 -0.0097 -0.1259  0.2701
27661SOL    HW187830   8.036   2.617   7.824 -0.6388 -0.7020  1.1435
27661SOL    HW287831   8.083   2.725   7.919 -0.4375 -0.3954  0.6999
27662SOL     OW87832   1.358   8.212   3.154 -0.5833  0.1950 -0.1049
27662SOL    HW187833   1.347   8.144   3.221 -0.9524  0.6290  0.2901
27662SOL    HW287834   1.450   8.236   3.159 -0.7430  0.6765  0.7081
27663SOL     OW87835   7.190   4.222   6.630  0.0193 -0.6927  0.7368
27663SOL    HW187836   7.140   4.301   6.609  0.2455 -0.9971 -1.1072
27663SOL    HW287837   7.177   4.165   6.554  2.5935 -1.0445  0.4914
27664SOL     OW87838   2.362   0.986   8.384 -0.1665  0.0871 -0.3907
27664SOL    HW187839   2.439   0.981   8.327 -0.5320  0.2190 -0.9012
27664SOL    HW287840   2.387   1.048   8.453  1.0164 -1.5504  0.7524
27665SOL     OW87841   5.169   7.228   9.539  0.4109 -0.1952 -0.0150
27665SOL    HW187842   5.240   7.228   9.475  0.2180  2.1258 -0.3189
27665SOL    HW287843   5.167   7.138   9.572 -0.0965 -1.7866 -3.8558
27666SOL     OW87844   3.640   2.247   3.471  0.1634  0.1879  0.3386
27666SOL    HW187845   3.721   2.197   3.461 -0.5460 -0.8174 -0.6747
27666SOL    HW287846   3.596   2.207   3.545 -0.1148 -0.2757 -0.0774
27667SOL     OW87847   5.060   2.429   4.883 -0.8908  0.5791 -0.6325
27667SOL    HW187848   5.044   2.517   4.916  0.3076  1.1272 -1.4546
27667SOL    HW287849   5.053   2.373   4.960 -0.2921  1.5588  0.1549
27668SOL     OW87850   8.462   6.227   4.462 -0.2484  0.0479  0.4459
27668SOL    HW187851   8.407   6.173   4.518 -0.6480  0.1339  0.1455
27668SOL    HW287852   8.409   6.241   4.383  0.1373  0.2746  0.2232
27669SOL     OW87853   2.020   1.699   1.220  0.0375 -0.2112  0.3498
27669SOL    HW187854   2.061   1.737   1.298 -0.0299  0.6136  0.0003
27669SOL    HW287855   1.936   1.745   1.213  0.9076  1.2576 -1.3610
27670SOL     OW87856   8.214   5.355   3.399  0.6036  0.5193 -0.2382
27670SOL    HW187857   8.130   5.325   3.366  0.3143  0.5290  0.4634
27670SOL    HW287858   8.278   5.292   3.364  0.0599 -0.7322  0.8882
27671SOL     OW87859   0.343   5.430   0.160 -0.2621 -0.0333 -0.1936
27671SOL    HW187860   0.359   5.525   0.165 -1.5677  0.2941 -1.5726
27671SOL    HW287861   0.296   5.410   0.242  1.2987  0.2009  0.7980
27672SOL     OW87862   5.041   4.225   2.824  0.0843 -0.0519 -1.1007
27672SOL    HW187863   5.008   4.228   2.735  0.0916 -0.7734 -1.1303
27672SOL    HW287864   5.129   4.263   2.818 -0.6401  1.7528 -1.0397
27673SOL     OW87865   1.649   2.303   6.217 -0.7577  0.0052 -0.3540
27673SOL    HW187866   1.572   2.305   6.160 -1.2346  1.0442  0.2989
27673SOL    HW287867   1.613   2.305   6.306  0.0279  0.7069 -0.0411
27674SOL     OW87868   4.679   1.102   5.252 -0.1087 -0.3407  0.2844
27674SOL    HW187869   4.728   1.021   5.257  1.5156  0.6251  0.6992
27674SOL    HW287870   4.587   1.075   5.252  0.3552 -2.1088  1.8414
27675SOL     OW87871   6.988   8.470   7.092 -0.3363 -0.0470 -0.0675
27675SOL    HW187872   6.933   8.465   7.014 -1.9046  2.4680  0.7411
27675SOL    HW287873   6.978   8.384   7.133 -1.3378 -0.6346 -1.4673
27676SOL     OW87874   6.959   1.617   8.326  0.0224 -0.6030 -0.1314
27676SOL    HW187875   6.972   1.558   8.252 -0.7886 -0.2299 -0.5811
27676SOL    HW287876   7.040   1.668   8.331  0.3080 -1.0245 -0.3969
27677SOL     OW87877   6.138   1.317   0.716 -0.3431 -0.5904 -0.3724
27677SOL    HW187878   6.142   1.386   0.650 -0.7266 -1.3975 -1.2664
27677SOL    HW287879   6.214   1.332   0.772  0.0675  0.0336 -1.0842
27678SOL     OW87880   0.319   4.512   8.933 -0.3896  0.1937  0.0147
27678SOL    HW187881   0.241   4.552   8.973 -0.2935  0.4334 -0.0323
27678SOL    HW287882   0.303   4.519   8.839  0.1926  1.2793 -0.0175
27679SOL     OW87883   2.268   3.863   7.836  0.2684  0.1865 -0.2222
27679SOL    HW187884   2.320   3.906   7.769 -0.5228  0.9339 -0.3721
27679SOL    HW287885   2.246   3.778   7.799  1.5367 -0.2312 -0.0714
27680SOL     OW87886   1.580   4.818   3.884 -0.1553  0.5916  0.2677
27680SOL    HW187887   1.563   4.736   3.838  0.0109  0.0794  1.1087
27680SOL    HW287888   1.495   4.863   3.884  0.1932  1.3638 -1.9693
27681SOL     OW87889   7.553   8.725   7.599 -0.1072  0.2990 -0.3581
27681SOL    HW187890   7.553   8.630   7.586 -0.2762  0.2084  0.2687
27681SOL    HW287891   7.517   8.737   7.687  0.4983  0.9095 -0.1871
27682SOL     OW87892   8.628   7.010   6.821 -0.5553  0.0639 -0.0147
27682SOL    HW187893   8.628   6.979   6.731  0.1636  0.7693 -0.2603
27682SOL    HW287894   8.618   7.105   6.815  1.8239  0.4072  0.5132
27683SOL     OW87895   7.209   4.904   2.284  0.2306  0.3987 -0.4059
27683SOL    HW187896   7.120   4.913   2.251 -0.7855 -1.0722  1.7168
27683SOL    HW287897   7.215   4.813   2.314  3.1464 -0.1666 -2.3375
27684SOL     OW87898   2.876   4.926   2.480 -0.4705  0.2805  0.1982
27684SOL    HW187899   2.911   4.853   2.429 -2.1504 -2.2818  2.4302
27684SOL    HW287900   2.784   4.931   2.454 -0.3003  1.9573 -0.2095
27685SOL     OW87901   9.199   8.638   1.502  0.0176 -0.0692  0.3765
27685SOL    HW187902   9.226   8.555   1.542 -2.1855  0.1352  2.5786
27685SOL    HW287903   9.202   8.622   1.408 -0.0857 -2.5716  0.7285
27686SOL     OW87904   7.936   0.029   3.191 -0.9379  0.0305  0.2270
27686SOL    HW187905   7.962   0.070   3.108 -3.4506 -0.4022 -0.8626
27686SOL    HW287906   7.840   0.024   3.186 -1.1811  0.1117  3.2439
27687SOL     OW87907   6.422   7.083   3.171  0.1686  0.2963  0.2298
27687SOL    HW187908   6.432   7.018   3.240  3.0290 -1.3275 -1.5380
27687SOL    HW287909   6.384   7.035   3.098 -1.8094  1.7463  0.2055
27688SOL     OW87910   8.576   6.717   4.553  0.2186 -0.0589 -0.0030
27688SOL    HW187911   8.578   6.782   4.483 -1.3511 -0.4140 -0.4129
27688SOL    HW287912   8.549   6.766   4.630  1.3462  0.2088  0.2480
27689SOL     OW87913   5.613   0.493   2.033  0.3620 -0.0645  0.7421
27689SOL    HW187914   5.544   0.464   2.093  0.2828  0.3042  0.8360
27689SOL    HW287915   5.666   0.415   2.017 -1.4104 -0.9361 -1.1892
27690SOL     OW87916   4.326   3.866   2.351  0.1071  0.2117 -0.4649
27690SOL    HW187917   4.379   3.817   2.288  0.3170  1.0681 -0.9738
27690SOL    HW287918   4.353   3.958   2.339 -0.2091  0.4456  0.5252
27691SOL     OW87919   8.312   2.377   6.320 -0.2739  0.2724 -0.0688
27691SOL    HW187920   8.400   2.404   6.342 -0.3430 -0.5686  1.3716
27691SOL    HW287921   8.278   2.447   6.264  0.4966  1.7617  1.2399
27692SOL     OW87922   3.363   5.626   3.655 -0.1792 -0.3500  0.0460
27692SOL    HW187923   3.352   5.621   3.750 -0.4275  1.8345  0.1822
27692SOL    HW287924   3.409   5.709   3.640 -3.5455  1.3585 -1.9299
27693SOL     OW87925   8.657   2.560   1.861 -0.3994  0.1979 -0.3332
27693SOL    HW187926   8.668   2.651   1.836  0.1328 -0.5113 -2.9610
27693SOL    HW287927   8.572   2.534   1.823 -0.1412 -0.6209 -0.3760
27694SOL     OW87928   3.866   0.326   5.898  0.8454  0.1865 -0.0575
27694SOL    HW187929   3.855   0.407   5.849  1.2544 -0.1024 -0.6405
27694SOL    HW287930   3.960   0.321   5.916  0.8196 -0.1362 -0.0040
27695SOL     OW87931   2.453   5.857   0.051 -0.5100  1.0254  0.1396
27695SOL    HW187932   2.369   5.861   0.005  0.9340 -0.5695 -2.9576
27695SOL    HW287933   2.500   5.935   0.023 -0.5596  1.3855  1.0371
27696SOL     OW87934   1.652   8.523   2.137 -0.0772  0.4633 -0.1399
27696SOL    HW187935   1.730   8.475   2.167 -0.8115 -1.4228 -1.0876
27696SOL    HW287936   1.591   8.518   2.210 -0.3603 -0.5967 -0.4328
27697SOL     OW87937   8.924   1.947   7.036  0.2076 -0.0213  0.4473
27697SOL    HW187938   8.944   1.983   6.949 -0.1938  0.5972  0.6037
27697SOL    HW287939   9.009   1.931   7.076  0.4037 -0.8221 -0.2644
27698SOL     OW87940   5.563   4.417   3.846 -0.2717  0.2824  0.1046
27698SOL    HW187941   5.619   4.340   3.841  1.4699  1.2807  2.3472
27698SOL    HW287942   5.487   4.389   3.897 -0.0503 -0.1318  0.2053
27699SOL     OW87943   2.560   8.973   4.580  0.2645 -0.0007 -0.2954
27699SOL    HW187944   2.496   9.014   4.522  0.8059 -0.0961 -0.9691
27699SOL    HW287945   2.553   9.023   4.662  0.0932  0.6787 -0.7181
27700SOL     OW87946   4.529   6.012   2.400 -0.3581  0.3484 -0.0939
27700SOL    HW187947   4.564   6.010   2.312  1.1985  0.9159  0.4791
27700SOL    HW287948   4.528   5.921   2.428 -1.6570  0.0633 -0.9580
27701SOL     OW87949   6.629   7.535   5.458  0.4541 -0.4044 -0.1588
27701SOL    HW187950   6.648   7.514   5.549  2.8760 -1.2389 -0.7983
27701SOL    HW287951   6.539   7.505   5.445  0.4052 -1.1662  1.6883
27702SOL     OW87952   1.512   0.836   3.939  0.4720  0.7767  0.1311
27702SOL    HW187953   1.419   0.835   3.960  0.1840  1.9459 -1.0455
27702SOL    HW287954   1.552   0.784   4.009 -0.8480  1.7086  1.6432
27703SOL     OW87955   7.486   4.332   5.659 -0.3936 -0.3243  0.3640
27703SOL    HW187956   7.573   4.297   5.679  0.9899  1.0124 -2.7372
27703SOL    HW287957   7.503   4.416   5.616 -3.1685 -0.3557 -1.0022
27704SOL     OW87958   9.352   5.641   0.307  0.2001  0.5380 -0.9689
27704SOL    HW187959   9.267   5.599   0.298  0.0990  0.5868 -0.2904
27704SOL    HW287960   9.408   5.573   0.345 -0.1161  1.1737  0.6997
27705SOL     OW87961   8.572   0.528   8.154  0.1712 -0.1456  0.0314
27705SOL    HW187962   8.527   0.538   8.238  0.2686 -2.1392  0.3769
27705SOL    HW287963   8.656   0.574   8.167 -1.7415  4.0165 -0.7903
27706SOL     OW87964   0.934   5.642   5.613 -0.3021  0.4824 -0.3593
27706SOL    HW187965   0.922   5.553   5.578  0.2711  0.2345  0.0650
27706SOL    HW287966   0.868   5.694   5.568 -2.4080 -0.6447  1.2508
27707SOL     OW87967   7.238   3.910   6.561 -0.2079  0.6121  0.4259
27707SOL    HW187968   7.142   3.910   6.566 -0.2924 -0.8911 -0.5460
27707SOL    HW287969   7.258   3.964   6.484 -0.4531 -1.3231 -1.0603
27708SOL     OW87970   0.201   5.747   4.545  0.2851  0.2815  0.2155
27708SOL    HW187971   0.127   5.751   4.606  0.9267 -0.5412  1.0600
27708SOL    HW287972   0.183   5.670   4.491 -0.9904  1.7673 -1.6174
27709SOL     OW87973   1.263   4.742   2.858 -0.0070 -0.2303  0.1722
27709SOL    HW187974   1.200   4.808   2.830 -0.6368 -0.7649  0.3156
27709SOL    HW287975   1.323   4.789   2.916 -0.1536  0.3218 -0.1159
27710SOL     OW87976   9.619   6.779   6.814 -0.3857 -0.1392  0.8062
27710SOL    HW187977   9.707   6.813   6.825 -0.5669  0.9842 -0.8708
27710SOL    HW287978   9.618   6.744   6.724 -1.5241 -0.5200  0.9507
27711SOL     OW87979   0.176   6.083   4.601  0.2723 -0.4205  0.5318
27711SOL    HW187980   0.245   6.076   4.535 -1.2773 -1.5983 -1.0325
27711SOL    HW287981   0.181   6.001   4.650 -0.0109 -0.5082  0.4162
27712SOL     OW87982   4.040   5.602   5.347  0.8068 -0.0002  0.3447
27712SOL    HW187983   3.987   5.671   5.309  0.4579  0.8810  2.2864
27712SOL    HW287984   4.127   5.640   5.356  0.2908  0.8376  2.7671
27713SOL     OW87985   6.254   2.394   6.221  0.3373 -0.0622 -0.1885
27713SOL    HW187986   6.177   2.395   6.277 -2.0302  0.7987 -3.1475
27713SOL    HW287987   6.273   2.301   6.207 -1.5392 -0.3708 -1.0114
27714SOL     OW87988   8.586   3.209   1.467  0.3760 -0.3832  0.4188
27714SOL    HW187989   8.514   3.208   1.404 -0.1679 -0.8866  1.0354
27714SOL    HW287990   8.663   3.230   1.415 -0.2649  0.5153 -0.2049
27715SOL     OW87991   8.089   4.761   6.353  0.0734 -0.4483  0.2245
27715SOL    HW187992   8.108   4.678   6.310 -0.0404 -0.2159 -0.2784
27715SOL    HW287993   7.996   4.778   6.335 -0.2051 -0.7607  1.2714
27716SOL     OW87994   9.669   4.083   1.814  0.8228 -0.2355  0.1699
27716SOL    HW187995   9.659   4.171   1.850  1.1938  0.0163 -0.3210
27716SOL    HW287996   9.709   4.097   1.728 -1.1467 -0.7379 -0.8800
27717SOL     OW87997   6.029   0.490   3.438  0.3717 -0.2685  0.0207
27717SOL    HW187998   6.013   0.397   3.426  0.4964 -0.4295  1.0304
27717SOL    HW287999   6.074   0.496   3.522 -0.3762  0.7828  0.3573
27718SOL     OW88000   7.715   6.484   1.415 -0.0388  0.5252  0.5583
27718SOL    HW188001   7.753   6.557   1.463  2.0376 -0.2842  0.2443
27718SOL    HW288002   7.641   6.523   1.367  0.2861  2.1458  1.2968
27719SOL     OW88003   0.944   8.708   0.474  0.2047  0.5132 -0.5158
27719SOL    HW188004   1.017   8.681   0.419  3.1729  1.7209  2.4319
27719SOL    HW288005   0.912   8.626   0.513  1.4119  0.1193 -0.3040
27720SOL     OW88006   9.166   3.252   5.816  0.3344  0.0530  0.2326
27720SOL    HW188007   9.165   3.298   5.900  0.3297 -0.0155  0.2700
27720SOL    HW288008   9.101   3.297   5.763 -0.7839 -0.8498  0.7721
27721SOL     OW88009   6.110   3.534   5.434  0.4084  0.3763 -0.5870
27721SOL    HW188010   6.141   3.544   5.344 -0.7542 -1.1251 -1.1848
27721SOL    HW288011   6.179   3.483   5.476  1.1257  1.3794 -0.4887
27722SOL     OW88012   8.994   8.692   4.599  0.5252 -0.5292 -0.4623
27722SOL    HW188013   9.074   8.644   4.577  0.5685 -1.2460  1.1767
27722SOL    HW288014   9.005   8.716   4.691 -0.4409  0.7914 -0.6660
27723SOL     OW88015   4.995   0.933   8.241 -0.6336 -0.2434  0.3341
27723SOL    HW188016   5.023   0.969   8.157 -1.0400 -1.3944 -0.3129
27723SOL    HW288017   4.915   0.982   8.262 -0.3959  0.2167  0.1769
27724SOL     OW88018   3.133   6.252   2.255 -0.2594  0.0105  0.2539
27724SOL    HW188019   3.114   6.250   2.162 -0.8128 -0.1815  0.3670
27724SOL    HW288020   3.144   6.345   2.275 -0.3024  0.0641  0.0258
27725SOL     OW88021   1.633   3.230   4.344  0.0215 -0.2220  0.6511
27725SOL    HW188022   1.563   3.287   4.374  0.3627  0.2235  0.6155
27725SOL    HW288023   1.624   3.229   4.249  1.4560  1.7164  0.4301
27726SOL     OW88024   9.046   2.423   3.544 -0.0188  0.7168  0.0491
27726SOL    HW188025   9.138   2.406   3.563  0.5656  2.5282 -0.9262
27726SOL    HW288026   9.041   2.518   3.530 -2.3153  0.8947  1.4888
27727SOL     OW88027   5.054   7.843   5.916  0.6852 -0.4407 -0.6061
27727SOL    HW188028   5.101   7.850   5.833 -0.7204 -0.8789 -1.4702
27727SOL    HW288029   5.041   7.749   5.929  0.9897 -0.3827  0.1729
27728SOL     OW88030   8.732   1.261   1.886 -0.0945 -0.3599  0.4163
27728SOL    HW188031   8.680   1.228   1.959  0.3157 -0.9156  0.4601
27728SOL    HW288032   8.725   1.193   1.818 -1.4592  0.6752 -0.5458
27729SOL     OW88033   5.134   3.070   4.085 -0.0436  0.0556 -0.5744
27729SOL    HW188034   5.140   3.079   4.180  2.2982 -3.2366 -0.2803
27729SOL    HW288035   5.188   3.141   4.051  0.0446  0.5637  0.5770
27730SOL     OW88036   9.146   2.094   3.619 -0.1539 -0.6337  0.0544
27730SOL    HW188037   9.070   2.107   3.563  1.1465  0.1143 -1.6115
27730SOL    HW288038   9.196   2.176   3.612  0.5902 -0.9232  1.4863
27731SOL     OW88039   3.314   5.495   4.270  0.1245  0.2962  0.1407
27731SOL    HW188040   3.329   5.452   4.355 -1.0692  0.6589  0.5601
27731SOL    HW288041   3.350   5.582   4.280 -0.7727  0.6298  0.5921
27732SOL     OW88042   4.650   5.640   4.596 -0.7071  0.4543  0.3095
27732SOL    HW188043   4.655   5.583   4.519 -2.9801  1.3077 -0.5507
27732SOL    HW288044   4.648   5.579   4.670  2.1140 -0.3724 -0.1539
27733SOL     OW88045   6.001   9.492   1.820 -0.1868  0.1753 -0.4074
27733SOL    HW188046   5.956   9.421   1.774  0.3264 -0.4714  0.0678
27733SOL    HW288047   6.015   9.559   1.754  1.4555 -1.1540 -1.4688
27734SOL     OW88048   5.909   7.676   4.688  0.1979  0.3692  0.4562
27734SOL    HW188049   5.968   7.650   4.617  1.7041 -1.9728  2.3737
27734SOL    HW288050   5.836   7.720   4.645  0.8965 -1.1595 -2.5378
27735SOL     OW88051   4.267   5.894   8.293 -0.5058 -0.0647 -0.3507
27735SOL    HW188052   4.248   5.954   8.365  1.5997 -1.1128  1.1887
27735SOL    HW288053   4.319   5.946   8.232  0.6812 -0.0561  0.6195
27736SOL     OW88054   5.469   1.441   5.738 -0.3380  0.4443 -0.0328
27736SOL    HW188055   5.541   1.409   5.793 -1.5356 -0.2901  1.1573
27736SOL    HW288056   5.503   1.523   5.701  1.9623 -0.9898 -1.3764
27737SOL     OW88057   2.785   0.126   3.233 -0.4111  0.4156  0.0159
27737SOL    HW188058   2.815   0.206   3.275 -1.0260  0.2557  0.7728
27737SOL    HW288059   2.697   0.147   3.201  0.1526  0.6300 -1.4843
27738SOL     OW88060   9.171   6.162   4.493  0.3406 -0.1600  0.7681
27738SOL    HW188061   9.213   6.193   4.574  0.7940 -0.7168  0.7576
27738SOL    HW288062   9.227   6.090   4.464  0.6865  0.5872 -0.5227
27739SOL     OW88063   2.416   7.720   0.819  0.5030 -0.2061  0.1162
27739SOL    HW188064   2.384   7.805   0.788 -2.4414 -0.2228  2.6370
27739SOL    HW288065   2.450   7.738   0.907  1.3218 -1.3905  0.0589
27740SOL     OW88066   9.637   7.638   2.966 -0.3169 -1.1840  0.2114
27740SOL    HW188067   9.640   7.706   2.899  1.2008 -0.9705  0.4675
27740SOL    HW288068   9.544   7.625   2.983 -0.6507  1.7961  1.1441
27741SOL     OW88069   5.131   1.104   0.483  0.0795  0.1037 -0.4490
27741SOL    HW188070   5.044   1.143   0.483  1.0164  2.4209  1.2707
27741SOL    HW288071   5.180   1.154   0.418  1.1438  1.5492  1.3772
27742SOL     OW88072   6.075   1.752   6.242 -0.2818 -0.0630  0.3290
27742SOL    HW188073   6.114   1.702   6.170  0.8531  1.5160 -0.2234
27742SOL    HW288074   6.145   1.811   6.271 -1.8405  1.9984  0.1495
27743SOL     OW88075   5.655   5.749   7.484 -0.1954  0.3403  0.7640
27743SOL    HW188076   5.665   5.659   7.451 -2.2699  0.8619 -1.5946
27743SOL    HW288077   5.707   5.802   7.424  0.2478  0.8531  1.5780
27744SOL     OW88078   1.081   1.712   9.115  0.4002  0.3663 -0.7165
27744SOL    HW188079   1.052   1.637   9.167  0.2684  0.6251 -0.4096
27744SOL    HW288080   1.026   1.710   9.037  0.8818 -0.2677 -1.0433
27745SOL     OW88081   7.764   6.930   4.092  0.1034  0.2198 -0.4831
27745SOL    HW188082   7.671   6.921   4.113  0.0135 -1.0642 -1.2854
27745SOL    HW288083   7.779   7.024   4.091 -1.9020  0.6346 -3.1947
27746SOL     OW88084   2.853   7.726   1.043  0.2449  0.0871  0.2894
27746SOL    HW188085   2.819   7.653   1.095  1.2470  1.5146  3.2104
27746SOL    HW288086   2.914   7.686   0.981  0.2771 -1.6133  1.3745
27747SOL     OW88087   1.061   1.124   6.243 -0.1347 -0.2318 -0.1405
27747SOL    HW188088   1.022   1.069   6.311 -0.2117  1.0695  0.9115
27747SOL    HW288089   1.151   1.138   6.272  0.3679 -1.0669 -1.2180
27748SOL     OW88090   0.903   7.748   4.359 -0.7639  0.1684  0.3632
27748SOL    HW188091   0.957   7.700   4.296 -1.1317 -1.8688  1.5020
27748SOL    HW288092   0.815   7.747   4.322 -0.3357  2.4463 -0.9144
27749SOL     OW88093   2.313   5.915   1.597  0.9303  0.5689  0.4426
27749SOL    HW188094   2.408   5.909   1.591  0.7856 -0.8204 -1.0841
27749SOL    HW288095   2.288   5.851   1.663  1.0529  0.9581  0.8672
27750SOL     OW88096   4.372   4.644   0.413  0.1877 -0.0093  0.0072
27750SOL    HW188097   4.301   4.641   0.349  0.3797  0.0094 -0.2099
27750SOL    HW288098   4.449   4.612   0.365 -0.3473 -3.3847  1.1388
27751SOL     OW88099   1.148   2.111   6.648 -0.2947  0.0440  0.5277
27751SOL    HW188100   1.076   2.051   6.669  1.2829 -2.0226  0.3859
27751SOL    HW288101   1.140   2.126   6.554  0.1548 -1.2158  0.2678
27752SOL     OW88102   4.317   3.580   9.616  0.2235 -0.0849 -0.0064
27752SOL    HW188103   4.299   3.661   9.570 -2.8273 -0.7029 -0.1397
27752SOL    HW288104   4.380   3.534   9.561  0.5301  1.3505 -0.9049
27753SOL     OW88105   6.250   8.318   8.795 -0.2298 -0.1110 -0.3550
27753SOL    HW188106   6.200   8.262   8.736  1.0573 -1.6039 -0.1101
27753SOL    HW288107   6.288   8.257   8.859 -0.7959  1.3353  1.4698
27754SOL     OW88108   5.116   3.905   4.240  0.4678 -0.4618  0.5309
27754SOL    HW188109   5.103   3.839   4.308 -2.7681 -0.0649  0.4235
27754SOL    HW288110   5.163   3.976   4.284 -0.3803 -0.7671  1.9864
27755SOL     OW88111   5.558   3.227   0.523  0.0716  0.1119  0.1786
27755SOL    HW188112   5.584   3.288   0.592  4.7343 -1.7912  0.4456
27755SOL    HW288113   5.539   3.146   0.569  1.2240 -0.6151 -0.5824
27756SOL     OW88114   6.547   1.650   9.261  0.2537  0.1204 -0.2824
27756SOL    HW188115   6.616   1.708   9.294  1.3190 -1.1432 -0.2164
27756SOL    HW288116   6.590   1.596   9.195 -0.4099 -1.3501  0.4269
27757SOL     OW88117   0.152   9.660   7.824  0.6680  0.7931 -0.2881
27757SOL    HW188118   0.186   9.594   7.885 -0.5055 -0.9482 -1.4088
27757SOL    HW288119   0.143   9.613   7.741 -1.2444  2.0713 -0.8669
27758SOL     OW88120   3.470   7.274   5.793  0.2364  0.0347  0.0495
27758SOL    HW188121   3.384   7.234   5.780  0.2302 -0.0207  0.2528
27758SOL    HW288122   3.474   7.343   5.727  0.4574 -0.6302 -0.6502
27759SOL     OW88123   2.523   6.765   0.271  0.3289  0.4053  0.5762
27759SOL    HW188124   2.515   6.670   0.285  0.5649 -0.1730 -2.5521
27759SOL    HW288125   2.436   6.799   0.291  0.0100 -0.5906  0.9778
27760SOL     OW88126   1.029   7.173   9.329 -0.4055  0.4928  0.7566
27760SOL    HW188127   0.962   7.114   9.364  0.1617 -0.4716  0.2259
27760SOL    HW288128   1.092   7.183   9.401  1.1816 -2.1253 -0.1460
27761SOL     OW88129   2.352   4.214   2.079 -0.3510  0.0519  0.3244
27761SOL    HW188130   2.374   4.124   2.102  3.4186  0.9896  1.1400
27761SOL    HW288131   2.347   4.259   2.163 -2.9537  0.5356 -0.0328
27762SOL     OW88132   3.406   3.696   3.909  0.2177  0.4935  0.0355
27762SOL    HW188133   3.406   3.703   3.813 -1.1655 -0.6738 -0.0688
27762SOL    HW288134   3.479   3.753   3.936 -1.0719  3.0848 -1.5224
27763SOL     OW88135   2.428   8.647   5.174  0.4220  0.1534 -0.8929
27763SOL    HW188136   2.461   8.737   5.170  2.1778 -0.4086 -0.0170
27763SOL    HW288137   2.481   8.598   5.112  0.4067 -0.5395 -0.3821
27764SOL     OW88138   9.348   4.602   2.558 -0.4495 -0.5130 -0.5121
27764SOL    HW188139   9.384   4.608   2.646 -0.3555  1.9682 -0.6678
27764SOL    HW288140   9.279   4.536   2.564 -0.9201  0.1143  1.5860
27765SOL     OW88141   2.561   6.967   4.799 -0.1185 -0.7511  0.0488
27765SOL    HW188142   2.648   6.990   4.831  0.1639  0.8378 -1.6874
27765SOL    HW288143   2.568   6.874   4.775  1.6460 -0.2740 -1.5652
27766SOL     OW88144   0.589   6.201   7.682  0.1751 -0.4763  0.2824
27766SOL    HW188145   0.610   6.156   7.763  0.6619  0.6941  0.8161
27766SOL    HW288146   0.493   6.199   7.678  0.1339 -0.1992  1.0756
27767SOL     OW88147   4.789   6.568   6.390 -0.0997 -0.0089  0.0454
27767SOL    HW188148   4.749   6.484   6.370  1.3359 -1.3523  2.3023
27767SOL    HW288149   4.883   6.550   6.393  0.2918  1.8022  0.1082
27768SOL     OW88150   4.649   4.491   6.544  0.0129 -0.0884 -0.0328
27768SOL    HW188151   4.705   4.539   6.605 -0.7105 -1.6354  1.9592
27768SOL    HW288152   4.708   4.459   6.477  0.8827  1.4228 -0.0305
27769SOL     OW88153   4.309   2.872   2.869  0.2476 -0.2691 -0.0715
27769SOL    HW188154   4.309   2.776   2.867  2.1596 -0.3152  0.1209
27769SOL    HW288155   4.256   2.894   2.945 -2.2451 -1.0492 -1.4705
27770SOL     OW88156   0.022   1.034   3.356  0.1273  0.4571 -0.0871
27770SOL    HW188157   0.089   1.012   3.420  0.9134  0.2073 -0.9736
27770SOL    HW288158  -0.007   0.949   3.322 -0.3066  0.5873 -0.0486
27771SOL     OW88159   6.742   3.212   5.011  0.0860  0.2383 -0.1516
27771SOL    HW188160   6.783   3.282   5.062  0.3857  0.4275 -0.6457
27771SOL    HW288161   6.792   3.133   5.033 -0.3226  0.1551  0.4910
27772SOL     OW88162   8.840   3.290   2.567 -0.2627 -0.6064  0.4338
27772SOL    HW188163   8.757   3.250   2.595 -0.1673 -1.0323  0.1080
27772SOL    HW288164   8.900   3.273   2.639 -0.6432  0.3355  1.0012
27773SOL     OW88165   3.252   4.860   7.692 -0.5763  0.2455 -0.7050
27773SOL    HW188166   3.194   4.796   7.652  0.6878 -0.4020 -1.5630
27773SOL    HW288167   3.301   4.810   7.757 -1.3323  0.9022  0.4052
27774SOL     OW88168   6.530   7.958   3.460 -0.1485 -0.1311  0.5661
27774SOL    HW188169   6.447   8.002   3.446  0.8488  1.8182  0.4873
27774SOL    HW288170   6.509   7.885   3.518 -1.9015  0.2622  0.4784
27775SOL     OW88171   1.050   3.466   4.670  1.0541 -0.3039 -0.2518
27775SOL    HW188172   1.134   3.512   4.673  0.7606  0.3457  3.0969
27775SOL    HW288173   1.042   3.426   4.757 -2.1960 -0.0826 -0.3150
27776SOL     OW88174   1.943   9.311   0.915 -0.2247 -0.4882 -0.1767
27776SOL    HW188175   1.963   9.256   0.990  1.5236  0.0608 -0.2118
27776SOL    HW288176   1.984   9.268   0.840  1.1583  0.8061 -0.2082
27777SOL     OW88177   4.813   8.950   0.684 -0.0587 -0.0600  0.3814
27777SOL    HW188178   4.765   9.008   0.742  1.0293 -0.8568  2.1712
27777SOL    HW288179   4.905   8.963   0.709  0.4576 -0.3308 -1.2834
27778SOL     OW88180   5.926   9.295   3.303  0.5856  0.1853 -0.5305
27778SOL    HW188181   5.900   9.221   3.248  1.8856  1.0005 -2.3675
27778SOL    HW288182   5.998   9.336   3.255 -0.5242  3.0449  0.0516
27779SOL     OW88183   1.342   3.861   0.213 -0.3883  0.3280  0.1122
27779SOL    HW188184   1.293   3.783   0.188  2.4798 -1.4611 -0.4450
27779SOL    HW288185   1.387   3.888   0.133  2.9446 -0.8959  1.3680
27780SOL     OW88186   3.977   5.119   0.809 -0.4217  0.1593 -0.5880
27780SOL    HW188187   4.050   5.092   0.753 -1.0336  1.1434 -1.9096
27780SOL    HW288188   3.930   5.038   0.828  1.4424 -0.6473  1.0191
27781SOL     OW88189   3.215   4.589   3.346  0.3140 -0.1124 -0.2364
27781SOL    HW188190   3.195   4.682   3.358 -0.9546 -0.2205 -1.3256
27781SOL    HW288191   3.263   4.585   3.264 -1.1735 -0.5818 -1.1132
27782SOL     OW88192   3.784   3.982   6.074 -0.2429 -0.4976 -0.0104
27782SOL    HW188193   3.805   4.063   6.121 -0.9300 -0.8614  0.9789
27782SOL    HW288194   3.837   3.915   6.117  0.1802 -0.6115 -0.6981
27783SOL     OW88195   9.187   0.564   4.002 -0.4081 -0.9978  0.2108
27783SOL    HW188196   9.205   0.658   4.009  1.5104 -1.4057  1.6256
27783SOL    HW288197   9.131   0.545   4.076  0.9385 -1.2919  1.1942
27784SOL     OW88198   6.125   8.900   4.695 -0.3202 -0.0621 -0.1030
27784SOL    HW188199   6.125   8.922   4.789 -2.1142 -0.8705  0.1346
27784SOL    HW288200   6.132   8.805   4.693 -0.1264 -0.0353 -0.8088
27785SOL     OW88201   4.575   4.112   5.551  0.0811 -0.0162 -0.4865
27785SOL    HW188202   4.604   4.120   5.460 -2.3407 -3.6157 -1.8153
27785SOL    HW288203   4.641   4.055   5.592 -0.0825 -0.3856 -0.7293
27786SOL     OW88204   5.380   8.678   8.756  0.2997  0.0736 -0.2320
27786SOL    HW188205   5.401   8.715   8.842  1.2475  2.9563 -1.5736
27786SOL    HW288206   5.285   8.669   8.756  0.3874 -1.5109  1.6183
27787SOL     OW88207   3.238   9.452   3.074  0.2292 -0.0181  0.5563
27787SOL    HW188208   3.145   9.457   3.093  0.4413  0.9390  1.4299
27787SOL    HW288209   3.251   9.509   2.998  0.3342  1.1623  1.4323
27788SOL     OW88210   5.268   8.683   6.269 -0.1354 -0.0503  0.0122
27788SOL    HW188211   5.215   8.639   6.203 -2.0616  0.6172  1.0383
27788SOL    HW288212   5.304   8.759   6.223 -0.4760 -0.2477 -0.5934
27789SOL     OW88213   3.571   2.489   0.795  0.6132 -0.8427 -0.7415
27789SOL    HW188214   3.485   2.479   0.835 -0.5725  0.4339 -2.8186
27789SOL    HW288215   3.620   2.543   0.857 -0.6387 -0.1940 -0.2766
27790SOL     OW88216   3.104   1.228   2.920  0.9405 -0.1588  0.2061
27790SOL    HW188217   3.071   1.149   2.877 -0.3106  0.8052 -0.6805
27790SOL    HW288218   3.049   1.239   2.997  1.5601 -0.5075  0.7097
27791SOL     OW88219   4.563   7.610   7.281 -0.4050 -0.1272  0.2014
27791SOL    HW188220   4.491   7.589   7.222 -0.9266 -0.6128  0.9930
27791SOL    HW288221   4.613   7.677   7.235 -0.4791 -0.9040 -1.0292
27792SOL     OW88222   8.420   0.944   0.280  0.2462 -0.2381  0.5333
27792SOL    HW188223   8.500   0.995   0.266 -0.0458  0.1015  0.0637
27792SOL    HW288224   8.432   0.903   0.365  0.3752  0.8287  1.0448
27793SOL     OW88225   5.940   9.074   8.691 -0.2729 -0.0141 -0.0728
27793SOL    HW188226   5.902   9.159   8.669  1.7615  0.6603 -1.1796
27793SOL    HW288227   5.904   9.014   8.625 -0.2217  0.3862 -0.4684
27794SOL     OW88228   6.566   9.540   0.657  0.2001 -0.6780  0.9727
27794SOL    HW188229   6.637   9.596   0.687  0.3637 -1.4545  2.1059
27794SOL    HW288230   6.563   9.469   0.721 -1.0614 -1.0921  0.4855
27795SOL     OW88231   8.589   6.194   8.460 -0.2067 -0.5675  0.0311
27795SOL    HW188232   8.562   6.270   8.512 -0.4160 -0.1015 -0.7529
27795SOL    HW288233   8.507   6.156   8.430 -0.1480 -1.6246  1.1264
27796SOL     OW88234   7.170   6.301   1.884  0.3967  0.0556 -0.1391
27796SOL    HW188235   7.137   6.235   1.944  0.4196 -0.1233 -0.3241
27796SOL    HW288236   7.108   6.301   1.811  0.1236  0.5806  0.0858
27797SOL     OW88237   3.783   6.905   8.916  0.2647 -0.8518 -0.2066
27797SOL    HW188238   3.702   6.956   8.906 -1.2822 -3.2212 -0.6432
27797SOL    HW288239   3.755   6.825   8.961  2.5236 -1.4866  0.1825
27798SOL     OW88240   1.762   2.896   9.453  0.4163 -0.3514 -0.1924
27798SOL    HW188241   1.748   2.811   9.410  0.9025  0.6786 -2.5960
27798SOL    HW288242   1.857   2.903   9.461  0.3215 -0.9084  2.0489
27799SOL     OW88243   0.165   8.794   7.762  0.0237  0.1960  0.1209
27799SOL    HW188244   0.071   8.813   7.768 -0.1003 -0.5312  0.6266
27799SOL    HW288245   0.208   8.875   7.791 -0.3620  1.5695 -2.8290
27800SOL     OW88246   0.967   9.228   7.706  0.5308  0.0461  0.8118
27800SOL    HW188247   0.945   9.320   7.695  3.6818  0.8137 -0.0788
27800SOL    HW288248   0.940   9.207   7.796 -1.5927  1.3523  0.5203
27801SOL     OW88249   1.643   6.608   8.049 -0.6731  0.0805  0.2585
27801SOL    HW188250   1.668   6.691   8.008 -0.4664 -0.8679 -1.6709
27801SOL    HW288251   1.581   6.569   7.987 -1.9787 -0.5388  1.8754
27802SOL     OW88252   5.930   3.304   7.943 -1.0136 -0.2140  0.1743
27802SOL    HW188253   5.895   3.341   8.025 -1.8973  0.3127 -0.4254
27802SOL    HW288254   5.915   3.210   7.951  2.1319 -0.6961  2.1516
27803SOL     OW88255   3.610   6.497   4.403  0.0550 -0.2189  0.1577
27803SOL    HW188256   3.594   6.554   4.477 -2.2479  1.4300 -1.4543
27803SOL    HW288257   3.645   6.555   4.335 -1.2325 -0.9140 -1.1505
27804SOL     OW88258   5.606   0.236   6.540  0.1984  0.2003 -0.1726
27804SOL    HW188259   5.601   0.234   6.636  0.3197  1.6059 -0.1086
27804SOL    HW288260   5.693   0.271   6.522 -0.3889  1.4269 -0.7496
27805SOL     OW88261   1.570   5.055   4.766 -0.8528 -0.1644 -0.2725
27805SOL    HW188262   1.478   5.081   4.763 -1.1464 -1.1513 -0.2223
27805SOL    HW288263   1.569   4.964   4.736  0.1600 -0.0584 -0.6494
27806SOL     OW88264   3.876   0.314   1.118 -0.5275  0.5373  0.2179
27806SOL    HW188265   3.927   0.272   1.188  0.0971  1.3484  0.2767
27806SOL    HW288266   3.917   0.400   1.109  0.8198 -0.2891 -2.6268
27807SOL     OW88267   4.008   5.671   2.579 -0.8269 -0.3959  0.1217
27807SOL    HW188268   4.101   5.676   2.554 -0.4845 -1.0661  1.2126
27807SOL    HW288269   3.967   5.742   2.529  0.4924  0.7690  0.6142
27808SOL     OW88270   8.594   7.267   3.254 -0.0670 -0.0746 -0.0867
27808SOL    HW188271   8.680   7.233   3.231  0.6600 -0.0481  2.3119
27808SOL    HW288272   8.609   7.320   3.332 -2.4487 -1.3980  1.4147
27809SOL     OW88273   8.717   3.263   0.546 -0.1076  0.1466  0.3475
27809SOL    HW188274   8.651   3.196   0.560 -0.1710  0.1597  0.1096
27809SOL    HW288275   8.748   3.249   0.456  0.0345  0.2961  0.3714
27810SOL     OW88276   0.018   4.619   7.819  0.5564  0.5166 -0.6383
27810SOL    HW188277   0.028   4.624   7.724 -0.7465  2.2785 -0.7493
27810SOL    HW288278  -0.075   4.638   7.834  0.4024 -1.2436  0.9270
27811SOL     OW88279   2.868   4.904   9.529  0.3222  0.6341 -0.2270
27811SOL    HW188280   2.830   4.836   9.583 -0.0912  0.3957 -0.8109
27811SOL    HW288281   2.794   4.941   9.480  0.8518 -0.0075 -1.5574
27812SOL     OW88282   3.153   4.284   8.151 -0.2992  0.0686 -0.0959
27812SOL    HW188283   3.121   4.370   8.178 -0.8639 -0.0520 -0.3723
27812SOL    HW288284   3.145   4.230   8.229  0.0647  0.2680  0.0815
27813SOL     OW88285   2.139   0.989   4.235 -0.3712  0.2819  0.1044
27813SOL    HW188286   2.196   1.018   4.164 -2.2728  1.1523 -1.1658
27813SOL    HW288287   2.194   0.931   4.288  2.3797  2.9256  0.4166
27814SOL     OW88288   6.811   2.074   4.420  0.8064  0.0366  0.1900
27814SOL    HW188289   6.889   2.080   4.365  1.9742  0.3216  1.7784
27814SOL    HW288290   6.772   2.161   4.418  0.6655 -0.0375 -0.4039
27815SOL     OW88291   1.380   8.053   5.968  0.6364  0.0378  0.0848
27815SOL    HW188292   1.404   7.982   5.908 -1.0341  0.1152 -0.7398
27815SOL    HW288293   1.294   8.083   5.937 -0.2488  0.1878  2.4113
27816SOL     OW88294   9.071   2.203   1.136 -0.2178 -0.6746  0.2957
27816SOL    HW188295   9.111   2.286   1.164 -2.0086  0.1859  0.4408
27816SOL    HW288296   9.049   2.217   1.044  0.0952 -1.2502  0.1292
27817SOL     OW88297   4.324   3.324   5.978  0.7850  0.0484  0.0879
27817SOL    HW188298   4.348   3.378   5.902 -0.4951  2.1881  1.1013
27817SOL    HW288299   4.385   3.352   6.047  1.2413 -1.1142  0.1897
27818SOL     OW88300   2.235   4.488   0.692  0.0337  0.4654 -0.1268
27818SOL    HW188301   2.288   4.501   0.771  0.8713 -0.5679 -0.4819
27818SOL    HW288302   2.199   4.400   0.702 -1.7655  1.2117  0.1668
27819SOL     OW88303   7.894   6.759   7.037  0.5967  0.3078  0.0139
27819SOL    HW188304   7.815   6.795   6.996  1.5280  0.6725 -1.5637
27819SOL    HW288305   7.891   6.789   7.127 -0.6149  1.0517 -0.2562
27820SOL     OW88306   3.418   3.769   3.281 -0.2864 -0.2979  0.3660
27820SOL    HW188307   3.350   3.725   3.230  0.1456 -0.1054 -0.3904
27820SOL    HW288308   3.498   3.719   3.262 -0.2746 -0.7686  1.5625
27821SOL     OW88309   2.014   1.811   5.338  0.3810 -0.1752 -0.1800
27821SOL    HW188310   1.947   1.742   5.339  1.4698 -1.2699  1.4211
27821SOL    HW288311   1.971   1.884   5.293 -0.4718 -2.1840 -2.9297
27822SOL     OW88312   9.152   3.379   6.595  0.1139 -0.3818  0.6271
27822SOL    HW188313   9.226   3.420   6.551 -1.3329  1.1409 -0.5620
27822SOL    HW288314   9.138   3.432   6.674 -1.3485  1.1416 -0.5734
27823SOL     OW88315   9.615   3.605   1.578 -0.2985  0.1286 -0.0498
27823SOL    HW188316   9.706   3.577   1.567 -0.1900  0.0128  1.0533
27823SOL    HW288317   9.578   3.543   1.641 -0.8494  0.8004  0.2957
27824SOL     OW88318   8.326   1.253   4.821  0.0529 -0.2287  0.1084
27824SOL    HW188319   8.268   1.218   4.889 -0.7342  2.5170  0.9781
27824SOL    HW288320   8.304   1.346   4.816  2.3469  0.3162 -1.6625
27825SOL     OW88321   3.510   7.128   1.006  0.1987 -0.0825  0.8771
27825SOL    HW188322   3.583   7.116   0.945 -1.7958 -0.7553 -1.5674
27825SOL    HW288323   3.458   7.199   0.968 -0.7457 -0.0273  2.2044
27826SOL     OW88324   6.000   3.533   2.296 -0.1253  0.4172 -0.6484
27826SOL    HW188325   6.089   3.521   2.261  0.2592 -1.6974  0.8835
27826SOL    HW288326   6.008   3.606   2.358  0.7862 -0.3447  0.1637
27827SOL     OW88327   0.164   6.674   5.787  0.1701  0.3422  0.0045
27827SOL    HW188328   0.112   6.755   5.788  0.7765  0.7390 -0.1073
27827SOL    HW288329   0.122   6.620   5.720  0.3473  0.9631 -0.6192
27828SOL     OW88330   4.075   4.726   2.332 -0.1011  0.6571  0.0137
27828SOL    HW188331   4.015   4.763   2.397 -0.9351 -0.1975 -0.2489
27828SOL    HW288332   4.043   4.758   2.248 -0.3134  0.0390 -0.1447
27829SOL     OW88333   9.508   4.008   6.920 -0.1418 -0.0988 -0.6774
27829SOL    HW188334   9.576   3.960   6.872  0.7235 -0.1436  0.5364
27829SOL    HW288335   9.550   4.030   7.004 -1.4204  0.4516 -0.1671
27830SOL     OW88336   5.002   4.611   0.308 -0.5643  0.1838  0.1675
27830SOL    HW188337   4.946   4.564   0.370 -2.1541  1.9404  0.1605
27830SOL    HW288338   5.017   4.696   0.349  0.9900  0.2549 -0.4755
27831SOL     OW88339   5.848   4.970   6.816  0.1834 -0.0583 -0.3268
27831SOL    HW188340   5.930   5.016   6.828  0.1036 -0.0571  0.2387
27831SOL    HW288341   5.780   5.037   6.826  0.1168 -0.0352 -0.9169
27832SOL     OW88342   8.870   9.167   0.610 -0.2398  0.6961 -0.2743
27832SOL    HW188343   8.848   9.075   0.626 -1.2939  0.4748 -2.6322
27832SOL    HW288344   8.878   9.174   0.515  1.2096  2.7760 -0.0612
27833SOL     OW88345   1.970   3.085   2.817  0.1844 -0.3123  0.0548
27833SOL    HW188346   2.034   3.127   2.873 -0.7754  1.6843 -0.2555
27833SOL    HW288347   1.995   2.992   2.816  0.0834 -0.5298  3.9946
27834SOL     OW88348   4.921   0.069   1.889  0.0489 -0.1189 -0.2658
27834SOL    HW188349   4.896  -0.024   1.892  1.8535 -0.6653 -0.9513
27834SOL    HW288350   4.916   0.097   1.980 -0.7397 -0.8042 -0.0726
27835SOL     OW88351   4.315   3.516   2.523  0.1316  0.4139 -0.1464
27835SOL    HW188352   4.249   3.447   2.520  1.6244 -1.0613 -0.2368
27835SOL    HW288353   4.362   3.508   2.439  1.1544  0.6820  0.3838
27836SOL     OW88354   8.951   6.984   4.475  0.0893 -0.4273 -0.4505
27836SOL    HW188355   8.941   6.973   4.380 -0.7034 -3.1077 -0.1622
27836SOL    HW288356   9.018   6.920   4.499  2.3859  2.1527  0.5328
27837SOL     OW88357   9.575   1.496   2.157  0.0072 -0.0721 -0.0713
27837SOL    HW188358   9.540   1.479   2.244  1.2403 -1.6915  0.1522
27837SOL    HW288359   9.669   1.505   2.170  0.1197  0.5282 -1.1448
27838SOL     OW88360   6.978   5.307   9.701  0.1547  0.0072  0.2640
27838SOL    HW188361   6.983   5.219   9.664 -0.4848  0.9743 -2.3009
27838SOL    HW288362   7.036   5.360   9.646 -0.9612  1.5723  0.5364
27839SOL     OW88363   1.494   1.763   0.645  0.0145  0.2897  0.4333
27839SOL    HW188364   1.500   1.858   0.655  1.3694  0.1192  1.4748
27839SOL    HW288365   1.450   1.750   0.560  0.2643  1.8304  0.0453
27840SOL     OW88366   0.360   1.862   1.673 -0.0349  0.0911 -0.0558
27840SOL    HW188367   0.271   1.887   1.698  0.9969  0.8742  3.4434
27840SOL    HW288368   0.365   1.768   1.691  0.2998  0.3982  1.6975
27841SOL     OW88369   5.854   3.999   1.929 -0.4365 -0.2127  0.1171
27841SOL    HW188370   5.926   4.025   1.871 -0.0533  0.2659  0.7808
27841SOL    HW288371   5.799   3.942   1.876 -0.3759  0.6161 -0.8651
27842SOL     OW88372   6.109   3.847   0.982 -0.2410  0.6169 -0.2118
27842SOL    HW188373   6.066   3.840   0.896  0.3463 -0.0231 -0.4639
27842SOL    HW288374   6.039   3.830   1.045 -0.5183  0.3154 -0.5919
27843SOL     OW88375   4.773   3.933   4.479  0.2969 -0.1430  0.0290
27843SOL    HW188376   4.814   4.011   4.516 -0.3066  0.4651 -0.5569
27843SOL    HW288377   4.703   3.911   4.540  1.5909 -1.3220  1.1566
27844SOL     OW88378   7.833   7.212   3.971  0.3327 -0.2894 -0.2291
27844SOL    HW188379   7.907   7.232   3.912  1.6772 -1.5557  0.9439
27844SOL    HW288380   7.764   7.182   3.912  2.3924 -3.7433 -1.1823
27845SOL     OW88381   1.871   8.262   9.415  0.2779  0.4611  0.0294
27845SOL    HW188382   1.836   8.199   9.351  1.2977  0.7942 -0.8904
27845SOL    HW288383   1.855   8.348   9.375 -0.8093  0.8067  1.1268
27846SOL     OW88384   3.764   6.005   4.092 -0.2524  0.2023  0.5079
27846SOL    HW188385   3.747   6.082   4.146  0.5094  0.4268  0.4328
27846SOL    HW288386   3.798   6.040   4.010 -3.6315  0.0226 -1.1139
27847SOL     OW88387   5.180   7.159   2.853 -0.6750 -0.4309 -0.8139
27847SOL    HW188388   5.197   7.213   2.930  0.9670 -1.7123 -0.2408
27847SOL    HW288389   5.089   7.132   2.862 -0.8786  0.4819 -0.0056
27848SOL     OW88390   4.803   3.095   1.336 -0.4739 -0.3343 -1.4025
27848SOL    HW188391   4.776   3.185   1.319 -0.1269  0.8750  3.2121
27848SOL    HW288392   4.898   3.100   1.345 -0.6917 -0.3893  1.9014
27849SOL     OW88393   8.433   1.032   6.953 -0.1740 -0.1934  0.1439
27849SOL    HW188394   8.367   1.014   7.020 -0.4539  1.9312  0.4872
27849SOL    HW288395   8.382   1.039   6.872  0.0303 -1.5877 -0.1347
27850SOL     OW88396   3.558   8.547   7.766 -0.1289  0.1367 -0.0358
27850SOL    HW188397   3.518   8.476   7.716  1.2350 -0.7159  0.0452
27850SOL    HW288398   3.484   8.591   7.808 -1.0790 -0.6465 -0.8213
27851SOL     OW88399   7.103   4.821   3.868  0.6137  0.1376  0.5801
27851SOL    HW188400   7.058   4.755   3.815  0.4040  0.1311  0.7672
27851SOL    HW288401   7.144   4.772   3.938 -0.5041  0.3149  1.3947
27852SOL     OW88402   5.201   2.553   3.570  0.0521 -0.2266 -0.0750
27852SOL    HW188403   5.248   2.591   3.645  1.9947 -1.8931 -0.3749
27852SOL    HW288404   5.124   2.512   3.609  0.1725  0.3398  0.7908
27853SOL     OW88405   4.760   2.634   7.919  0.2397 -0.0276  0.1114
27853SOL    HW188406   4.847   2.661   7.889  1.3430  0.0198  3.0287
27853SOL    HW288407   4.772   2.544   7.949 -0.8543 -0.1766  0.1507
27854SOL     OW88408   0.845   1.000   6.384  0.0971 -0.2496  0.4292
27854SOL    HW188409   0.845   0.942   6.461 -0.8347 -0.0645  0.5819
27854SOL    HW288410   0.791   0.954   6.320  1.4875 -0.7669 -0.4220
27855SOL     OW88411   5.541   2.800   8.482 -0.2250  0.1164 -0.0988
27855SOL    HW188412   5.537   2.758   8.396 -1.0077  0.6163 -0.3162
27855SOL    HW288413   5.612   2.864   8.474 -1.2487  1.1863 -0.8509
27856SOL     OW88414   8.072   6.398   7.783  0.4395 -0.4716 -0.2229
27856SOL    HW188415   8.158   6.418   7.746 -0.5890  0.1029 -2.4751
27856SOL    HW288416   8.029   6.345   7.717 -0.2111 -2.6522  1.8125
27857SOL     OW88417   0.844   1.284   7.807 -0.8521  0.2254  0.1429
27857SOL    HW188418   0.839   1.379   7.818 -2.5596  0.2650 -0.5892
27857SOL    HW288419   0.937   1.266   7.796 -0.6500  2.3506 -3.7343
27858SOL     OW88420   7.689   6.580   2.887  0.0401 -0.1246 -0.1145
27858SOL    HW188421   7.633   6.504   2.903  0.0841 -0.2163 -0.3812
27858SOL    HW288422   7.633   6.641   2.839 -0.2675  0.3882  0.8770
27859SOL     OW88423   4.349   8.973   3.138 -0.2012 -0.2481  0.1433
27859SOL    HW188424   4.274   9.011   3.093 -0.8834 -0.8834  0.7143
27859SOL    HW288425   4.326   8.881   3.149 -0.1181 -0.0949  1.8897
27860SOL     OW88426   1.939   8.454   4.542 -0.2691  0.0012 -0.2456
27860SOL    HW188427   1.980   8.426   4.624 -1.1291  0.0313  0.1978
27860SOL    HW288428   1.912   8.373   4.499 -0.0296 -0.0014 -0.3953
27861SOL     OW88429   6.865   1.705   5.458 -0.3195 -0.1431 -0.7535
27861SOL    HW188430   6.895   1.794   5.477  1.2333 -1.0548  1.6030
27861SOL    HW288431   6.894   1.688   5.368  2.1410  0.7047 -0.1952
27862SOL     OW88432   4.822   9.031   2.735  0.0429 -0.2737  0.0997
27862SOL    HW188433   4.764   9.103   2.711  1.4538  1.0512  0.5815
27862SOL    HW288434   4.865   9.060   2.815  0.8184 -1.5533  0.1794
27863SOL     OW88435   9.746   8.088   9.170  0.3482 -0.4760  0.5886
27863SOL    HW188436   9.683   8.016   9.177 -0.1030 -0.4459 -2.0551
27863SOL    HW288437   9.696   8.166   9.196  0.2123 -0.8286  1.4115
27864SOL     OW88438   7.702   6.675   3.445  0.3463 -0.3788  0.1403
27864SOL    HW188439   7.771   6.741   3.454  1.4841 -1.5822  0.5422
27864SOL    HW288440   7.630   6.707   3.500  1.2415  0.0523  1.0819
27865SOL     OW88441   4.659   3.279   4.996 -0.5951 -0.3001  0.2124
27865SOL    HW188442   4.664   3.184   5.007  1.4599 -0.2335  0.2591
27865SOL    HW288443   4.609   3.309   5.071  1.5434 -1.0879  2.0685
27866SOL     OW88444   6.301   2.152   1.942  0.2916 -0.7015  0.3700
27866SOL    HW188445   6.234   2.162   1.874  0.8677  2.4988  0.1069
27866SOL    HW288446   6.270   2.079   1.996 -2.4104 -0.5659 -0.8354
27867SOL     OW88447   8.059   9.141   7.344 -0.3336 -0.2038 -0.3899
27867SOL    HW188448   8.149   9.169   7.329  0.2050 -2.6005 -2.2713
27867SOL    HW288449   8.066   9.069   7.407 -0.8259 -0.8844 -1.0941
27868SOL     OW88450   4.838   0.551   4.276 -0.1778 -0.2248  0.5616
27868SOL    HW188451   4.903   0.509   4.219 -1.2859 -0.4238 -0.5828
27868SOL    HW288452   4.829   0.491   4.350  1.0778 -0.0991  0.8403
27869SOL     OW88453   7.073   4.165   0.632 -0.3388  0.3315 -0.4689
27869SOL    HW188454   6.985   4.151   0.597  0.2062 -5.1371 -0.5080
27869SOL    HW288455   7.127   4.185   0.555 -1.1426  1.6229 -0.7234
27870SOL     OW88456   0.705   1.782   3.797 -0.5246  0.4987 -0.1858
27870SOL    HW188457   0.711   1.876   3.782  0.5535  0.5344  0.3806
27870SOL    HW288458   0.611   1.764   3.797 -0.7121  1.3341 -1.6692
27871SOL     OW88459   3.196   4.044   1.555  0.1141 -0.0534  0.2712
27871SOL    HW188460   3.137   4.118   1.542  0.2056 -0.0814 -0.3754
27871SOL    HW288461   3.203   4.035   1.650  1.1520  1.6099  0.3897
27872SOL     OW88462   5.717   3.834   3.150 -0.2869  0.7378 -0.0724
27872SOL    HW188463   5.809   3.810   3.143 -0.4745 -0.1633  0.4123
27872SOL    HW288464   5.685   3.787   3.228 -0.3627  3.6030  1.7766
27873SOL     OW88465   5.693   1.369   3.619  0.2691 -0.4404 -0.1454
27873SOL    HW188466   5.761   1.303   3.604 -1.0290 -1.3995 -2.4018
27873SOL    HW288467   5.662   1.352   3.708  0.0193 -2.9070 -0.6333
27874SOL     OW88468   4.000   9.407   1.666 -0.2319  0.5699 -0.1077
27874SOL    HW188469   3.924   9.356   1.696  1.7692 -0.5893  3.6085
27874SOL    HW288470   3.969   9.497   1.664 -2.0949 -0.0287 -0.3222
27875SOL     OW88471   1.789   2.139   1.967  0.2828 -0.0885 -0.2577
27875SOL    HW188472   1.815   2.047   1.962  0.2239 -0.0986 -0.3736
27875SOL    HW288473   1.857   2.187   1.920  2.4365  0.3520  3.0116
27876SOL     OW88474   6.357   5.759   9.126  0.2146  0.5640  0.4261
27876SOL    HW188475   6.322   5.796   9.045 -0.2010 -0.7423 -0.0275
27876SOL    HW288476   6.408   5.829   9.165 -1.7413  2.0914  0.3711
27877SOL     OW88477   6.052   6.349   2.559 -0.2408 -0.5272 -0.3335
27877SOL    HW188478   6.007   6.343   2.475 -0.3756  0.3919 -0.3405
27877SOL    HW288479   6.040   6.263   2.600  0.3963 -1.2021 -1.5358
27878SOL     OW88480   2.903   4.235   5.330 -0.1853 -0.6084 -0.4393
27878SOL    HW188481   2.899   4.325   5.361 -2.1184 -0.5906 -0.6008
27878SOL    HW288482   2.923   4.243   5.237 -0.9542 -0.3114 -0.5808
27879SOL     OW88483   3.379   1.590   5.922  0.0537  0.1636  0.1041
27879SOL    HW188484   3.446   1.529   5.952 -0.8574 -0.8735  0.0786
27879SOL    HW288485   3.379   1.660   5.988  0.7400 -0.1340  0.4277
27880SOL     OW88486   4.443   1.499   0.408 -0.6429  0.0273  0.0813
27880SOL    HW188487   4.368   1.546   0.443  0.1120  1.8536 -0.5960
27880SOL    HW288488   4.519   1.548   0.440  0.6061 -3.6143  3.5510
27881SOL     OW88489   1.362   5.172   6.078  0.4143  0.2913 -0.3859
27881SOL    HW188490   1.364   5.167   6.173 -1.4203  3.0440 -0.0591
27881SOL    HW288491   1.340   5.084   6.049 -1.6079 -0.0924  1.9569
27882SOL     OW88492   6.658   0.784   2.699 -0.3396  0.3817 -0.4131
27882SOL    HW188493   6.568   0.752   2.700 -0.5784  1.0172 -0.9987
27882SOL    HW288494   6.655   0.864   2.647  0.6040  0.2802 -0.6544
27883SOL     OW88495   9.457   7.128   1.113  0.3164 -0.4190 -0.8617
27883SOL    HW188496   9.418   7.054   1.159  1.5637  0.5694  1.9686
27883SOL    HW288497   9.541   7.096   1.082 -0.6193 -1.1543 -2.8505
27884SOL     OW88498   7.068   9.538   2.095 -0.1617  0.4244 -0.0362
27884SOL    HW188499   6.999   9.519   2.031 -2.1737  0.1233  2.0820
27884SOL    HW288500   7.104   9.622   2.068  0.8786 -0.8263 -2.9725
27885SOL     OW88501   2.103   3.198   1.759  0.2419 -0.1634  0.0949
27885SOL    HW188502   2.079   3.219   1.849  0.3008 -1.5324  0.4562
27885SOL    HW288503   2.022   3.168   1.718  0.5463 -1.2462  0.2361
27886SOL     OW88504   7.025   0.521   0.975  0.2486  0.1931 -0.5577
27886SOL    HW188505   7.007   0.507   0.882 -0.8518  0.4899 -0.4041
27886SOL    HW288506   7.012   0.435   1.015  2.2826 -0.3138 -0.8772
27887SOL     OW88507   6.075   0.534   1.776 -0.1648 -0.4657  0.5166
27887SOL    HW188508   6.142   0.525   1.709  1.1208 -1.6813  1.8789
27887SOL    HW288509   6.103   0.475   1.846 -1.0323  1.2646  2.4453
27888SOL     OW88510   6.526   9.155   2.990 -0.3034  0.6865 -0.3862
27888SOL    HW188511   6.608   9.199   2.967 -0.9000  1.6435 -0.7684
27888SOL    HW288512   6.458   9.220   2.971 -1.3931 -0.9463 -2.5674
27889SOL     OW88513   9.385   5.845   6.204  0.5847  0.0906  0.0825
27889SOL    HW188514   9.438   5.925   6.208  0.4867  0.1993 -0.6444
27889SOL    HW288515   9.301   5.873   6.168  0.8310 -0.4761 -0.9626
27890SOL     OW88516   3.692   4.834   4.754 -0.4493  0.3425  0.5245
27890SOL    HW188517   3.763   4.825   4.690 -0.6264  0.7290  0.2699
27890SOL    HW288518   3.736   4.825   4.839 -0.1990 -0.0777  0.3511
27891SOL     OW88519   6.753   3.410   5.661  0.5659  0.0025  1.4856
27891SOL    HW188520   6.742   3.317   5.641 -2.6042  0.2256  1.6884
27891SOL    HW288521   6.737   3.416   5.755 -0.1666  0.8676  1.3105
27892SOL     OW88522   7.297   5.697   7.300 -0.3795 -0.1102 -0.5814
27892SOL    HW188523   7.381   5.729   7.333 -0.6636 -0.0075  0.0529
27892SOL    HW288524   7.299   5.603   7.316 -0.2492 -0.1544 -0.8643
27893SOL     OW88525   6.596   8.218   1.824  0.1348  0.3600  0.0964
27893SOL    HW188526   6.588   8.313   1.822  2.9743  0.7155  1.0527
27893SOL    HW288527   6.670   8.201   1.882  0.5403 -2.3925 -1.0469
27894SOL     OW88528   2.768   9.589   0.939  0.0954 -0.4977 -0.1551
27894SOL    HW188529   2.757   9.524   1.008 -0.4382  0.2465  0.4768
27894SOL    HW288530   2.686   9.638   0.938  0.6154  0.4029 -0.3635
27895SOL     OW88531   9.610   8.911   1.745  0.0954 -0.2443 -0.4177
27895SOL    HW188532   9.548   8.985   1.747 -0.4559 -0.7011 -0.2562
27895SOL    HW288533   9.621   8.892   1.652  0.9400  0.6030 -0.5153
27896SOL     OW88534   1.465   5.558   9.051 -0.2556 -0.2201 -0.2655
27896SOL    HW188535   1.386   5.520   9.090  0.2898 -1.4238 -0.2907
27896SOL    HW288536   1.435   5.602   8.972 -1.4908  2.7275  1.6661
27897SOL     OW88537   1.992   2.797   8.768 -0.2564  0.0883  0.5742
27897SOL    HW188538   2.087   2.797   8.777 -0.1685  0.5877 -0.2472
27897SOL    HW288539   1.960   2.784   8.857  0.5776 -2.3918  0.5790
27898SOL     OW88540   7.816   5.017   0.367  0.6782  0.0087  0.0671
27898SOL    HW188541   7.906   5.047   0.358  1.1890 -1.1279  1.1517
27898SOL    HW288542   7.796   4.976   0.282  0.7128  1.3985 -0.6339
27899SOL     OW88543   8.595   1.806   3.830  0.5700 -0.0903 -0.0265
27899SOL    HW188544   8.673   1.773   3.875  1.4483  1.3262 -0.4409
27899SOL    HW288545   8.534   1.732   3.830  2.1018 -1.4143 -0.1501
27900SOL     OW88546   5.781   1.873   7.960 -0.5967  0.8101  0.0127
27900SOL    HW188547   5.692   1.845   7.980 -0.3182 -1.8857 -1.9647
27900SOL    HW288548   5.785   1.875   7.865  1.3376  1.4237  0.0603
27901SOL     OW88549   4.181   3.802   0.349  0.1176  0.0533  0.0776
27901SOL    HW188550   4.113   3.753   0.396 -0.5224  0.8205 -0.0367
27901SOL    HW288551   4.188   3.885   0.396 -1.4780  1.4086 -1.8928
27902SOL     OW88552   4.986   7.831   3.748 -0.6639  0.5313 -1.2059
27902SOL    HW188553   5.004   7.914   3.791 -1.6667  0.6515 -0.9948
27902SOL    HW288554   5.067   7.809   3.703  1.4997 -0.9476  2.8775
27903SOL     OW88555   8.193   4.982   8.221  0.3304 -0.4692 -0.1823
27903SOL    HW188556   8.183   5.077   8.218 -3.7468 -0.7138 -0.0900
27903SOL    HW288557   8.203   4.956   8.129 -1.7448 -0.0876 -0.5533
27904SOL     OW88558   8.808   3.054   7.571  0.4016  0.0976  0.0536
27904SOL    HW188559   8.888   3.105   7.554  0.2893  0.3105  0.1716
27904SOL    HW288560   8.804   3.045   7.666  0.5103 -0.2761  0.0242
27905SOL     OW88561   4.418   7.140   3.267  0.0967 -0.2453  0.2549
27905SOL    HW188562   4.373   7.183   3.195 -0.2614  0.1158  0.6843
27905SOL    HW288563   4.420   7.206   3.336 -0.4157 -0.9000  0.9142
27906SOL     OW88564   7.671   9.102   2.277 -0.0273 -0.3261 -0.1159
27906SOL    HW188565   7.737   9.110   2.346 -0.9093 -2.9702  1.1790
27906SOL    HW288566   7.588   9.121   2.322 -0.3268  1.6942 -1.4127
27907SOL     OW88567   3.185   3.107   1.451 -0.3260 -0.1587 -0.2132
27907SOL    HW188568   3.121   3.037   1.463 -0.6908 -0.0433 -1.3938
27907SOL    HW288569   3.148   3.162   1.382  0.6668  0.3636 -0.3491
27908SOL     OW88570   2.414   1.563   7.405 -0.5702 -0.1732  0.5361
27908SOL    HW188571   2.419   1.658   7.394 -2.7838 -0.0950 -0.2356
27908SOL    HW288572   2.410   1.528   7.316 -0.5340 -0.9274  0.8215
27909SOL     OW88573   4.186   0.608   9.483  0.8871 -0.2710 -0.2061
27909SOL    HW188574   4.159   0.677   9.423 -0.9387  0.3179  1.1958
27909SOL    HW288575   4.275   0.632   9.509  1.5559 -0.3218 -2.2714
27910SOL     OW88576   0.778   5.758   3.538  0.2857  0.3054 -0.4770
27910SOL    HW188577   0.684   5.778   3.539 -0.2264 -1.8470  0.5860
27910SOL    HW288578   0.798   5.743   3.445 -0.0542  2.1563 -0.8888
27911SOL     OW88579   8.837   3.052   7.844 -0.4811  0.3190  0.1614
27911SOL    HW188580   8.911   3.079   7.899 -0.3758 -2.7774  1.7917
27911SOL    HW288581   8.763   3.046   7.905 -0.6200 -2.2105 -0.1506
27912SOL     OW88582   0.539   6.354   8.092  0.7618  0.4768 -0.2416
27912SOL    HW188583   0.449   6.381   8.072  0.6291 -0.9415 -1.7240
27912SOL    HW288584   0.586   6.368   8.010  1.9164  1.2007  0.5237
27913SOL     OW88585   2.099   7.690   6.955  0.0450  0.4165 -0.4935
27913SOL    HW188586   2.080   7.712   7.046  0.6120  0.0043 -0.2646
27913SOL    HW288587   2.018   7.710   6.908 -0.6038 -0.3100  0.2636
27914SOL     OW88588   6.776   5.904   5.667  0.1075 -0.2725 -0.0630
27914SOL    HW188589   6.827   5.849   5.608  2.6507  1.5052  0.3551
27914SOL    HW288590   6.775   5.856   5.749  0.4882 -0.6584 -0.2792
27915SOL     OW88591   4.772   2.317   4.821 -0.3056  0.1896  0.0229
27915SOL    HW188592   4.713   2.243   4.837  2.0872 -2.2997 -1.6974
27915SOL    HW288593   4.850   2.298   4.873  0.0406  2.0193  0.2488
27916SOL     OW88594   2.466   5.283   1.049  0.0794  0.0174 -0.6832
27916SOL    HW188595   2.477   5.239   1.134 -0.4444 -0.0082 -0.6252
27916SOL    HW288596   2.484   5.215   0.984 -1.4990 -0.5202 -0.6013
27917SOL     OW88597   8.347   5.620   3.762 -0.0394 -0.0867  1.3494
27917SOL    HW188598   8.285   5.626   3.835  0.2177 -1.5476  1.7189
27917SOL    HW288599   8.292   5.627   3.684 -0.5444 -0.2889  1.6754
27918SOL     OW88600   0.843   5.365   7.771  0.0358 -0.4891  0.6993
27918SOL    HW188601   0.782   5.356   7.844 -0.3312 -0.8100  0.3613
27918SOL    HW288602   0.787   5.377   7.695  0.4414  2.3486  0.7631
27919SOL     OW88603   5.962   9.292   8.120 -0.1675  0.4813  0.5510
27919SOL    HW188604   6.019   9.260   8.050 -0.0637  1.3030  0.2526
27919SOL    HW288605   5.901   9.220   8.136  0.9559 -0.4226  0.8903
27920SOL     OW88606   8.208   1.967   8.001  0.3258  0.0866 -0.0202
27920SOL    HW188607   8.270   1.935   8.066  0.1926  1.0680  0.6120
27920SOL    HW288608   8.255   2.034   7.953 -0.4015  1.2720  0.8664
27921SOL     OW88609   2.062   0.695   5.338  0.2722 -0.3619  0.3105
27921SOL    HW188610   2.082   0.788   5.327 -0.0123 -0.1251  1.6389
27921SOL    HW288611   2.056   0.661   5.248  1.0494  0.7442 -0.1853
27922SOL     OW88612   6.584   5.639   3.724  0.5145 -0.4041 -0.0824
27922SOL    HW188613   6.498   5.601   3.705  0.3595  0.4720 -1.2306
27922SOL    HW288614   6.592   5.634   3.819 -1.3463  0.6198  0.1676
27923SOL     OW88615   0.044   6.857   5.099  0.3308 -0.8830 -0.6897
27923SOL    HW188616   0.134   6.826   5.103  0.4716 -0.8261 -2.4340
27923SOL    HW288617   0.049   6.950   5.123  1.1159 -0.3092 -2.8477
27924SOL     OW88618   1.764   4.087   2.089 -0.5264  0.1931 -0.0061
27924SOL    HW188619   1.816   4.016   2.125 -2.8370 -1.5742  0.0987
27924SOL    HW288620   1.822   4.131   2.027  0.7834 -2.2878 -0.6517
27925SOL     OW88621   6.164   1.216   9.063 -0.0816  0.1639 -0.6600
27925SOL    HW188622   6.153   1.280   8.993  0.5273  0.8600 -0.1334
27925SOL    HW288623   6.258   1.198   9.065  0.0334  0.8119  0.5353
27926SOL     OW88624   4.006   5.536   2.269 -0.1864 -0.1352  0.4342
27926SOL    HW188625   4.051   5.582   2.198  0.6171 -0.2866  0.8371
27926SOL    HW288626   4.073   5.524   2.336 -1.3233  1.5680  1.9927
27927SOL     OW88627   0.566   5.402   5.500 -0.4763  0.1143  0.3625
27927SOL    HW188628   0.476   5.433   5.493 -0.0308  1.4847  0.3502
27927SOL    HW288629   0.617   5.460   5.444  0.4427 -0.5497  0.4658
27928SOL     OW88630   5.883   8.064   3.431 -0.1745 -0.3579  0.1646
27928SOL    HW188631   5.895   8.159   3.438 -1.8058 -0.1076  0.1381
27928SOL    HW288632   5.936   8.038   3.356 -2.8355  1.2701 -2.5256
27929SOL     OW88633   6.248   9.252   2.107 -0.2537  0.0689 -0.3499
27929SOL    HW188634   6.333   9.209   2.114 -0.7908 -0.9707 -0.1352
27929SOL    HW288635   6.257   9.310   2.031  1.0698  0.9840  0.4570
27930SOL     OW88636   2.269   9.597   8.374  0.1748  0.0475 -0.0304
27930SOL    HW188637   2.332   9.655   8.414 -0.9451  0.9396  0.4945
27930SOL    HW288638   2.284   9.512   8.416  1.5893  0.0094 -0.5621
27931SOL     OW88639   3.330   4.657   8.186 -0.0085 -0.4063  0.3352
27931SOL    HW188640   3.307   4.741   8.227 -0.9043 -0.5844  0.2247
27931SOL    HW288641   3.387   4.681   8.113 -2.8234  0.4863 -1.7493
27932SOL     OW88642   6.189   3.510   3.700  0.2966  0.0342 -0.4021
27932SOL    HW188643   6.260   3.482   3.643  0.5813 -0.7171  0.3078
27932SOL    HW288644   6.148   3.429   3.729 -1.0045  0.4666 -0.9793
27933SOL     OW88645   0.981   6.124   4.093 -0.2399 -0.0696  0.1155
27933SOL    HW188646   0.946   6.214   4.089 -0.4461 -0.0951  0.9905
27933SOL    HW288647   0.991   6.098   4.002 -1.6376  0.2942 -0.1680
27934SOL     OW88648   9.317   8.121   3.139 -0.1020  0.2027 -0.2933
27934SOL    HW188649   9.361   8.187   3.193  1.5526 -0.7947 -0.3246
27934SOL    HW288650   9.255   8.079   3.198  0.9365 -0.1669  0.5671
27935SOL     OW88651   8.763   3.733   2.327 -0.1128  0.1719 -0.2540
27935SOL    HW188652   8.856   3.744   2.347  0.8674 -0.3430 -3.7679
27935SOL    HW288653   8.733   3.822   2.307 -0.2381  0.2731  0.3817
27936SOL     OW88654   2.266   4.557   3.005 -0.4942 -0.2196  0.0478
27936SOL    HW188655   2.261   4.649   3.028  0.6113  0.1467 -1.0772
27936SOL    HW288656   2.257   4.555   2.910  0.2204 -1.2031 -0.0165
27937SOL     OW88657   8.943   6.631   7.662 -0.5278 -0.5045  0.0246
27937SOL    HW188658   8.871   6.630   7.725 -0.1260 -0.0814  0.5001
27937SOL    HW288659   8.916   6.569   7.593 -1.4900 -0.1008  0.0218
27938SOL     OW88660   9.251   4.443   2.947 -0.5375  0.0967  0.4161
27938SOL    HW188661   9.166   4.467   2.985  0.1414 -0.7389  2.6283
27938SOL    HW288662   9.286   4.376   3.007  1.9177  0.8137 -0.1002
27939SOL     OW88663   4.559   4.708   6.406 -0.4729  0.3373 -0.4654
27939SOL    HW188664   4.601   4.622   6.414  0.2270  0.4912 -2.1827
27939SOL    HW288665   4.561   4.743   6.496  1.6639 -0.3283 -0.1868
27940SOL     OW88666   1.056   9.272   1.965  0.2944 -0.4297 -0.0783
27940SOL    HW188667   1.100   9.297   1.885  1.5252  1.5154  1.1153
27940SOL    HW288668   0.990   9.340   1.978  0.6994 -0.2172  0.9756
27941SOL     OW88669   0.346   0.056   7.131 -0.6631 -0.4796  0.3816
27941SOL    HW188670   0.314   0.133   7.179 -0.1278 -0.8986  1.4489
27941SOL    HW288671   0.439   0.073   7.117 -1.0700  0.2472 -1.7571
27942SOL     OW88672   6.989   6.623   7.320  0.2734  0.1949 -0.0458
27942SOL    HW188673   6.914   6.648   7.374  0.1509  0.5270 -0.3631
27942SOL    HW288674   6.971   6.533   7.293  0.8526 -0.3658  1.3372
27943SOL     OW88675   0.579   2.867   0.791  0.3284  0.5615 -0.0232
27943SOL    HW188676   0.500   2.826   0.826  0.3503  0.5198 -0.0217
27943SOL    HW288677   0.563   2.961   0.798 -0.7081  0.6104 -2.2015
27944SOL     OW88678   7.717   3.676   1.827  0.0244 -0.5126 -0.6742
27944SOL    HW188679   7.621   3.680   1.831  0.0927 -0.0374  1.7155
27944SOL    HW288680   7.745   3.767   1.831  0.6065 -0.6302 -1.6758
27945SOL     OW88681   7.867   8.203   2.398  0.1120 -0.1285 -0.8715
27945SOL    HW188682   7.908   8.138   2.342 -0.5204 -1.3319  0.0159
27945SOL    HW288683   7.887   8.174   2.487  0.4312  1.3017 -0.4405
27946SOL     OW88684   5.948   7.241   4.415  0.0142 -0.3071 -0.2186
27946SOL    HW188685   6.010   7.193   4.471 -0.3294 -1.4523 -0.7939
27946SOL    HW288686   5.932   7.323   4.462  1.0768 -0.4909  0.5002
27947SOL     OW88687   6.120   3.785   6.217 -0.0377  0.0515 -0.1670
27947SOL    HW188688   6.168   3.712   6.258 -0.6176 -0.3580 -0.2154
27947SOL    HW288689   6.036   3.787   6.262  0.3783  1.4198  0.6286
27948SOL     OW88690   3.544   5.846   0.581 -0.2860  0.9055 -0.3633
27948SOL    HW188691   3.601   5.871   0.654  0.3858  0.1312 -0.6076
27948SOL    HW288692   3.455   5.862   0.613 -0.1244 -1.0892  1.3100
27949SOL     OW88693   8.222   7.542   1.707 -0.6589  0.8696  0.5822
27949SOL    HW188694   8.219   7.636   1.688 -0.9770  1.5018  3.2967
27949SOL    HW288695   8.160   7.530   1.778 -0.9564 -1.5238 -0.0065
27950SOL     OW88696   7.869   5.023   5.190 -0.4516  0.5139 -0.3646
27950SOL    HW188697   7.942   5.081   5.168 -0.0311 -0.6204 -2.0783
27950SOL    HW288698   7.910   4.941   5.218 -1.0586  0.1900 -0.3961
27951SOL     OW88699   2.837   5.066   4.335 -0.1543  0.2408 -0.3332
27951SOL    HW188700   2.873   5.050   4.423 -1.2635  0.9887  0.2715
27951SOL    HW288701   2.901   5.124   4.294  1.0241 -1.1168 -0.5133
27952SOL     OW88702   8.033   1.918   2.094 -0.1333  0.5692 -0.2230
27952SOL    HW188703   8.096   1.900   2.164 -0.4771 -1.4791 -0.3780
27952SOL    HW288704   7.957   1.954   2.139 -0.1962 -0.3432  0.4341
27953SOL     OW88705   1.567   8.360   0.782  0.3386 -0.0826  0.2850
27953SOL    HW188706   1.540   8.309   0.858 -0.1234 -0.9466 -0.4375
27953SOL    HW288707   1.588   8.295   0.715  1.2688  0.6486 -0.1578
27954SOL     OW88708   2.249   2.171   2.651  0.4496  0.5039 -0.4441
27954SOL    HW188709   2.306   2.248   2.657  1.0394  0.0037  0.7821
27954SOL    HW288710   2.275   2.116   2.725  0.1797 -0.9741 -1.3936
27955SOL     OW88711   5.602   7.624   7.082  0.2050  0.3948  0.5255
27955SOL    HW188712   5.672   7.608   7.145  0.8616  2.0512  0.2661
27955SOL    HW288713   5.616   7.559   7.013  0.3433 -0.4942  1.3693
27956SOL     OW88714   2.378   3.961   3.785 -0.8211  0.0669 -0.5685
27956SOL    HW188715   2.351   3.981   3.875  1.7235  0.7117  0.1580
27956SOL    HW288716   2.450   4.023   3.768  1.6021 -2.7717 -1.4572
27957SOL     OW88717   3.592   6.224   6.420  0.1204  0.3211 -0.6942
27957SOL    HW188718   3.681   6.238   6.450  0.8388 -0.9403 -2.0708
27957SOL    HW288719   3.537   6.254   6.492  1.6793 -0.1604  0.7588
27958SOL     OW88720   6.648   1.774   6.534 -0.4369  0.2571 -0.1856
27958SOL    HW188721   6.665   1.742   6.446 -1.8201 -0.7902 -0.1053
27958SOL    HW288722   6.732   1.764   6.580 -0.2228 -1.0827 -0.8246
27959SOL     OW88723   4.242   3.386   8.863  0.3769  0.4147 -0.4736
27959SOL    HW188724   4.261   3.308   8.914  0.9638  0.8695  0.0302
27959SOL    HW288725   4.215   3.353   8.777 -0.7859 -0.3643  0.1714
27960SOL     OW88726   3.492   1.281   6.885 -0.5202 -0.6765  0.1078
27960SOL    HW188727   3.507   1.188   6.896  0.4918 -0.6542 -0.9029
27960SOL    HW288728   3.480   1.314   6.974  1.9086 -1.3387  0.7781
27961SOL     OW88729   5.769   4.100   2.303  0.1791  0.0218  0.0690
27961SOL    HW188730   5.839   4.046   2.266 -0.1014 -0.7177  0.5946
27961SOL    HW288731   5.764   4.074   2.395 -0.1825  0.7130  0.2519
27962SOL     OW88732   1.019   8.562   7.882 -0.9957 -0.1355  0.1409
27962SOL    HW188733   0.973   8.512   7.950  0.0970  1.2233  1.9886
27962SOL    HW288734   1.103   8.517   7.872 -0.8858  0.0526  0.2052
27963SOL     OW88735   1.596   0.217   7.395 -0.5028  0.4202 -0.2041
27963SOL    HW188736   1.556   0.275   7.331 -3.7416 -0.4265  0.8368
27963SOL    HW288737   1.610   0.272   7.472 -0.6917  0.4877 -0.2182
27964SOL     OW88738   6.045   0.794   8.023 -0.1289 -0.2074  0.0426
27964SOL    HW188739   5.980   0.801   7.953  1.9635  1.5634 -1.9032
27964SOL    HW288740   6.066   0.884   8.046  1.2289 -0.7231  0.9786
27965SOL     OW88741   0.084   1.145   7.738 -0.2607  0.1177  0.2580
27965SOL    HW188742   0.148   1.167   7.670  0.8082 -0.8681  0.9046
27965SOL    HW288743   0.136   1.130   7.816 -1.2608 -0.9425  0.7549
27966SOL     OW88744   4.300   6.885   6.831 -0.6320  0.5420 -0.0496
27966SOL    HW188745   4.260   6.971   6.813  0.9223  0.9016 -2.2626
27966SOL    HW288746   4.394   6.902   6.828 -0.2977 -1.2351 -0.5060
27967SOL     OW88747   2.337   7.278   9.381  0.1275  0.3686 -0.7265
27967SOL    HW188748   2.269   7.306   9.443 -0.7635  0.1471 -1.5808
27967SOL    HW288749   2.389   7.215   9.430  1.0822  2.1333  0.6532
27968SOL     OW88750   8.073   3.415   6.590  0.9958  0.5949 -0.1413
27968SOL    HW188751   8.064   3.326   6.623 -1.4241  0.6317 -0.5340
27968SOL    HW288752   8.112   3.404   6.503 -1.5376 -0.3889 -1.2582
27969SOL     OW88753   1.613   1.834   2.906 -0.1010 -0.3053 -0.3610
27969SOL    HW188754   1.523   1.853   2.933 -0.2837 -1.7804  0.1591
27969SOL    HW288755   1.628   1.891   2.830 -0.8669  1.1987  0.5841
27970SOL     OW88756   5.677   7.368   3.588  0.4984 -0.6722 -0.0236
27970SOL    HW188757   5.699   7.428   3.517  2.6644 -2.0104 -0.5808
27970SOL    HW288758   5.755   7.367   3.644  0.0115 -1.9360  0.6861
27971SOL     OW88759   8.237   8.580   3.994 -0.6114  0.1070 -0.1309
27971SOL    HW188760   8.228   8.675   4.001 -2.6702 -0.1137  1.1459
27971SOL    HW288761   8.271   8.553   4.080 -2.1955 -0.4565  0.3664
27972SOL     OW88762   3.399   4.049   9.600  0.2835  0.8649 -0.1487
27972SOL    HW188763   3.493   4.060   9.588  0.3587  0.2399 -0.1638
27972SOL    HW288764   3.383   4.077   9.690  0.9700 -1.7894  0.8881
27973SOL     OW88765   6.621   0.507   5.302 -0.4091 -0.3337  0.4760
27973SOL    HW188766   6.550   0.550   5.253 -0.6417 -2.3580 -1.1051
27973SOL    HW288767   6.701   0.545   5.265 -0.6128 -1.0054 -0.7181
27974SOL     OW88768   4.700   1.153   2.520  0.3420 -0.4025 -0.4348
27974SOL    HW188769   4.746   1.235   2.507  1.0567 -0.9376 -1.3887
27974SOL    HW288770   4.663   1.131   2.435  0.8305 -1.4498 -0.4037
27975SOL     OW88771   3.280   7.788   8.668 -0.9285  0.2380 -0.6263
27975SOL    HW188772   3.188   7.783   8.693 -0.5214 -0.6866  0.7574
27975SOL    HW288773   3.327   7.792   8.751  0.3699 -0.9845 -1.2684
27976SOL     OW88774   5.350   1.684   3.520 -0.2523  0.2372 -0.2145
27976SOL    HW188775   5.281   1.717   3.463 -0.9328 -0.8985 -0.0667
27976SOL    HW288776   5.404   1.629   3.463 -0.0841  0.2749 -0.0928
27977SOL     OW88777   1.944   1.308   6.267 -0.6369 -0.0721  0.3392
27977SOL    HW188778   1.867   1.322   6.211 -0.6077  0.3281  0.3972
27977SOL    HW288779   1.908   1.303   6.356 -1.0738 -3.7862  0.0893
27978SOL     OW88780   8.077   1.003   8.321 -0.4031 -0.1439  0.4800
27978SOL    HW188781   8.006   0.979   8.261 -0.4352 -0.8565  0.7833
27978SOL    HW288782   8.145   0.939   8.303 -0.8618 -1.1200  1.9827
27979SOL     OW88783   8.385   5.649   3.283 -0.2629 -0.2034 -0.1301
27979SOL    HW188784   8.445   5.583   3.247  1.5615  0.1043  2.1313
27979SOL    HW288785   8.427   5.733   3.264 -0.4371  0.0655  0.6317
27980SOL     OW88786   2.065   1.943   4.596  0.1335 -0.1944  0.2619
27980SOL    HW188787   2.013   1.935   4.676 -0.0228  0.2815  0.2117
27980SOL    HW288788   2.030   1.875   4.538  1.1579 -1.4559  1.0711
27981SOL     OW88789   4.149   1.462   1.560  0.2040  0.4076 -0.4317
27981SOL    HW188790   4.244   1.459   1.559  0.2137  0.3535 -2.7072
27981SOL    HW288791   4.129   1.547   1.600  1.0338 -0.8682  3.1537
27982SOL     OW88792   6.942   4.548   2.468  0.3670  0.2950 -0.6220
27982SOL    HW188793   7.023   4.580   2.427  1.3597  0.5232  1.3972
27982SOL    HW288794   6.874   4.609   2.437  1.6829  2.5814  0.6948
27983SOL     OW88795   8.132   4.608   3.345 -0.7627  0.2766 -0.2039
27983SOL    HW188796   8.154   4.577   3.257 -0.6495  1.2932 -0.5512
27983SOL    HW288797   8.036   4.614   3.345 -0.7862 -0.1334 -0.1164
27984SOL     OW88798   0.079   3.116   7.466 -0.0195  0.7518 -0.7533
27984SOL    HW188799   0.126   3.129   7.549 -1.3336 -1.1654  0.3727
27984SOL    HW288800   0.055   3.204   7.439 -0.2412  1.3982  1.3354
27985SOL     OW88801   4.911   1.422   6.481 -0.5939  0.1619 -0.2567
27985SOL    HW188802   4.876   1.334   6.489 -1.9739  0.6385 -0.7322
27985SOL    HW288803   4.892   1.463   6.566  2.3064 -0.6996  0.9473
27986SOL     OW88804   4.721   5.605   2.703  1.1736  0.2174  0.7431
27986SOL    HW188805   4.805   5.559   2.697  1.2966  0.5818 -0.6523
27986SOL    HW288806   4.734   5.669   2.773  1.7812 -0.2659  1.0857
27987SOL     OW88807   9.736   5.940   0.908  0.0947 -0.4049 -0.4031
27987SOL    HW188808   9.798   5.999   0.865 -0.0767 -0.6860 -1.0339
27987SOL    HW288809   9.683   5.998   0.964  0.7416 -0.1297 -0.0636
27988SOL     OW88810   1.097   9.060   3.507  0.7529  0.0147  0.8402
27988SOL    HW188811   1.015   9.092   3.469  0.6857 -0.8073  0.2764
27988SOL    HW288812   1.069   8.995   3.572  0.8873  1.0621  1.9915
27989SOL     OW88813   0.680   5.035   6.613  0.3157 -0.2195  0.3567
27989SOL    HW188814   0.654   5.088   6.537  2.7916  1.5227  0.5926
27989SOL    HW288815   0.625   5.068   6.685  0.2411  0.4420  0.0051
27990SOL     OW88816   4.161   6.447   3.376 -0.3983 -0.4098  0.0298
27990SOL    HW188817   4.137   6.538   3.363  1.6181  0.6498  2.6672
27990SOL    HW288818   4.228   6.430   3.310 -2.3827 -0.8285 -1.9955
27991SOL     OW88819   7.565   5.759   2.976  0.2381  0.3651 -0.1676
27991SOL    HW188820   7.497   5.718   3.030  0.5530  0.4760  0.3231
27991SOL    HW288821   7.544   5.852   2.977  1.6550  0.7441  1.9031
27992SOL     OW88822   5.387   7.177   9.754  0.0796  0.0602  0.2637
27992SOL    HW188823   5.330   7.101   9.762  1.4213 -1.5112 -3.2851
27992SOL    HW288824   5.331   7.252   9.774 -2.6214 -1.5628 -0.7904
27993SOL     OW88825   8.739   3.544   2.577  0.6086  0.4893 -0.1317
27993SOL    HW188826   8.735   3.603   2.501  1.0468 -0.0319 -0.5651
27993SOL    HW288827   8.784   3.466   2.544 -0.5423 -0.3601  0.2503
27994SOL     OW88828   6.405   6.819   3.281  0.0873  0.5017  0.1375
27994SOL    HW188829   6.312   6.805   3.263  0.4786  0.7607 -2.3501
27994SOL    HW288830   6.418   6.781   3.368 -1.9080 -1.4575 -0.3269
27995SOL     OW88831   4.025   2.804   3.320 -0.1360 -0.0830  0.2752
27995SOL    HW188832   3.951   2.801   3.260 -1.3109  0.9891  1.5758
27995SOL    HW288833   4.059   2.894   3.313  0.2481 -0.1974  0.5826
27996SOL     OW88834   1.425   3.673   1.090  0.1425 -0.0917  0.5851
27996SOL    HW188835   1.466   3.593   1.122 -0.6764 -0.2643  1.2226
27996SOL    HW288836   1.497   3.733   1.077  0.5781 -0.2963  1.9656
27997SOL     OW88837   0.236   9.588   5.457 -0.3304 -0.3602 -0.3718
27997SOL    HW188838   0.185   9.523   5.409 -2.6368 -0.3756  1.8664
27997SOL    HW288839   0.258   9.546   5.540 -0.4709  1.1396  0.4702
27998SOL     OW88840   4.047   7.644   1.473 -0.4826 -0.6625  0.1796
27998SOL    HW188841   3.955   7.627   1.492 -0.5011 -1.4245 -0.5214
27998SOL    HW288842   4.045   7.697   1.393 -0.3072 -1.1391 -0.1455
27999SOL     OW88843   4.938   3.444   7.366 -0.3228 -0.2245 -0.7147
27999SOL    HW188844   4.879   3.385   7.414  0.9858 -0.2410  1.0068
27999SOL    HW288845   5.012   3.388   7.342  0.9219  0.6310  0.9113
28000SOL     OW88846   8.947   8.096   8.308 -0.3562 -0.8102  0.0718
28000SOL    HW188847   9.035   8.103   8.271  0.3637 -2.3788  1.3422
28000SOL    HW288848   8.956   8.128   8.398 -1.4332  0.3431 -0.2029
28001SOL     OW88849   6.164   1.718   8.863  0.6448 -1.1440 -0.1938
28001SOL    HW188850   6.074   1.743   8.844  1.1595  0.0448 -1.2160
28001SOL    HW288851   6.214   1.751   8.788  1.8908 -2.0267  0.2189
28002SOL     OW88852   0.985   6.805   5.303 -0.3163  0.2296 -0.0887
28002SOL    HW188853   0.930   6.744   5.354 -0.3065  0.4355  0.1680
28002SOL    HW288854   1.037   6.748   5.247 -1.7854  0.0686 -1.3626
28003SOL     OW88855   6.457   8.297   6.331 -0.3679 -0.0317  0.2044
28003SOL    HW188856   6.516   8.305   6.256 -0.0737  0.3256  0.4671
28003SOL    HW288857   6.499   8.349   6.400 -0.7365 -0.1898  0.5529
28004SOL     OW88858   3.603   8.484   4.958  0.2906  0.0333 -0.4544
28004SOL    HW188859   3.642   8.570   4.975 -0.4462  0.7661 -2.2325
28004SOL    HW288860   3.515   8.489   4.995 -0.2846  0.6094 -1.8318
28005SOL     OW88861   4.605   3.336   7.389 -0.1061 -0.5525 -0.4457
28005SOL    HW188862   4.673   3.280   7.426 -0.3513 -1.6424 -1.5520
28005SOL    HW288863   4.596   3.408   7.451  1.8032 -0.5615 -0.1181
28006SOL     OW88864   6.613   4.367   1.605 -0.0602  0.2604 -0.1893
28006SOL    HW188865   6.559   4.437   1.566 -2.2155 -1.2293 -0.0426
28006SOL    HW288866   6.555   4.324   1.668  1.7765 -0.5879  1.0193
28007SOL     OW88867   6.138   9.455   5.576 -0.9713  0.4848  0.7064
28007SOL    HW188868   6.056   9.429   5.536 -0.8955 -1.5694  1.7599
28007SOL    HW288869   6.131   9.426   5.667  0.6891  0.7672  0.9633
28008SOL     OW88870   0.627   9.608   0.912 -0.0839  0.3749 -0.1414
28008SOL    HW188871   0.545   9.559   0.908 -0.6132  1.2341 -0.2370
28008SOL    HW288872   0.679   9.576   0.838 -0.0333 -0.6828  0.3401
28009SOL     OW88873   3.888   2.842   3.850  0.7561  0.0784 -0.3966
28009SOL    HW188874   3.916   2.921   3.803  1.2393  0.2871  0.2166
28009SOL    HW288875   3.859   2.782   3.782  1.5633  0.3236 -0.9697
28010SOL     OW88876   0.552   5.954   5.096  0.1250  0.0079  0.2843
28010SOL    HW188877   0.616   6.015   5.133 -2.0852  2.0106  1.0185
28010SOL    HW288878   0.483   5.947   5.162 -2.1132  0.7026 -1.8205
28011SOL     OW88879   0.583   4.589   5.308 -0.6617 -0.2595 -0.3216
28011SOL    HW188880   0.512   4.574   5.246 -1.9438 -0.2298  1.0934
28011SOL    HW288881   0.623   4.503   5.321 -0.9491 -0.4208 -0.5143
28012SOL     OW88882   1.826   7.615   5.128 -0.6178  0.3103 -0.1595
28012SOL    HW188883   1.909   7.662   5.135 -1.2607  1.6099 -0.8458
28012SOL    HW288884   1.784   7.627   5.213  0.9185 -2.4934  1.1198
28013SOL     OW88885   3.847   4.095   1.388 -0.1143 -0.8998 -0.1049
28013SOL    HW188886   3.886   4.112   1.474 -0.3530  2.3056 -0.4895
28013SOL    HW288887   3.911   4.041   1.342  0.4601 -1.8433  1.7107
28014SOL     OW88888   1.743   4.608   4.297 -0.5178 -0.6123 -0.1539
28014SOL    HW188889   1.785   4.629   4.381  0.9880 -1.6561 -0.6033
28014SOL    HW288890   1.803   4.545   4.256  0.3035  1.9352 -3.2915
28015SOL     OW88891   7.739   4.016   8.776 -0.2712 -0.1573 -0.5784
28015SOL    HW188892   7.816   4.007   8.719 -0.1088 -0.3271 -0.3391
28015SOL    HW288893   7.774   4.057   8.856 -0.4166 -0.2954 -0.4438
28016SOL     OW88894   2.479   8.902   8.484 -0.2086 -0.4354  0.4623
28016SOL    HW188895   2.448   8.971   8.543 -1.1965 -1.9159  1.7449
28016SOL    HW288896   2.409   8.837   8.484  0.8194 -1.5920 -0.4906
28017SOL     OW88897   3.588   3.876   4.024 -0.1370 -0.0055  0.0370
28017SOL    HW188898   3.666   3.825   4.002 -0.9886 -0.5094 -2.1027
28017SOL    HW288899   3.621   3.952   4.072  1.7390  0.0089 -1.1699
28018SOL     OW88900   2.279   2.949   4.768  0.4264 -0.5008  0.3474
28018SOL    HW188901   2.230   2.974   4.846 -0.6613 -2.1478  0.2343
28018SOL    HW288902   2.222   2.887   4.722  1.3397 -0.1364 -1.3957
28019SOL     OW88903   5.984   8.107   0.093  0.2147  0.6051 -0.2127
28019SOL    HW188904   5.988   8.012   0.084  1.0774  0.5611  0.4954
28019SOL    HW288905   6.041   8.140   0.024 -0.1427  0.6092 -0.5052
28020SOL     OW88906   2.140   6.600   9.609 -0.2274  0.3264  0.3612
28020SOL    HW188907   2.087   6.678   9.626 -0.5202  0.5244 -1.3059
28020SOL    HW288908   2.222   6.617   9.654 -0.7143  1.0636  1.0031
28021SOL     OW88909   1.886   3.169   4.190  0.2697 -0.1616 -0.3464
28021SOL    HW188910   1.871   3.079   4.160  1.7121 -0.4709 -0.1843
28021SOL    HW288911   1.910   3.217   4.110  1.3348 -0.3515 -0.1513
28022SOL     OW88912   6.090   6.154   7.073  0.1945  0.5500  0.5126
28022SOL    HW188913   6.012   6.181   7.024  0.7371  1.0861 -0.0800
28022SOL    HW288914   6.146   6.232   7.073  1.2024 -0.1561 -0.0208
28023SOL     OW88915   9.331   1.325   1.065  0.1085 -0.1831 -0.7245
28023SOL    HW188916   9.358   1.293   1.151  1.1861 -0.0269 -0.9823
28023SOL    HW288917   9.408   1.312   1.009 -0.2896  0.4822 -1.4573
28024SOL     OW88918   6.864   3.633   8.571 -0.1484 -0.4797 -0.4064
28024SOL    HW188919   6.811   3.677   8.638 -0.8662  1.0493 -1.9032
28024SOL    HW288920   6.946   3.682   8.568  0.0393 -0.7857 -0.3915
28025SOL     OW88921   9.374   6.570   6.186  0.3837 -0.3924  0.1075
28025SOL    HW188922   9.398   6.494   6.240  0.6464  0.1345  0.7382
28025SOL    HW288923   9.421   6.555   6.103 -1.3953 -2.0967 -0.6921
28026SOL     OW88924   7.917   2.491   6.900 -0.2889  0.3656  0.0413
28026SOL    HW188925   7.870   2.447   6.971 -0.1637 -0.7923 -0.5694
28026SOL    HW288926   7.858   2.560   6.871 -1.1498 -0.3478  0.0407
28027SOL     OW88927   0.488   0.380   4.017 -0.3445  0.2866 -0.2992
28027SOL    HW188928   0.487   0.465   4.060  1.4312  0.4675 -0.5568
28027SOL    HW288929   0.516   0.399   3.927  1.6253 -0.7033  0.0543
28028SOL     OW88930   1.262   3.380   4.061 -0.0479  0.6842  0.1118
28028SOL    HW188931   1.273   3.440   3.987 -2.0767 -0.3919 -1.1450
28028SOL    HW288932   1.340   3.325   4.059 -0.1002  0.6313 -1.3029
28029SOL     OW88933   1.885   7.940   5.923  0.2997 -0.6225 -0.2572
28029SOL    HW188934   1.952   7.970   5.985  0.1364  0.6660 -0.6784
28029SOL    HW288935   1.902   7.846   5.913  0.5532 -0.7944  1.4496
28030SOL     OW88936   7.974   6.719   2.957  0.6239 -1.1177 -0.3673
28030SOL    HW188937   7.949   6.634   2.921 -0.0289 -1.4101  0.7318
28030SOL    HW288938   8.065   6.707   2.984  0.6470 -1.3502 -0.5449
28031SOL     OW88939   7.524   5.449   5.120  0.2255 -0.1430 -0.3618
28031SOL    HW188940   7.496   5.395   5.194 -0.2488  0.5626 -0.0031
28031SOL    HW288941   7.443   5.481   5.082  0.3785  3.2501  1.6813
28032SOL     OW88942   7.544   2.078   8.730  0.7988  0.0784  0.0896
28032SOL    HW188943   7.600   2.026   8.672 -0.5642 -1.2252 -0.1058
28032SOL    HW288944   7.522   2.019   8.802 -0.3872  0.5171  0.1140
28033SOL     OW88945   2.052   3.515   5.405  0.4112  0.4447  0.1232
28033SOL    HW188946   2.085   3.584   5.462 -0.5975  2.0590 -1.1497
28033SOL    HW288947   2.112   3.514   5.331  0.1880  0.2316 -0.0575
28034SOL     OW88948   8.929   7.258   4.458  0.3182 -0.2345 -0.0265
28034SOL    HW188949   8.932   7.163   4.453 -0.1466 -0.4223  2.2216
28034SOL    HW288950   9.020   7.285   4.450  0.3341 -0.7289 -2.0153
28035SOL     OW88951   0.981   7.415   2.873 -0.3249 -0.7449  0.1294
28035SOL    HW188952   0.990   7.479   2.802 -0.5025  0.8297  1.4705
28035SOL    HW288953   0.988   7.330   2.830 -3.1531  0.0600 -2.1976
28036SOL     OW88954   3.318   3.964   4.944  0.3805  0.6280  0.0688
28036SOL    HW188955   3.250   4.031   4.951  0.2086  0.3823  0.8645
28036SOL    HW288956   3.317   3.938   4.852 -1.7836 -0.5817  0.3782
28037SOL     OW88957   0.029   0.059   0.786  0.4489 -0.3664 -0.2919
28037SOL    HW188958   0.066  -0.014   0.736  0.3178 -1.7730  1.5420
28037SOL    HW288959  -0.051   0.022   0.825 -1.2076  1.6493 -1.6262
28038SOL     OW88960   6.923   0.729   2.313  0.2184  0.6131  0.1468
28038SOL    HW188961   6.995   0.768   2.265  0.0734 -2.0718 -2.5583
28038SOL    HW288962   6.894   0.797   2.373  3.8972  2.3453  0.2220
28039SOL     OW88963   9.022   6.875   1.560  0.1886  0.7107 -0.8205
28039SOL    HW188964   9.087   6.880   1.630  0.2649  0.1524 -0.8524
28039SOL    HW288965   8.961   6.947   1.579 -0.1622  0.1696  0.1824
28040SOL     OW88966   5.030   6.455   2.198 -0.3966 -0.3210 -0.4356
28040SOL    HW188967   4.953   6.456   2.255 -1.0819  0.8219 -1.3365
28040SOL    HW288968   5.102   6.430   2.256 -1.0631  0.7793  0.9373
28041SOL     OW88969   2.105   8.620   0.183  0.8106  0.0391 -0.2126
28041SOL    HW188970   2.187   8.617   0.134 -0.0812 -0.2920 -1.7326
28041SOL    HW288971   2.042   8.573   0.128 -0.0214 -1.2116  1.6830
28042SOL     OW88972   2.732   6.309   1.228 -0.2019  0.4687  0.0763
28042SOL    HW188973   2.765   6.369   1.161  0.5725 -0.0707 -0.0379
28042SOL    HW288974   2.706   6.230   1.180  1.2812 -0.3042  0.4858
28043SOL     OW88975   3.051   5.683   9.182  0.5315 -0.9344  0.3448
28043SOL    HW188976   3.140   5.717   9.188  0.1594  0.1775 -0.1097
28043SOL    HW288977   3.018   5.686   9.272  0.2480  0.7180  0.2286
28044SOL     OW88978   1.742   5.770   5.959 -0.5235 -0.5524  0.1401
28044SOL    HW188979   1.654   5.735   5.943 -0.4398 -0.4435 -0.6209
28044SOL    HW288980   1.786   5.702   6.011 -1.0198 -0.6590  0.4197
28045SOL     OW88981   6.063   0.105   9.022 -0.3970 -0.1382 -0.4462
28045SOL    HW188982   6.095   0.188   9.059 -0.8691 -0.1342 -0.0281
28045SOL    HW288983   6.076   0.114   8.928  1.6368 -0.4827 -0.2469
28046SOL     OW88984   5.490   9.651   7.617 -0.8625 -0.0126 -0.2277
28046SOL    HW188985   5.568   9.638   7.672 -1.0058  0.6803  0.1629
28046SOL    HW288986   5.518   9.714   7.551 -0.3911 -1.6103 -1.6232
28047SOL     OW88987   6.216   9.445   3.554  0.1664 -0.0258  0.3180
28047SOL    HW188988   6.233   9.375   3.491 -0.2483 -0.6018  0.8331
28047SOL    HW288989   6.121   9.455   3.552  0.2878  1.3068 -0.5681
28048SOL     OW88990   0.306   8.086   4.641 -0.0684  0.2236 -0.6421
28048SOL    HW188991   0.401   8.090   4.631 -0.1054  0.7650 -0.7805
28048SOL    HW288992   0.282   8.167   4.686 -0.4293 -0.0639 -0.3084
28049SOL     OW88993   7.652   3.958   3.474 -0.0161 -0.3018 -0.2159
28049SOL    HW188994   7.678   3.920   3.557 -2.3393 -1.1249  0.1875
28049SOL    HW288995   7.705   4.038   3.466  0.9440 -0.7288  1.5438
28050SOL     OW88996   9.124   9.609   2.192 -0.3514 -0.1501 -0.3235
28050SOL    HW188997   9.210   9.572   2.209 -0.1803  0.5932  0.4677
28050SOL    HW288998   9.062   9.542   2.221 -0.0448  0.1716  1.1634
28051SOL     OW88999   1.106   6.139   8.180 -0.6468 -0.2858 -0.3922
28051SOL    HW189000   1.189   6.118   8.138 -1.4250 -2.0412 -1.1692
28051SOL    HW289001   1.107   6.089   8.262 -0.9281 -0.3356 -0.4167
28052SOL     OW89002   0.757   9.255   3.764  0.4690 -0.0477 -0.4356
28052SOL    HW189003   0.747   9.342   3.726 -0.3502 -0.2837 -0.7873
28052SOL    HW289004   0.679   9.207   3.735 -0.7666  0.0418  2.3855
28053SOL     OW89005   4.006   1.592   5.272  0.1810 -0.2960 -0.1221
28053SOL    HW189006   4.042   1.505   5.290  1.7182  0.1118 -1.0945
28053SOL    HW289007   3.969   1.585   5.184  1.0489  0.2332 -0.5423
28054SOL     OW89008   1.315   4.217   1.098 -0.2659  0.2224  0.2067
28054SOL    HW189009   1.394   4.268   1.114 -0.8733  0.6599  2.1345
28054SOL    HW289010   1.335   4.164   1.021  1.8653  0.3856  0.5935
28055SOL     OW89011   5.085   1.796   2.260  0.1465 -0.4271 -0.6182
28055SOL    HW189012   5.024   1.734   2.218  1.9076 -2.3329 -0.4990
28055SOL    HW289013   5.159   1.801   2.200 -0.1336  2.0192 -0.8593
28056SOL     OW89014   3.795   8.238   8.531 -0.1231 -0.2963  0.0774
28056SOL    HW189015   3.829   8.315   8.576  0.1026 -0.7493  0.6981
28056SOL    HW289016   3.706   8.264   8.504  0.8036  1.0403 -1.9409
28057SOL     OW89017   8.816   6.248   2.141 -0.3250  0.7024 -0.0866
28057SOL    HW189018   8.833   6.341   2.156  1.2435  0.3020  0.8231
28057SOL    HW289019   8.829   6.207   2.226 -1.2161 -0.3447 -0.4278
28058SOL     OW89020   3.554   6.155   2.866 -0.3171  0.8744  0.2312
28058SOL    HW189021   3.587   6.105   2.941  0.3674  0.9863  0.0030
28058SOL    HW289022   3.609   6.128   2.793 -0.8526  0.9192 -0.1929
28059SOL     OW89023   3.883   7.831   8.511 -0.7374 -0.2828 -0.2253
28059SOL    HW189024   3.927   7.888   8.449 -1.4244  0.3581 -0.1379
28059SOL    HW289025   3.881   7.745   8.467  2.7700 -1.0277  0.7817
28060SOL     OW89026   2.216   0.043   1.137 -0.2123  0.5625 -0.0605
28060SOL    HW189027   2.219  -0.048   1.111  1.7727  0.0575  1.6544
28060SOL    HW289028   2.129   0.054   1.176 -1.2488  0.0096 -2.1006
28061SOL     OW89029   7.482   6.034   5.186  0.5551 -0.1093 -0.1789
28061SOL    HW189030   7.464   5.981   5.108 -4.1491 -1.1348  1.2667
28061SOL    HW289031   7.442   6.119   5.167 -0.2364 -0.2232  0.8682
28062SOL     OW89032   6.087   1.884   5.611 -0.3539 -0.1200 -0.6653
28062SOL    HW189033   6.121   1.820   5.673 -1.3509 -1.5862 -1.5773
28062SOL    HW289034   6.165   1.924   5.572  0.2864 -0.8291 -0.1410
28063SOL     OW89035   6.450   0.182   8.459 -0.6221  0.1636 -0.2662
28063SOL    HW189036   6.431   0.231   8.539 -1.0625  0.2209 -0.4049
28063SOL    HW289037   6.545   0.169   8.461 -0.6165  0.2631  0.2075
28064SOL     OW89038   2.725   4.400   9.574  0.6402 -0.1941 -0.5646
28064SOL    HW189039   2.671   4.388   9.652  1.1990 -0.8086 -0.2690
28064SOL    HW289040   2.677   4.355   9.505  1.4403 -2.0047 -0.0031
28065SOL     OW89041   7.940   2.254   7.401 -0.0382 -0.2738 -0.0974
28065SOL    HW189042   8.032   2.257   7.374 -0.4286 -0.5127 -1.5400
28065SOL    HW289043   7.931   2.325   7.465  1.1205 -0.1942 -0.0094
28066SOL     OW89044   8.207   7.691   2.292  0.0178 -0.3099 -0.1696
28066SOL    HW189045   8.163   7.608   2.272  0.5665 -0.5398 -0.4573
28066SOL    HW289046   8.146   7.758   2.263 -1.8533 -0.4875  2.8321
28067SOL     OW89047   5.153   7.331   0.802  0.0248 -0.0257  0.4985
28067SOL    HW189048   5.244   7.344   0.828 -0.4275  0.2888  2.0776
28067SOL    HW289049   5.103   7.352   0.881 -1.4832  0.7719 -0.6172
28068SOL     OW89050   1.102   6.447   7.165 -0.1994  0.3673 -0.2687
28068SOL    HW189051   1.054   6.413   7.090 -1.5726  2.1113 -0.2659
28068SOL    HW289052   1.189   6.406   7.160 -0.8327 -0.8617 -1.7929
28069SOL     OW89053   2.556   8.468   4.257 -0.0956 -0.3442  0.4030
28069SOL    HW189054   2.469   8.485   4.223  0.0559 -0.5200 -0.0778
28069SOL    HW289055   2.541   8.427   4.342 -0.4727  0.2910  0.6498
28070SOL     OW89056   3.933   5.944   4.987 -0.5869  0.3713  0.3965
28070SOL    HW189057   4.013   5.940   4.935 -0.6168 -0.1697  0.3797
28070SOL    HW289058   3.961   5.972   5.074 -0.3164 -0.1865  0.4953
28071SOL     OW89059   4.109   1.652   3.682 -0.4242  0.0088 -0.1919
28071SOL    HW189060   4.103   1.563   3.647  1.5927 -0.0644 -0.4670
28071SOL    HW289061   4.202   1.665   3.701 -1.0219  1.1095  2.4402
28072SOL     OW89062   5.819   3.420   2.719 -0.3242 -0.8097 -0.4759
28072SOL    HW189063   5.748   3.370   2.760 -0.4442 -0.9523 -0.8495
28072SOL    HW289064   5.779   3.503   2.695  0.2539  0.1047  1.5279
28073SOL     OW89065   4.972   1.206   8.786  0.0207 -0.2907 -0.0010
28073SOL    HW189066   5.050   1.182   8.736 -0.3698 -1.2632 -0.1605
28073SOL    HW289067   4.951   1.294   8.757  0.5288 -0.3709 -0.6301
28074SOL     OW89068   8.019   4.324   4.821  0.0081  0.1721  0.0673
28074SOL    HW189069   8.068   4.317   4.902 -1.9604  0.6945  1.3714
28074SOL    HW289070   7.975   4.409   4.826  0.0348  0.3254 -1.6745
28075SOL     OW89071   6.998   4.702   2.882 -0.1314  0.0711  0.1489
28075SOL    HW189072   7.076   4.741   2.843 -0.7248  3.5039  1.9810
28075SOL    HW289073   6.962   4.771   2.937 -3.3992 -2.0293  0.9272
28076SOL     OW89074   3.317   2.753   6.450  0.1240  0.1598 -0.3380
28076SOL    HW189075   3.257   2.725   6.519 -0.5018 -0.5348 -1.1309
28076SOL    HW289076   3.377   2.679   6.438  0.1995  0.2546 -0.5621
28077SOL     OW89077   5.323   8.705   5.714  0.4231 -0.0766 -0.4103
28077SOL    HW189078   5.239   8.698   5.668 -0.3324 -2.8175  1.0889
28077SOL    HW289079   5.352   8.794   5.699 -3.0432  1.1908 -0.5932
28078SOL     OW89080   2.096   0.665   0.088  0.2981  0.2174  0.1443
28078SOL    HW189081   2.181   0.636   0.054  0.3926 -0.6297  1.0527
28078SOL    HW289082   2.099   0.760   0.082  1.6568  0.2459  0.9592
28079SOL     OW89083   4.758   7.900   5.999  0.0205 -0.0835  0.1416
28079SOL    HW189084   4.726   7.918   5.910  0.8768  1.2026  0.0590
28079SOL    HW289085   4.848   7.870   5.987  0.6276  1.4406  0.6048
28080SOL     OW89086   8.344   0.737   6.848 -0.1811  0.4801 -0.5262
28080SOL    HW189087   8.356   0.820   6.802 -0.5469  1.1088  0.4773
28080SOL    HW289088   8.251   0.736   6.872 -1.1698 -1.9811 -3.7943
28081SOL     OW89089   6.813   2.795   6.426  0.6583 -0.2566  0.3106
28081SOL    HW189090   6.795   2.804   6.519  2.6871  0.1082  0.7112
28081SOL    HW289091   6.822   2.700   6.413 -0.8605 -0.4097  0.1957
28082SOL     OW89092   5.882   9.424   5.476  0.0431 -0.2126 -0.2123
28082SOL    HW189093   5.837   9.488   5.532 -0.8937  0.5416 -1.7707
28082SOL    HW289094   5.817   9.356   5.461 -0.0653  0.0899 -1.1757
28083SOL     OW89095   0.843   9.688   4.901  0.8956  0.1399  0.1566
28083SOL    HW189096   0.871   9.667   4.812  1.1159  0.7983  0.0647
28083SOL    HW289097   0.899   9.761   4.927  0.2616  0.5084  0.5166
28084SOL     OW89098   3.188   3.883   0.167  0.1428  0.4705 -0.2689
28084SOL    HW189099   3.103   3.917   0.141 -0.6583 -1.6895 -0.7197
28084SOL    HW289100   3.202   3.916   0.255 -1.2419  0.7323 -0.1317
28085SOL     OW89101   0.390   7.583   0.587 -0.1789  0.5840  0.2692
28085SOL    HW189102   0.406   7.677   0.583  0.1331  0.4913 -1.3211
28085SOL    HW289103   0.465   7.548   0.636  0.6176  0.9842 -0.6410
28086SOL     OW89104   8.487   2.817   1.936 -0.3482  0.0092 -1.0439
28086SOL    HW189105   8.439   2.817   2.019  1.0467  0.7114 -0.2101
28086SOL    HW289106   8.547   2.891   1.943  3.3489 -2.7688 -0.5152
28087SOL     OW89107   0.206   7.225   4.907 -0.2642  0.4075  0.5701
28087SOL    HW189108   0.152   7.201   4.832 -2.0079 -2.1753  2.4743
28087SOL    HW289109   0.295   7.203   4.881 -0.6687  0.6482 -1.1119
28088SOL     OW89110   0.945   2.904   5.305 -0.0598  0.6031  0.0226
28088SOL    HW189111   0.931   2.921   5.212  2.2102  3.8447  0.1001
28088SOL    HW289112   1.031   2.861   5.308  0.3822  1.4830  0.6040
28089SOL     OW89113   8.037   7.545   0.201  0.7660 -0.1313  0.0228
28089SOL    HW189114   8.130   7.548   0.176  0.2764  2.1852 -1.9258
28089SOL    HW289115   7.993   7.599   0.135 -1.6941  0.5457  2.0661
28090SOL     OW89116   8.179   3.723   1.482 -0.7078 -0.0778  0.6246
28090SOL    HW189117   8.141   3.652   1.430  3.1270 -3.7401  2.2955
28090SOL    HW289118   8.152   3.705   1.571  1.5646 -0.4470  1.2926
28091SOL     OW89119   7.496   7.824   8.793  0.0247  0.3214  0.7118
28091SOL    HW189120   7.552   7.800   8.719  1.2882  1.1210  1.3650
28091SOL    HW289121   7.431   7.884   8.756 -0.3278 -0.5017 -0.0328
28092SOL     OW89122   0.656   7.853   3.139 -0.4257  0.3827 -0.0703
28092SOL    HW189123   0.596   7.780   3.125  1.1248 -0.7101 -1.4210
28092SOL    HW289124   0.601   7.924   3.172 -2.1958 -0.9810  0.0480
28093SOL     OW89125   6.184   5.754   2.430 -0.0753  0.5259  0.1354
28093SOL    HW189126   6.249   5.817   2.460  0.9218  1.0329 -2.7492
28093SOL    HW289127   6.107   5.806   2.411  0.5601  0.8703 -1.6951
28094SOL     OW89128   0.228   5.719   6.397 -0.1953 -0.1924  0.2761
28094SOL    HW189129   0.174   5.746   6.472  0.7400  0.2734  0.7970
28094SOL    HW289130   0.194   5.633   6.374 -2.3618  0.8287 -0.5799
28095SOL     OW89131   2.273   3.279   1.557 -0.7396 -0.1319  0.1019
28095SOL    HW189132   2.206   3.255   1.622 -0.9383 -0.8343 -0.3523
28095SOL    HW289133   2.222   3.303   1.480 -0.4767 -0.0691 -0.0493
28096SOL     OW89134   2.816   2.595   5.794  0.0974  0.4767  0.3383
28096SOL    HW189135   2.799   2.513   5.840 -0.6971  1.1505  1.2827
28096SOL    HW289136   2.739   2.607   5.738  0.1881  0.6071  0.2406
28097SOL     OW89137   4.897   4.350   3.048 -0.1256 -0.5927  0.5958
28097SOL    HW189138   4.960   4.378   3.115  0.8111 -1.4510  0.1143
28097SOL    HW289139   4.951   4.326   2.973 -1.2132  1.3656 -0.9044
28098SOL     OW89140   3.082   7.594   0.170  0.5639  0.1695 -0.4939
28098SOL    HW189141   3.029   7.585   0.091 -0.6421 -3.5328  0.5359
28098SOL    HW289142   3.136   7.515   0.172  0.1962 -0.1207  2.5874
28099SOL     OW89143   0.439   7.365   8.914  0.0138  0.3999  0.0944
28099SOL    HW189144   0.350   7.395   8.931 -0.9457 -1.3640 -1.4075
28099SOL    HW289145   0.431   7.270   8.904  2.1676  0.1335  0.4636
28100SOL     OW89146   8.116   6.682   7.924  0.0101 -0.4752 -0.3295
28100SOL    HW189147   8.102   6.668   8.017  2.9507  0.2895  0.3242
28100SOL    HW289148   8.066   6.761   7.903  1.1716  0.7275  1.2063
28101SOL     OW89149   5.033   7.326   3.985 -0.1442 -0.6639  0.0285
28101SOL    HW189150   5.003   7.274   4.060  0.0208 -0.0487  0.5253
28101SOL    HW289151   5.000   7.414   4.002  0.8118 -0.2740 -0.0777
28102SOL     OW89152   4.091   1.824   4.204  0.0197 -0.6440 -0.3630
28102SOL    HW189153   4.182   1.802   4.181 -0.4466 -1.6239 -1.3059
28102SOL    HW289154   4.078   1.783   4.289  0.7437  0.3125  0.2408
28103SOL     OW89155   0.392   4.234   4.465  0.2902 -0.4833 -0.6723
28103SOL    HW189156   0.461   4.245   4.401  1.1957 -2.7998 -0.2151
28103SOL    HW289157   0.411   4.149   4.507 -0.3753  0.7585  2.4722
28104SOL     OW89158   7.806   5.122   2.213  0.1612  0.0112 -0.4321
28104SOL    HW189159   7.815   5.114   2.118  0.5574  0.4139 -0.4337
28104SOL    HW289160   7.761   5.205   2.226  0.4212  0.1277 -0.2580
28105SOL     OW89161   0.622   4.933   8.392 -0.4598  0.1423  0.5192
28105SOL    HW189162   0.630   4.877   8.315 -0.5969 -0.4836  0.9562
28105SOL    HW289163   0.666   5.015   8.367  1.2063 -0.7347  0.4499
28106SOL     OW89164   4.840   4.466   4.871  0.0019 -0.2132  0.0198
28106SOL    HW189165   4.919   4.518   4.884  1.2806 -2.0606  0.0444
28106SOL    HW289166   4.818   4.480   4.779  0.1688  0.5513  0.0879
28107SOL     OW89167   4.648   3.539   0.482 -0.3322 -0.3748  0.0703
28107SOL    HW189168   4.688   3.577   0.560  3.2755 -3.3851 -0.0262
28107SOL    HW289169   4.612   3.456   0.513 -1.7880 -0.1525 -0.9294
28108SOL     OW89170   9.755   7.337   0.160  0.0534  0.2554  0.6033
28108SOL    HW189171   9.758   7.408   0.096 -0.3836  0.9932  1.3834
28108SOL    HW289172   9.697   7.272   0.122  1.4614 -0.2789 -0.7039
28109SOL     OW89173   5.362   2.965   5.295  0.4175  0.4781 -0.4152
28109SOL    HW189174   5.396   2.880   5.266 -0.4823  0.1557 -0.5755
28109SOL    HW289175   5.371   2.962   5.391 -0.0719 -0.0147 -0.3761
28110SOL     OW89176   4.684   2.846   7.080  0.3409  1.0017 -1.1894
28110SOL    HW189177   4.589   2.839   7.080  0.0080  3.1783  2.3507
28110SOL    HW289178   4.715   2.756   7.085 -1.7450  0.2931  1.1956
28111SOL     OW89179   9.222   2.729   2.370 -0.0166 -0.5572  0.5270
28111SOL    HW189180   9.144   2.674   2.363  0.9513 -2.1019  1.4199
28111SOL    HW289181   9.245   2.726   2.463  0.0420  1.4390  0.6221
28112SOL     OW89182   0.186   6.664   5.418  0.1449 -0.0632  0.1015
28112SOL    HW189183   0.225   6.596   5.472 -1.3459  0.2136  1.6442
28112SOL    HW289184   0.218   6.746   5.456  0.1370  0.1186 -0.2784
28113SOL     OW89185   7.550   3.564   5.632  0.0941  0.7687 -0.4419
28113SOL    HW189186   7.505   3.636   5.676 -0.1409  1.3398 -1.5687
28113SOL    HW289187   7.484   3.529   5.571 -0.1388 -1.0788  0.7725
28114SOL     OW89188   1.465   7.005   6.842 -0.2328 -0.2014  0.3789
28114SOL    HW189189   1.487   7.025   6.933  1.4804 -0.2910  0.0093
28114SOL    HW289190   1.524   7.059   6.790 -0.3960 -1.0017 -0.6834
28115SOL     OW89191   0.670   7.595   5.414 -0.3713  0.3477 -0.0506
28115SOL    HW189192   0.578   7.590   5.442 -0.4491  1.8057  0.0585
28115SOL    HW289193   0.669   7.657   5.341  0.5658  0.6313  0.1629
28116SOL     OW89194   1.668   9.296   7.764  0.0092  0.4777  0.0914
28116SOL    HW189195   1.651   9.389   7.752  0.6301  0.3684 -1.8560
28116SOL    HW289196   1.625   9.253   7.690 -1.4515 -0.9519  1.6872
28117SOL     OW89197   4.586   0.690   0.982  0.0415 -0.1137 -0.0277
28117SOL    HW189198   4.550   0.707   0.895 -0.0589 -1.3144 -0.2393
28117SOL    HW289199   4.519   0.639   1.026  0.2970  0.0769  0.5975
28118SOL     OW89200   8.405   7.135   3.998 -0.6763 -0.0583  0.0521
28118SOL    HW189201   8.416   7.229   3.983 -3.2582  0.2190 -0.4636
28118SOL    HW289202   8.398   7.098   3.910 -3.0577 -0.2224  0.2632
28119SOL     OW89203   0.672   4.218   9.583  0.3364 -0.1417 -0.3376
28119SOL    HW189204   0.617   4.267   9.644 -1.6021 -0.0948 -2.0325
28119SOL    HW289205   0.747   4.276   9.568 -0.7832  1.3285 -0.5191
28120SOL     OW89206   8.165   1.177   2.283  0.1492  0.1631 -0.2255
28120SOL    HW189207   8.152   1.114   2.212  0.4053  0.3656 -0.4540
28120SOL    HW289208   8.141   1.261   2.245 -0.8814  0.1121  0.2955
28121SOL     OW89209   8.608   9.479   8.978 -0.0694 -0.0373 -0.1011
28121SOL    HW189210   8.572   9.413   9.037 -0.4448  0.9648  0.8195
28121SOL    HW289211   8.578   9.562   9.014  0.9668  0.6819 -0.8456
28122SOL     OW89212   2.854   1.484   2.540 -0.1944 -0.3308  0.3017
28122SOL    HW189213   2.941   1.515   2.518 -0.4614  1.3667  1.4363
28122SOL    HW289214   2.858   1.389   2.529  1.8235 -0.2923  0.4449
28123SOL     OW89215   1.446   0.243   8.436  0.3702  0.3024 -0.4088
28123SOL    HW189216   1.447   0.233   8.341  0.1296  1.0971 -0.4986
28123SOL    HW289217   1.389   0.318   8.452  0.5974  0.3206  0.3519
28124SOL     OW89218   2.491   3.596   7.839 -0.5970  1.0749  0.0351
28124SOL    HW189219   2.551   3.669   7.831 -0.4569  1.4352  3.3345
28124SOL    HW289220   2.405   3.637   7.849 -0.9796  0.6421 -1.2334
28125SOL     OW89221   9.391   4.677   3.229  0.0503  0.0822 -0.2395
28125SOL    HW189222   9.339   4.718   3.159  1.2287  0.0598 -1.1627
28125SOL    HW289223   9.346   4.594   3.246 -1.5911  1.1251  0.7084
28126SOL     OW89224   4.409   7.200   7.629 -0.1434  0.4622 -0.3650
28126SOL    HW189225   4.426   7.197   7.535  1.2542  0.0268 -0.1242
28126SOL    HW289226   4.345   7.130   7.644  0.6657 -0.4021 -0.8161
28127SOL     OW89227   1.743   9.266   8.595 -0.4225 -0.4266  0.5832
28127SOL    HW189228   1.656   9.239   8.566 -1.6227  0.3771  3.1149
28127SOL    HW289229   1.795   9.186   8.596 -0.7525 -0.7458 -1.9714
28128SOL     OW89230   5.561   8.462   1.794 -0.5545 -0.4536 -0.0286
28128SOL    HW189231   5.527   8.551   1.779  2.0167  0.5234 -0.7076
28128SOL    HW289232   5.547   8.446   1.887 -0.8756  0.7875  0.1553
28129SOL     OW89233   3.729   5.914   5.831  0.8051 -0.2080  0.8879
28129SOL    HW189234   3.766   5.983   5.885  1.7148 -0.2229  0.3129
28129SOL    HW289235   3.657   5.955   5.784  1.5234  0.4438  0.3288
28130SOL     OW89236   5.961   3.334   9.319  0.2953 -0.2763 -0.3752
28130SOL    HW189237   6.028   3.280   9.279 -0.8976 -0.4015 -2.3299
28130SOL    HW289238   5.880   3.284   9.309 -0.8528  1.7693 -2.2530
28131SOL     OW89239   5.851   8.167   0.636 -0.1138  0.1615  0.1850
28131SOL    HW189240   5.868   8.082   0.593  0.3786 -0.4378  1.5186
28131SOL    HW289241   5.882   8.232   0.573 -0.0185 -0.6683 -0.6497
28132SOL     OW89242   5.865   0.100   7.155 -0.5422 -0.1795  0.3664
28132SOL    HW189243   5.886   0.054   7.236  0.2122 -1.1589 -0.3514
28132SOL    HW289244   5.931   0.169   7.148 -1.1886  0.5279  1.0445
28133SOL     OW89245   2.014   5.282   3.002  0.3155  0.5231  0.7838
28133SOL    HW189246   2.020   5.299   2.908  0.9821 -1.3950  0.4382
28133SOL    HW289247   2.042   5.191   3.012 -1.9975 -0.0975  2.5663
28134SOL     OW89248   0.718   2.564   7.914 -0.0295  0.6259  0.1931
28134SOL    HW189249   0.742   2.486   7.964  0.5904  0.9584  0.4308
28134SOL    HW289250   0.651   2.534   7.853  2.4342 -0.8746 -2.0172
28135SOL     OW89251   5.119   0.929   0.898  0.0906 -0.0580 -0.7158
28135SOL    HW189252   5.036   0.946   0.853 -0.3520  0.3126  0.2165
28135SOL    HW289253   5.111   0.974   0.982  0.2303 -2.0565  0.4413
28136SOL     OW89254   5.901   0.010   3.770 -0.4794 -0.1386  0.6409
28136SOL    HW189255   5.900  -0.085   3.782  0.2027 -0.2668 -0.2146
28136SOL    HW289256   5.826   0.027   3.712 -1.1659 -0.0295  1.5362
28137SOL     OW89257   4.158   0.998   8.803 -0.2015 -0.1981  0.6593
28137SOL    HW189258   4.178   1.069   8.743 -1.7328 -0.4657 -0.2279
28137SOL    HW289259   4.092   1.035   8.862  1.4879  0.1573  2.4276
28138SOL     OW89260   7.089   0.978   4.395  0.0456  0.1715 -0.3868
28138SOL    HW189261   7.012   0.942   4.350  0.1635 -0.4411 -0.1135
28138SOL    HW289262   7.054   1.009   4.479  0.3600 -1.7465  0.5187
28139SOL     OW89263   7.864   1.408   0.641  0.0633  0.2498 -0.0611
28139SOL    HW189264   7.880   1.437   0.731  0.3154  2.1732 -0.6895
28139SOL    HW289265   7.951   1.383   0.608 -0.0541 -0.6307  0.2505
28140SOL     OW89266   2.071   2.505   2.656 -0.7138  0.4119 -0.2321
28140SOL    HW189267   2.147   2.447   2.658 -1.3011 -0.3969  1.6441
28140SOL    HW289268   1.997   2.447   2.677 -1.8499  1.1954 -1.8631
28141SOL     OW89269   1.486   4.532   4.385  0.8014  0.6611 -0.1791
28141SOL    HW189270   1.465   4.445   4.350 -0.9206  0.7374  0.5743
28141SOL    HW289271   1.576   4.548   4.357  0.1828 -0.0940 -2.8781
28142SOL     OW89272   0.543   2.007   9.734 -0.5769 -0.0319  0.3992
28142SOL    HW189273   0.602   2.070   9.692 -0.7156  0.7865  1.4102
28142SOL    HW289274   0.459   2.052   9.740 -0.1576  0.5064  3.0080
28143SOL     OW89275   8.301   7.153   5.926  0.0709  0.6024 -0.2703
28143SOL    HW189276   8.316   7.063   5.895 -0.1180 -0.0279  1.3680
28143SOL    HW289277   8.219   7.179   5.883 -0.2796 -0.3085 -0.1789
28144SOL     OW89278   5.122   9.027   7.581  0.0511 -0.1854  0.3345
28144SOL    HW189279   5.110   8.932   7.571  0.7522 -0.3860  1.2579
28144SOL    HW289280   5.207   9.035   7.625  0.4177  0.9103 -0.5282
28145SOL     OW89281   4.121   0.657   5.046 -0.2888 -0.3464 -0.4132
28145SOL    HW189282   4.125   0.579   5.102 -0.1023 -0.5880 -0.7588
28145SOL    HW289283   4.166   0.631   4.966 -0.0169  0.1938 -0.4420
28146SOL     OW89284   3.641   5.066   3.070 -0.0323 -0.0783  0.0423
28146SOL    HW189285   3.590   5.037   3.146  0.3887 -0.3168  0.2407
28146SOL    HW289286   3.722   5.101   3.108  0.6185 -1.1108 -0.3294
28147SOL     OW89287   2.419   8.297   1.257 -0.1737  0.0885  0.4751
28147SOL    HW189288   2.352   8.364   1.270 -1.2738 -0.5152 -1.7095
28147SOL    HW289289   2.499   8.347   1.238 -0.5326  0.7935  0.7774
28148SOL     OW89290   7.973   9.624   4.393  0.0290  0.6306 -0.3795
28148SOL    HW189291   8.007   9.694   4.337  1.0976  1.4450  1.2006
28148SOL    HW289292   7.880   9.643   4.402 -0.1469  0.5194 -1.7980
28149SOL     OW89293   8.837   4.921   9.025  0.0424 -0.3717 -0.3591
28149SOL    HW189294   8.856   5.012   9.003  0.1051 -0.4065 -0.4506
28149SOL    HW289295   8.779   4.926   9.101  1.6642 -0.2668  0.9345
28150SOL     OW89296   2.578   4.370   5.000 -0.0225  0.3349  0.1167
28150SOL    HW189297   2.491   4.390   5.033  0.9059  1.5033  1.9941
28150SOL    HW289298   2.580   4.274   4.993 -1.0190  0.2067  1.3147
28151SOL     OW89299   3.949   1.684   9.145  0.1640  0.1261  0.3124
28151SOL    HW189300   3.873   1.742   9.138  0.3602  0.2205 -1.9147
28151SOL    HW289301   3.945   1.648   9.234 -1.9453  0.8236  0.5450
28152SOL     OW89302   5.012   7.536   5.304 -0.0614 -0.4886  0.2099
28152SOL    HW189303   5.015   7.446   5.337 -1.2231 -0.2649  0.9863
28152SOL    HW289304   5.055   7.588   5.372 -2.6852  0.0082  1.6243
28153SOL     OW89305   0.420   5.958   6.591 -0.2248  0.0610 -0.2316
28153SOL    HW189306   0.376   5.966   6.506 -1.0745  1.2291  0.2964
28153SOL    HW289307   0.511   5.980   6.573 -0.4492  0.5581 -0.7846
28154SOL     OW89308   5.174   5.993   2.138 -0.4176  0.4547 -0.0852
28154SOL    HW189309   5.178   6.012   2.044  0.1382 -0.7817 -0.3391
28154SOL    HW289310   5.255   6.031   2.173 -1.1549  1.8887  0.1035
28155SOL     OW89311   5.853   7.893   3.897  0.0530 -0.0920  0.3183
28155SOL    HW189312   5.769   7.909   3.853 -0.0984 -0.1123  0.5988
28155SOL    HW289313   5.896   7.826   3.843  1.3726  2.2484 -1.7686
28156SOL     OW89314   9.280   1.688   2.481 -0.6702 -0.0521 -0.4189
28156SOL    HW189315   9.355   1.647   2.524  0.6237  0.9043 -1.6669
28156SOL    HW289316   9.220   1.616   2.463  0.4369 -1.0274 -0.3385
28157SOL     OW89317   8.111   8.264   2.656 -0.6394  0.0378  0.2713
28157SOL    HW189318   8.132   8.271   2.563 -0.0981 -1.6430  0.2164
28157SOL    HW289319   8.045   8.331   2.671 -0.5368  0.5347 -1.2613
28158SOL     OW89320   7.147   1.468   7.300  0.2787 -0.3187  0.0233
28158SOL    HW189321   7.167   1.541   7.242 -1.2717  0.6570  0.6477
28158SOL    HW289322   7.109   1.402   7.242  0.4472 -0.0932 -0.3498
28159SOL     OW89323   4.394   7.814   3.591 -0.3561 -0.0732 -0.5935
28159SOL    HW189324   4.300   7.827   3.603 -0.2682  0.2911 -0.2836
28159SOL    HW289325   4.402   7.723   3.562 -0.7050 -0.4896  0.5807
28160SOL     OW89326   0.457   4.111   9.422 -0.2387  0.7706 -0.0193
28160SOL    HW189327   0.413   4.075   9.499 -0.4267 -2.2925 -1.4115
28160SOL    HW289328   0.543   4.138   9.454 -0.4181 -0.1786  1.3291
28161SOL     OW89329   3.705   3.466   4.234  0.0538  0.1175  0.2300
28161SOL    HW189330   3.636   3.474   4.169 -0.8331 -1.9634  0.8531
28161SOL    HW289331   3.677   3.524   4.305 -0.5122  0.0939  0.0314
28162SOL     OW89332   9.406   5.433   1.667  0.1902  0.1663  0.8322
28162SOL    HW189333   9.339   5.406   1.730 -1.6526 -1.2165 -1.5578
28162SOL    HW289334   9.443   5.351   1.634  0.7759  0.8325 -0.2296
28163SOL     OW89335   2.913   2.095   6.850 -0.0939 -0.4941 -0.8371
28163SOL    HW189336   2.912   2.013   6.900 -0.1359 -1.1773 -1.9236
28163SOL    HW289337   2.910   2.067   6.758  0.7500  0.7013 -1.2533
28164SOL     OW89338   5.048   6.744   7.448  0.4629 -0.1620  0.5044
28164SOL    HW189339   5.000   6.826   7.435  2.0914  0.7106 -0.2760
28164SOL    HW289340   5.047   6.702   7.362  0.8399 -0.2850  0.5584
28165SOL     OW89341   3.663   0.243   8.712  0.2541 -0.1789  0.3576
28165SOL    HW189342   3.712   0.244   8.630 -1.5302 -1.0858 -0.7861
28165SOL    HW289343   3.649   0.336   8.733 -2.0723  0.1818 -2.2036
28166SOL     OW89344   6.437   3.198   5.139  0.6068  0.2967 -0.1195
28166SOL    HW189345   6.377   3.133   5.103  1.0109  0.4729 -1.1594
28166SOL    HW289346   6.524   3.164   5.120  0.8311  1.3970 -1.2192
28167SOL     OW89347   1.554   4.424   4.799 -0.2780 -0.4657 -0.1276
28167SOL    HW189348   1.638   4.382   4.818 -0.6505 -2.0719 -1.7231
28167SOL    HW289349   1.494   4.386   4.863  0.3599  1.5793  1.8168
28168SOL     OW89350   5.034   8.626   0.514 -0.1112  0.1146  0.1687
28168SOL    HW189351   4.956   8.658   0.559 -0.4985  0.1684 -0.5224
28168SOL    HW289352   5.019   8.648   0.422  0.1092 -1.0824 -0.1648
28169SOL     OW89353   9.712   5.721   4.688  0.0219 -0.4704 -0.5027
28169SOL    HW189354   9.695   5.775   4.765 -0.1674  0.3545 -1.1165
28169SOL    HW289355   9.714   5.631   4.722 -1.4361 -0.2426  0.2346
28170SOL     OW89356   5.756   5.516   8.083 -1.0346  0.6306  0.0654
28170SOL    HW189357   5.731   5.450   8.018 -0.9239 -0.2004  0.8580
28170SOL    HW289358   5.796   5.586   8.030 -1.4361  0.2175 -0.8147
28171SOL     OW89359   9.113   3.917   4.830 -0.0953  0.0463  0.2650
28171SOL    HW189360   9.086   3.973   4.757  0.0969  1.1792  1.0436
28171SOL    HW289361   9.181   3.967   4.875 -1.5918  0.2812  2.4113
28172SOL     OW89362   3.699   8.168   1.676  0.0080 -0.1965  0.1936
28172SOL    HW189363   3.786   8.135   1.697  0.7709 -0.2900 -2.6090
28172SOL    HW289364   3.658   8.096   1.628 -0.6667  0.6709 -0.5749
28173SOL     OW89365   6.656   0.983   0.154 -0.6804  0.5807 -0.8595
28173SOL    HW189366   6.748   1.005   0.169 -0.5487  0.2390 -1.1368
28173SOL    HW289367   6.620   0.966   0.241 -1.1154  3.0466 -0.4723
28174SOL     OW89368   4.011   6.711   8.009  0.6698  0.3025  0.3757
28174SOL    HW189369   3.991   6.798   7.973 -2.5425 -1.0584 -1.5147
28174SOL    HW289370   4.083   6.727   8.070  0.0172  4.3547  0.3747
28175SOL     OW89371   5.550   2.488   1.787  0.1500  0.3732  0.5716
28175SOL    HW189372   5.562   2.477   1.881 -0.7446  0.7928  0.7451
28175SOL    HW289373   5.477   2.550   1.779  0.2366  0.3681 -0.3939
28176SOL     OW89374   3.243   5.898   9.001 -0.0484  0.1431  0.8265
28176SOL    HW189375   3.237   5.929   9.092 -2.4751  0.8493  0.4852
28176SOL    HW289376   3.329   5.928   8.972  0.4285  0.6707  2.6082
28177SOL     OW89377   5.617   4.274   7.593  0.3771 -0.1670  0.1621
28177SOL    HW189378   5.705   4.243   7.612 -0.7842 -2.4865  2.3522
28177SOL    HW289379   5.604   4.256   7.500  2.0198 -0.2426 -0.0704
28178SOL     OW89380   5.289   2.620   4.182 -0.2124  0.8054  0.0799
28178SOL    HW189381   5.366   2.677   4.175 -1.1679  2.0775 -0.3251
28178SOL    HW289382   5.218   2.669   4.140 -0.7434 -1.3253 -1.7201
28179SOL     OW89383   1.733   8.122   1.563 -0.0451 -0.0526  0.2611
28179SOL    HW189384   1.780   8.131   1.481 -0.9664 -0.9248 -0.3851
28179SOL    HW289385   1.749   8.204   1.610  1.0411  0.1742 -0.4863
28180SOL     OW89386   1.074   6.094   5.535 -0.0608  0.4398  0.6277
28180SOL    HW189387   1.153   6.052   5.570  1.1466  2.4383  0.4419
28180SOL    HW289388   1.028   6.127   5.612  0.5231  1.3448  0.5931
28181SOL     OW89389   2.446   3.361   1.963  0.7249  0.1902 -0.8135
28181SOL    HW189390   2.427   3.411   1.884 -1.5509  0.2221 -0.3132
28181SOL    HW289391   2.443   3.425   2.034  1.1922 -0.0934 -0.5349
28182SOL     OW89392   6.800   0.003   3.656 -0.2014  0.0495 -0.2837
28182SOL    HW189393   6.882  -0.046   3.667 -0.0367  0.4556  0.3273
28182SOL    HW289394   6.742  -0.034   3.723  0.2987  1.4677  0.9787
28183SOL     OW89395   6.377   1.299   4.285 -0.3269  0.0082 -0.1514
28183SOL    HW189396   6.391   1.371   4.224  1.2418  0.6931  0.9523
28183SOL    HW289397   6.459   1.250   4.285 -0.3610 -0.0983  1.2333
28184SOL     OW89398   9.624   8.732   4.304 -0.5202  0.3368 -0.2927
28184SOL    HW189399   9.639   8.801   4.368 -1.1466  0.6856 -0.5254
28184SOL    HW289400   9.576   8.665   4.353  0.9561 -0.4127  0.2198
28185SOL     OW89401   8.204   2.209   8.316 -0.1493 -0.3273  0.2130
28185SOL    HW189402   8.130   2.257   8.279  1.2993  1.0325 -1.0930
28185SOL    HW289403   8.272   2.213   8.248  0.3288 -3.7054  0.3183
28186SOL     OW89404   1.081   3.052   3.313  0.1629 -0.3397  0.3527
28186SOL    HW189405   0.995   3.010   3.318 -0.7629  1.3031 -0.8496
28186SOL    HW289406   1.111   3.036   3.223  0.5608  0.1148  0.3973
28187SOL     OW89407   1.985   2.695   7.251 -0.3129 -0.4442  0.2129
28187SOL    HW189408   1.983   2.658   7.339  0.5088 -1.7621 -0.3046
28187SOL    HW289409   2.068   2.742   7.246 -0.9126  0.7135  0.5294
28188SOL     OW89410   1.685   5.776   9.314  0.0556  0.2940  0.6282
28188SOL    HW189411   1.607   5.830   9.320 -0.3767 -0.3313  0.7504
28188SOL    HW289412   1.740   5.820   9.250 -0.0671  1.1432  1.0903
28189SOL     OW89413   4.614   3.487   1.941 -0.2138 -0.2226  0.6552
28189SOL    HW189414   4.630   3.420   1.875 -0.3926 -0.8359  1.2216
28189SOL    HW289415   4.601   3.567   1.891 -0.4113 -0.6863 -0.0610
28190SOL     OW89416   4.489   8.959   9.450  0.0433  0.0838  0.2726
28190SOL    HW189417   4.523   8.963   9.360  0.6094  1.0433  0.5118
28190SOL    HW289418   4.568   8.951   9.504 -0.3009 -0.5608  0.6791
28191SOL     OW89419   7.301   7.763   3.160  0.1774  0.3309  0.2571
28191SOL    HW189420   7.358   7.689   3.139 -1.3346 -0.2969 -1.9736
28191SOL    HW289421   7.217   7.724   3.182 -0.6632  1.3411 -0.9928
28192SOL     OW89422   9.174   3.988   6.301  0.2782  0.2183 -0.2026
28192SOL    HW189423   9.173   4.032   6.386  2.2852  0.9454 -0.4828
28192SOL    HW289424   9.260   3.945   6.298 -0.1216 -0.5361 -1.5030
28193SOL     OW89425   5.607   1.304   8.307  0.1921 -0.2558  0.5956
28193SOL    HW189426   5.526   1.254   8.312  0.4113 -1.0534 -2.3064
28193SOL    HW289427   5.674   1.240   8.286  0.4535  1.0601 -3.4106
28194SOL     OW89428   1.364   2.072   3.489 -0.2527  0.3366 -0.4656
28194SOL    HW189429   1.454   2.041   3.484 -0.0455  0.6969  0.6944
28194SOL    HW289430   1.369   2.154   3.538 -1.0383  1.1803 -1.7215
28195SOL     OW89431   4.001   7.206   8.601 -0.0851 -0.4017  0.3016
28195SOL    HW189432   4.084   7.250   8.590 -0.9307  1.6714  1.6173
28195SOL    HW289433   4.020   7.133   8.660  0.8743 -0.2976  0.1365
28196SOL     OW89434   0.360   6.285   9.159  0.5217  0.1078  0.0086
28196SOL    HW189435   0.451   6.262   9.177  0.1561 -1.2427  0.2440
28196SOL    HW289436   0.338   6.237   9.079 -0.2140 -0.1912  0.3819
28197SOL     OW89437   5.062   5.671   9.057  0.2803  0.0160  0.0943
28197SOL    HW189438   5.113   5.700   9.132  1.4731 -0.4730 -0.4937
28197SOL    HW289439   4.974   5.706   9.072  0.0304 -1.3722  2.5164
28198SOL     OW89440   7.548   3.683   1.005 -0.5612  0.1294 -0.0244
28198SOL    HW189441   7.582   3.745   1.069 -1.0596  0.3754  0.0059
28198SOL    HW289442   7.603   3.605   1.014 -2.8565 -1.3366  3.3493
28199SOL     OW89443   9.205   3.046   8.575 -0.0271  0.6814 -0.1081
28199SOL    HW189444   9.176   3.078   8.490 -2.5365 -2.0762 -0.4712
28199SOL    HW289445   9.292   3.009   8.559 -0.1330  0.9121 -1.2703
28200SOL     OW89446   7.199   4.480   5.158  0.0839 -0.0908 -0.2311
28200SOL    HW189447   7.262   4.425   5.204 -0.9634  0.6081  2.1706
28200SOL    HW289448   7.142   4.418   5.112 -0.9532 -1.0979  2.2594
28201SOL     OW89449   9.490   9.711   0.769  0.6290  0.1237 -1.0212
28201SOL    HW189450   9.481   9.649   0.842 -1.2646  0.3897 -0.9809
28201SOL    HW289451   9.462   9.795   0.805  0.4665  0.4281 -1.8325
28202SOL     OW89452   7.773   7.119   3.429  0.2499  0.6499 -0.4988
28202SOL    HW189453   7.754   7.172   3.352 -1.0327  1.4551  0.3259
28202SOL    HW289454   7.741   7.172   3.503 -0.2777 -0.8919  0.4278
28203SOL     OW89455   9.213   9.312   6.927  0.7185  0.0502 -0.3509
28203SOL    HW189456   9.284   9.366   6.891  0.2757 -0.2061 -1.6834
28203SOL    HW289457   9.226   9.315   7.021  0.5089  2.7783 -0.3377
28204SOL     OW89458   3.853   9.708   3.778 -0.5948  0.5407  0.1919
28204SOL    HW189459   3.946   9.701   3.799 -0.3221  0.5061 -0.9357
28204SOL    HW289460   3.841   9.648   3.704 -0.8823  2.6171 -1.5335
28205SOL     OW89461   7.609   3.478   3.977  0.4867 -0.9158 -0.0170
28205SOL    HW189462   7.546   3.420   4.020  0.7920 -3.0448 -2.2203
28205SOL    HW289463   7.555   3.543   3.933 -0.1261 -1.7618 -0.5502
28206SOL     OW89464   2.574   5.066   6.470  0.5512 -0.0528  0.1576
28206SOL    HW189465   2.651   5.095   6.519 -0.0439  0.2795  0.9188
28206SOL    HW289466   2.609   5.010   6.401  1.5254  0.5964  0.1103
28207SOL     OW89467   1.081   0.630   7.251  1.1125  0.1304 -0.0420
28207SOL    HW189468   1.091   0.549   7.300 -0.4310  0.7864  1.4837
28207SOL    HW289469   1.167   0.672   7.255  1.1949 -0.1328  1.6113
28208SOL     OW89470   8.876   7.731   3.215 -0.4579 -0.0494 -0.3704
28208SOL    HW189471   8.873   7.657   3.155  0.7137 -0.3419 -0.0903
28208SOL    HW289472   8.961   7.723   3.260 -0.4602  1.2587 -0.0830
28209SOL     OW89473   0.604   5.951   6.108 -0.5698 -0.3782 -0.0172
28209SOL    HW189474   0.615   6.025   6.168 -0.6398 -0.5072  0.1548
28209SOL    HW289475   0.509   5.942   6.098 -0.6780 -2.0049  1.9095
28210SOL     OW89476   5.363   1.179   6.619 -0.0238 -0.1141  0.0132
28210SOL    HW189477   5.324   1.119   6.683 -0.5556 -0.6427 -0.7954
28210SOL    HW289478   5.454   1.190   6.649 -0.0335 -0.9964  0.4102
28211SOL     OW89479   9.367   4.820   4.748 -0.0191 -0.4338  0.2482
28211SOL    HW189480   9.427   4.749   4.769  0.6676  0.0198 -0.1665
28211SOL    HW289481   9.353   4.866   4.831 -1.0678 -1.4837  0.6898
28212SOL     OW89482   5.400   4.585   8.836 -0.2612  0.2204  0.1796
28212SOL    HW189483   5.346   4.594   8.915  0.0983  3.6332  0.2062
28212SOL    HW289484   5.344   4.619   8.765  0.6964  0.7434 -0.3458
28213SOL     OW89485   4.784   7.199   9.029 -0.4103  0.0609 -0.0459
28213SOL    HW189486   4.839   7.221   8.954  1.0284  0.6011  1.1266
28213SOL    HW289487   4.818   7.115   9.060 -0.3907  0.2843  0.5505
28214SOL     OW89488   2.261   8.782   6.417  0.1823 -0.6622 -0.6111
28214SOL    HW189489   2.242   8.873   6.441  1.2633 -0.5088 -0.2880
28214SOL    HW289490   2.203   8.764   6.343  0.7244  0.6506 -1.3885
28215SOL     OW89491   6.697   5.465   7.332 -0.6833  0.0397 -0.0999
28215SOL    HW189492   6.709   5.403   7.260 -1.4129 -0.4756  0.2093
28215SOL    HW289493   6.603   5.464   7.349 -0.7502  1.4855 -0.3028
28216SOL     OW89494   4.895   7.393   7.249 -0.0670 -0.1514 -0.3782
28216SOL    HW189495   4.977   7.406   7.296  0.1922 -0.8337 -0.6300
28216SOL    HW289496   4.843   7.336   7.307 -0.0740 -0.3174 -0.5477
28217SOL     OW89497   8.029   9.569   7.116 -0.4339 -0.1654 -0.6223
28217SOL    HW189498   8.057   9.577   7.207 -0.2466 -0.1217 -0.6842
28217SOL    HW289499   8.052   9.653   7.077 -0.2305 -0.2971 -0.7871
28218SOL     OW89500   6.952   3.147   2.188 -0.6117  0.1496  0.1965
28218SOL    HW189501   6.952   3.094   2.108  0.7718 -0.1154  0.3529
28218SOL    HW289502   6.988   3.089   2.255 -2.7200 -0.0021  1.3117
28219SOL     OW89503   4.509   3.102   1.522 -0.4619  0.4699 -0.1174
28219SOL    HW189504   4.514   3.152   1.440  1.2064 -0.8085 -0.8556
28219SOL    HW289505   4.477   3.166   1.586 -0.1846  1.9794 -1.4010
28220SOL     OW89506   3.440   8.554   0.765 -0.2109  0.7461  0.1332
28220SOL    HW189507   3.426   8.479   0.706 -0.7636  2.6461 -2.3016
28220SOL    HW289508   3.472   8.514   0.846 -2.6767 -2.3371 -0.2007
28221SOL     OW89509   7.027   2.848   8.839  0.0759  0.5320  0.5803
28221SOL    HW189510   6.980   2.932   8.839 -0.3240  0.3080  0.4607
28221SOL    HW289511   7.100   2.862   8.778  0.1143  0.8518  0.6964
28222SOL     OW89512   5.647   3.102   8.597  0.2655  0.2442 -0.1229
28222SOL    HW189513   5.606   3.165   8.538  0.1575 -0.8496 -1.2589
28222SOL    HW289514   5.573   3.053   8.635  0.4156 -0.6728 -0.9644
28223SOL     OW89515   4.002   7.340   0.656  0.5787  0.6295  0.1568
28223SOL    HW189516   3.944   7.287   0.601  0.5615 -0.6788  1.3673
28223SOL    HW289517   4.065   7.377   0.595  0.1758 -0.2410 -0.8294
28224SOL     OW89518   8.915   4.700   5.280 -0.0407 -0.0202  0.2078
28224SOL    HW189519   8.999   4.737   5.253 -0.9126  1.6276 -0.4023
28224SOL    HW289520   8.867   4.686   5.199 -0.3918 -0.9080  0.5550
28225SOL     OW89521   1.766   9.048   1.134  0.0441  0.0704 -0.0071
28225SOL    HW189522   1.785   8.991   1.059  1.9255 -0.8597  1.1127
28225SOL    HW289523   1.768   9.137   1.098  0.9726 -0.3587 -1.0712
28226SOL     OW89524   0.395   9.455   3.952 -0.1987  0.6084  0.4886
28226SOL    HW189525   0.322   9.438   4.011  0.4900  1.0090  1.4743
28226SOL    HW289526   0.408   9.550   3.956 -0.6037  0.7446 -0.8771
28227SOL     OW89527   6.206   3.120   2.855 -0.1084 -0.1372 -0.2945
28227SOL    HW189528   6.291   3.095   2.818 -1.1123 -2.0793 -1.4597
28227SOL    HW289529   6.148   3.048   2.832 -1.7310  0.4014  1.8553
28228SOL     OW89530   8.230   2.049   8.559 -0.0713  0.0537 -0.2648
28228SOL    HW189531   8.148   2.014   8.595  0.4241 -0.6415  0.2086
28228SOL    HW289532   8.205   2.133   8.521 -1.5992 -1.3075 -2.5695
28229SOL     OW89533   8.801   5.764   7.123 -0.4026  0.1203  0.5839
28229SOL    HW189534   8.828   5.682   7.164 -0.8258 -0.5710 -0.4767
28229SOL    HW289535   8.882   5.801   7.088  0.0004  0.8170  2.1335
28230SOL     OW89536   3.466   9.260   3.848  0.8401  0.0774  0.0298
28230SOL    HW189537   3.536   9.325   3.855  0.9095 -0.0285  0.3254
28230SOL    HW289538   3.456   9.245   3.754 -1.7774  3.3853 -0.4364
28231SOL     OW89539   3.382   3.170   0.211  0.2378  0.4022 -0.0980
28231SOL    HW189540   3.447   3.188   0.143 -2.1325  1.0034 -2.3569
28231SOL    HW289541   3.317   3.114   0.169 -1.2053  0.5474  1.7736
28232SOL     OW89542   1.960   0.201   1.611 -0.0283  0.2548  0.2409
28232SOL    HW189543   1.969   0.265   1.682  0.1857  1.0003 -0.4524
28232SOL    HW289544   2.042   0.207   1.563 -0.2434 -0.1333 -0.1780
28233SOL     OW89545   2.834   3.564   3.093 -0.0109 -0.4046 -0.9582
28233SOL    HW189546   2.824   3.518   3.009 -0.0722 -0.1077 -1.1146
28233SOL    HW289547   2.793   3.649   3.079  1.1702  0.1639 -1.0525
28234SOL     OW89548   1.965   0.572   1.386 -0.0270  0.2760  0.1564
28234SOL    HW189549   2.059   0.574   1.405 -0.1734  0.3006  0.8821
28234SOL    HW289550   1.924   0.552   1.470 -0.6014 -0.9527 -0.4068
28235SOL     OW89551   7.014   3.467   8.328 -0.0951  0.3249  0.1647
28235SOL    HW189552   7.081   3.457   8.261 -0.2379  0.8752 -0.0651
28235SOL    HW289553   7.007   3.561   8.341  0.9701  0.1956  2.0164
28236SOL     OW89554   7.167   4.241   3.454 -0.0698 -0.1948  0.6468
28236SOL    HW189555   7.229   4.181   3.496 -0.4054 -1.1031 -0.1106
28236SOL    HW289556   7.221   4.311   3.418  0.4729 -0.7037  0.4460
28237SOL     OW89557   5.457   9.290   9.527 -0.2695  0.0951 -0.0418
28237SOL    HW189558   5.487   9.333   9.607 -0.9917 -0.1139  0.3457
28237SOL    HW289559   5.372   9.329   9.509  0.1856  0.6439 -1.1030
28238SOL     OW89560   1.721   5.473   9.062  0.3720 -0.1501 -0.6108
28238SOL    HW189561   1.638   5.521   9.055  1.4921  2.0318  0.0042
28238SOL    HW289562   1.767   5.492   8.981  0.4355 -1.0223 -0.7809
28239SOL     OW89563   7.531   9.729   8.101 -0.2018  0.0139 -0.5018
28239SOL    HW189564   7.513   9.822   8.087  0.8761  0.1617 -1.0149
28239SOL    HW289565   7.548   9.722   8.195  1.1738  0.6298 -0.6758
28240SOL     OW89566   5.024   4.728   8.878 -0.5787  0.0304 -0.0995
28240SOL    HW189567   5.022   4.755   8.970 -2.0060  1.2061 -0.4427
28240SOL    HW289568   5.102   4.771   8.843 -1.3477  1.5901  0.0137
28241SOL     OW89569   2.486   5.630   7.844 -0.3268 -0.6269  0.1486
28241SOL    HW189570   2.451   5.691   7.779 -2.2655 -2.5035 -0.6988
28241SOL    HW289571   2.442   5.654   7.925 -0.1839 -0.1675  0.0946
28242SOL     OW89572   9.395   6.863   4.078 -0.5817  0.3242  0.5076
28242SOL    HW189573   9.314   6.829   4.117  0.8680 -1.0370  2.4691
28242SOL    HW289574   9.423   6.932   4.137  0.8997 -0.8064  1.1824
28243SOL     OW89575   3.558   7.847   6.286 -0.0018 -0.4065 -0.2309
28243SOL    HW189576   3.490   7.801   6.237 -0.5114 -0.6638  0.6905
28243SOL    HW289577   3.510   7.894   6.355  0.5334  1.2477 -0.9303
28244SOL     OW89578   8.426   9.432   4.378 -0.2792  0.2974  0.2365
28244SOL    HW189579   8.388   9.346   4.395  0.5683 -0.0156  0.6187
28244SOL    HW289580   8.356   9.481   4.334  0.4028 -1.8748 -3.7142
28245SOL     OW89581   1.762   7.936   4.114 -0.4728  0.0960  0.2822
28245SOL    HW189582   1.784   7.918   4.206 -2.1895  0.5943  0.8385
28245SOL    HW289583   1.679   7.888   4.101 -0.2947  0.1237 -0.9809
28246SOL     OW89584   2.234   7.519   0.744 -0.0810  0.3850 -0.5434
28246SOL    HW189585   2.308   7.557   0.791 -1.1167 -0.4339  1.9558
28246SOL    HW289586   2.199   7.591   0.691  0.9786  1.4753  0.1877
28247SOL     OW89587   3.480   5.463   9.677 -0.2442 -0.1051 -0.0214
28247SOL    HW189588   3.556   5.515   9.653 -0.1260 -0.0319  0.5092
28247SOL    HW289589   3.467   5.404   9.603 -1.4987  1.8883 -1.4850
28248SOL     OW89590   4.303   1.380   5.024 -0.0950  0.0373  0.4353
28248SOL    HW189591   4.320   1.286   5.018 -1.0054 -0.2475  1.8885
28248SOL    HW289592   4.358   1.410   5.096 -0.3837  0.4660  0.4843
28249SOL     OW89593   4.136   0.320   5.869  0.3049 -0.1526  0.3709
28249SOL    HW189594   4.144   0.412   5.891 -0.9983 -0.2024  1.1461
28249SOL    HW289595   4.226   0.288   5.864  0.7660  1.1879 -0.0795
28250SOL     OW89596   4.489   3.366   3.064 -0.2530 -0.2004  0.0624
28250SOL    HW189597   4.436   3.355   2.985 -0.2877  1.1785 -0.1196
28250SOL    HW289598   4.448   3.439   3.110 -0.4112 -1.1773  1.5190
28251SOL     OW89599   8.093   1.571   6.506  0.0988  0.0390  0.1546
28251SOL    HW189600   8.075   1.500   6.568 -2.2003  0.3199 -0.1052
28251SOL    HW289601   8.125   1.643   6.562 -0.5037 -0.1984  0.8225
28252SOL     OW89602   0.076   1.416   2.634  0.3171 -0.5546  0.4934
28252SOL    HW189603  -0.010   1.376   2.641 -0.2428  0.3334 -0.7980
28252SOL    HW289604   0.082   1.473   2.710 -0.2155 -0.6828  0.6359
28253SOL     OW89605   9.277   7.083   2.716  0.2263 -0.4792  0.0371
28253SOL    HW189606   9.199   7.138   2.711  1.4330  1.2574 -0.8804
28253SOL    HW289607   9.244   6.994   2.729 -1.9589 -0.0248 -1.8173
28254SOL     OW89608   9.233   4.157   2.739  0.0767 -0.0922 -0.3846
28254SOL    HW189609   9.262   4.130   2.826  1.3399 -1.2275 -1.1258
28254SOL    HW289610   9.173   4.088   2.711  0.0255  0.0313 -0.5831
28255SOL     OW89611   5.546   4.704   8.582 -0.0547  0.0850 -0.1694
28255SOL    HW189612   5.452   4.710   8.598 -0.1402  0.5714 -0.7942
28255SOL    HW289613   5.570   4.618   8.615 -0.8788 -0.3860 -0.7490
28256SOL     OW89614   9.058   5.390   6.320  0.2684  1.2187 -0.4851
28256SOL    HW189615   9.037   5.400   6.413 -0.0723  1.5558 -0.5953
28256SOL    HW289616   9.052   5.296   6.303 -0.8807  1.2793 -0.4524
28257SOL     OW89617   8.057   9.503   0.030  0.4641  0.0050 -0.1322
28257SOL    HW189618   8.091   9.415   0.047 -1.1315 -0.6177  0.0486
28257SOL    HW289619   8.134   9.560   0.033  1.7809 -1.5761 -1.8830
28258SOL     OW89620   4.733   8.115   4.768 -0.7802  0.4199  0.4517
28258SOL    HW189621   4.751   8.206   4.788 -1.2970  0.4961  0.5881
28258SOL    HW289622   4.791   8.065   4.826 -0.9930  0.6565  0.8703
28259SOL     OW89623   4.179   8.500   3.090 -0.5564 -0.1444  0.0909
28259SOL    HW189624   4.167   8.455   3.173  0.1859 -0.2928  0.1260
28259SOL    HW289625   4.274   8.496   3.074 -0.3882  1.8290  0.3327
28260SOL     OW89626   6.510   4.170   2.257  0.7934  0.6137  0.4297
28260SOL    HW189627   6.415   4.177   2.246  0.3969  0.0231  2.8828
28260SOL    HW289628   6.545   4.246   2.211 -0.8405  0.8087 -0.5829
28261SOL     OW89629   8.847   6.779   7.131 -0.9642  0.5042 -0.6202
28261SOL    HW189630   8.925   6.770   7.187  0.7317 -0.0186 -2.9210
28261SOL    HW289631   8.820   6.689   7.114 -0.1877  0.5421 -2.2421
28262SOL     OW89632   4.141   4.689   7.781 -0.2902  0.3238 -0.4100
28262SOL    HW189633   4.086   4.768   7.784 -0.2849  0.2885  1.9194
28262SOL    HW289634   4.220   4.716   7.735 -0.3980  1.6003  0.1390
28263SOL     OW89635   8.932   0.900   1.018 -0.3447 -0.1331 -0.4603
28263SOL    HW189636   9.004   0.861   0.970  0.7060 -0.6977  1.4506
28263SOL    HW289637   8.882   0.825   1.051  0.6460  0.0647  1.7081
28264SOL     OW89638   1.386   4.959   8.488  0.4765  0.1132  0.1182
28264SOL    HW189639   1.460   4.984   8.544 -0.2560  0.4370  0.9654
28264SOL    HW289640   1.427   4.913   8.414  1.3662 -2.0314  1.8306
28265SOL     OW89641   3.949   8.315   5.187  0.1001  0.6372 -0.3558
28265SOL    HW189642   3.899   8.238   5.216 -0.2145  0.9720 -0.0080
28265SOL    HW289643   3.895   8.390   5.212  0.2606  0.9672 -0.9694
28266SOL     OW89644   8.260   9.062   4.569  0.0619  0.1743  0.3535
28266SOL    HW189645   8.316   8.994   4.531 -0.0660  0.6250 -0.6903
28266SOL    HW289646   8.223   9.107   4.493 -1.0291  0.4534  1.0297
28267SOL     OW89647   0.132   7.811   7.818 -0.2786 -0.1564  0.2473
28267SOL    HW189648   0.196   7.814   7.746 -0.0778 -0.5668  0.4006
28267SOL    HW289649   0.073   7.740   7.793 -0.9371  0.5084 -0.1025
28268SOL     OW89650   8.907   4.988   6.522 -0.0096  0.4025  0.5893
28268SOL    HW189651   8.849   5.049   6.568 -0.6540 -0.6089  1.1751
28268SOL    HW289652   8.849   4.935   6.469  0.4403 -0.2315  0.7155
28269SOL     OW89653   1.161   0.538   0.988 -0.3702 -0.0078 -0.2261
28269SOL    HW189654   1.088   0.548   0.928 -0.6043  0.2454  0.0957
28269SOL    HW289655   1.120   0.526   1.074 -0.0412  1.9242  0.2482
28270SOL     OW89656   0.409   9.401   5.099 -0.2513  0.2908  0.1550
28270SOL    HW189657   0.454   9.471   5.147 -0.0747  0.1324  0.2243
28270SOL    HW289658   0.454   9.398   5.015 -0.1577  0.1583  0.2097
28271SOL     OW89659   8.135   8.818   0.772  0.0013  0.3300  0.5926
28271SOL    HW189660   8.153   8.842   0.681 -0.0471 -0.2794  0.4181
28271SOL    HW289661   8.085   8.892   0.807 -0.8990  0.1064 -0.1836
28272SOL     OW89662   3.707   7.018   8.245 -0.2769  0.6350  0.7774
28272SOL    HW189663   3.632   6.984   8.293 -0.2308 -0.9075 -0.1679
28272SOL    HW289664   3.677   7.023   8.154  0.2525  1.5877  0.6421
28273SOL     OW89665   3.389   7.900   4.455 -0.4952 -0.3131 -0.1122
28273SOL    HW189666   3.343   7.833   4.506 -0.0835 -1.5256 -1.2531
28273SOL    HW289667   3.395   7.862   4.367 -0.1839  1.2166 -0.7755
28274SOL     OW89668   4.544   8.629   1.546  0.3198 -0.3896 -0.3160
28274SOL    HW189669   4.582   8.698   1.493  1.5164 -0.0435  0.9432
28274SOL    HW289670   4.529   8.669   1.631 -0.3095 -1.2886  0.0155
28275SOL     OW89671   1.523   3.229   7.316  0.1022 -0.3334 -0.5268
28275SOL    HW189672   1.593   3.187   7.366  0.7725  0.4925 -0.7387
28275SOL    HW289673   1.443   3.187   7.346  0.7607 -1.9642 -0.9459
28276SOL     OW89674   6.617   7.865   3.893 -0.4632 -0.0148  0.1391
28276SOL    HW189675   6.692   7.835   3.945  0.7012 -0.7000 -1.8423
28276SOL    HW289676   6.553   7.893   3.958  0.8958 -0.8758  1.9426
28277SOL     OW89677   0.070   4.342   0.131  0.8965  0.7508 -0.5643
28277SOL    HW189678   0.143   4.290   0.164  0.1665 -1.6900 -2.5139
28277SOL    HW289679  -0.006   4.284   0.136  0.0390  1.5502 -2.9155
28278SOL     OW89680   1.510   4.460   0.472 -0.0790 -0.4907 -0.5046
28278SOL    HW189681   1.468   4.451   0.558 -0.1197 -0.5067 -0.5263
28278SOL    HW289682   1.504   4.373   0.434  0.5488 -0.6521 -0.2424
28279SOL     OW89683   6.767   6.763   5.665 -0.2420  0.0450  0.6918
28279SOL    HW189684   6.677   6.774   5.635  0.5392  0.1793 -1.9176
28279SOL    HW289685   6.785   6.840   5.719 -1.4476  0.4056  0.5929
28280SOL     OW89686   9.281   1.884   0.893 -0.5149 -0.0307  0.4458
28280SOL    HW189687   9.245   1.795   0.892 -1.7519  0.4296  1.4874
28280SOL    HW289688   9.247   1.924   0.813 -0.5043 -0.2790  0.3133
28281SOL     OW89689   3.496   6.795   5.285 -0.4619 -0.4457 -0.1768
28281SOL    HW189690   3.460   6.847   5.357  0.0475 -0.7415  0.2950
28281SOL    HW289691   3.423   6.738   5.259 -0.9434  0.3027 -0.5251
28282SOL     OW89692   2.446   2.766   6.724 -0.3749  0.0980  0.0813
28282SOL    HW189693   2.529   2.776   6.679 -0.6531 -1.3278 -0.8222
28282SOL    HW289694   2.464   2.703   6.794 -0.1988  1.4897  1.3398
28283SOL     OW89695   5.067   7.079   7.131 -0.5889  0.3497  0.0646
28283SOL    HW189696   5.106   6.994   7.153  0.8871  1.2078  0.9504
28283SOL    HW289697   5.130   7.121   7.073 -0.3071  1.6299  1.2379
28284SOL     OW89698   4.947   5.104   7.112 -0.0692  0.0892 -0.1264
28284SOL    HW189699   4.970   5.098   7.019  0.9585  0.0220  0.1176
28284SOL    HW289700   4.933   5.198   7.127 -2.7133 -0.1169 -0.8864
28285SOL     OW89701   5.248   8.882   6.044 -0.3325 -0.5030 -0.5112
28285SOL    HW189702   5.164   8.860   6.002 -0.3152 -1.7828  0.0572
28285SOL    HW289703   5.232   8.965   6.087 -2.7045 -2.5417  3.0526
28286SOL     OW89704   9.137   4.917   8.012  0.4128  0.8719 -0.1666
28286SOL    HW189705   9.188   4.917   7.930 -0.1078  3.0572 -0.5511
28286SOL    HW289706   9.095   5.003   8.014  0.4033  0.8762  2.4153
28287SOL     OW89707   2.363   1.647   2.998 -0.5457 -0.4399 -0.5048
28287SOL    HW189708   2.288   1.706   3.008 -0.6775 -0.9318  1.9478
28287SOL    HW289709   2.325   1.562   2.979 -0.4947 -0.3394 -1.0840
28288SOL     OW89710   9.416   9.067   6.370 -0.2798 -0.0625  0.1376
28288SOL    HW189711   9.361   9.031   6.440 -0.3607 -0.2780 -0.0391
28288SOL    HW289712   9.410   9.162   6.382  0.5820 -0.1031  1.1173
28289SOL     OW89713   9.684   3.137   2.822  0.7424  0.1673  0.0271
28289SOL    HW189714   9.699   3.081   2.746 -1.1192 -0.0784 -0.2200
28289SOL    HW289715   9.633   3.210   2.788 -0.3093 -0.0523  1.0378
28290SOL     OW89716   2.198   1.484   2.649  0.4416 -0.0408  0.3528
28290SOL    HW189717   2.159   1.571   2.650 -1.5939 -0.8125 -2.0041
28290SOL    HW289718   2.188   1.454   2.559  1.6561 -2.4836  0.9461
28291SOL     OW89719   8.147   9.257   0.108 -0.4329  0.1245  0.0252
28291SOL    HW189720   8.154   9.203   0.187 -0.6954  1.0586  0.7022
28291SOL    HW289721   8.238   9.273   0.082 -0.3478 -1.3720 -0.7162
28292SOL     OW89722   1.686   0.690   6.194 -0.1068  0.3326 -0.4908
28292SOL    HW189723   1.601   0.713   6.157 -1.1630  1.2505  2.2848
28292SOL    HW289724   1.696   0.597   6.174 -0.9243  0.5905 -2.3405
28293SOL     OW89725   5.961   5.889   2.371  0.8127 -0.2767 -0.3429
28293SOL    HW189726   5.941   5.948   2.443  0.7250  0.7840 -1.2072
28293SOL    HW289727   5.878   5.876   2.326  0.7184 -1.5167  0.1495
28294SOL     OW89728   1.028   7.058   9.594  0.7150  0.1753  0.3018
28294SOL    HW189729   1.081   7.102   9.660 -0.8952  0.3732  1.5280
28294SOL    HW289730   0.974   6.997   9.644 -1.9304  1.6701 -0.5194
28295SOL     OW89731   8.966   9.073   6.299  0.2320 -0.3791  0.2645
28295SOL    HW189732   9.012   9.037   6.223  0.4961  0.3728  0.0614
28295SOL    HW289733   9.004   9.159   6.312 -0.0134 -0.3840  1.0817
28296SOL     OW89734   0.910   4.185   2.677  0.6282 -0.1470  0.2133
28296SOL    HW189735   1.005   4.192   2.670  0.6934 -1.6525 -0.7838
28296SOL    HW289736   0.895   4.129   2.753  0.6558 -1.8562 -0.9868
28297SOL     OW89737   3.508   2.584   6.337 -0.3880  0.0528  0.9248
28297SOL    HW189738   3.563   2.655   6.304 -1.0241 -0.1606 -0.7447
28297SOL    HW289739   3.567   2.529   6.387  1.0014 -0.2384 -0.9057
28298SOL     OW89740   5.123   3.329   2.363  0.5209 -0.1159  0.1074
28298SOL    HW189741   5.127   3.371   2.278  1.2907 -0.5839 -0.0925
28298SOL    HW289742   5.155   3.395   2.425  0.6533 -0.0252 -0.0583
28299SOL     OW89743   6.376   4.792   2.750  0.0996 -0.3522  0.1892
28299SOL    HW189744   6.463   4.788   2.710 -0.4203  0.4653 -1.1175
28299SOL    HW289745   6.375   4.877   2.794 -0.0038 -0.4064  0.2905
28300SOL     OW89746   4.189   2.958   0.308 -0.1461 -0.3491  0.0718
28300SOL    HW189747   4.251   2.886   0.302  1.2803  0.8127  0.3321
28300SOL    HW289748   4.113   2.921   0.353 -0.0908 -2.0589 -1.1568
28301SOL     OW89749   0.132   4.521   6.760 -0.1014  0.3308  0.5142
28301SOL    HW189750   0.096   4.434   6.741 -1.4720  1.0750 -0.5064
28301SOL    HW289751   0.058   4.570   6.795 -0.1283  1.9011 -1.5801
28302SOL     OW89752   4.256   8.003   5.320  0.3524  0.0509 -0.3654
28302SOL    HW189753   4.168   7.994   5.357 -0.6232  2.2366 -1.9804
28302SOL    HW289754   4.258   7.941   5.247  0.4718 -0.5874  0.1698
28303SOL     OW89755   2.701   7.029   8.616  0.1623  0.1036  0.0658
28303SOL    HW189756   2.634   6.974   8.575 -1.2611  1.1511  0.9134
28303SOL    HW289757   2.727   7.091   8.547  0.5284 -0.5070 -0.3611
28304SOL     OW89758   3.131   3.325   2.462  0.6715 -0.1805  0.0760
28304SOL    HW189759   3.087   3.308   2.379  2.1148 -0.7112 -0.6179
28304SOL    HW289760   3.085   3.401   2.498  0.0412  0.0899 -1.2224
28305SOL     OW89761   6.438   1.512   0.060  0.4088  0.4243  0.1101
28305SOL    HW189762   6.371   1.490   0.124  0.8697  0.2114  0.5201
28305SOL    HW289763   6.500   1.568   0.107 -0.0904  1.6161 -0.5792
28306SOL     OW89764   7.865   3.431   3.292 -0.0145  0.1354  0.3261
28306SOL    HW189765   7.847   3.421   3.386  0.3843 -0.0630  0.3811
28306SOL    HW289766   7.795   3.490   3.261 -1.5370 -1.6171  0.2683
28307SOL     OW89767   7.954   0.148   6.475 -0.0556  0.1785 -0.2706
28307SOL    HW189768   7.972   0.216   6.410  2.0503  0.6643  0.7197
28307SOL    HW289769   8.038   0.136   6.520 -0.3399 -3.1169 -0.4069
28308SOL     OW89770   4.482   3.754   0.450  0.0712 -0.5264  0.1155
28308SOL    HW189771   4.531   3.676   0.479  0.5341 -0.4087 -0.3305
28308SOL    HW289772   4.399   3.720   0.417  0.5561 -0.9168 -0.7473
28309SOL     OW89773   1.916   8.250   2.614  0.4350  0.1603  0.6072
28309SOL    HW189774   1.884   8.162   2.596 -1.7076  0.8499  0.7406
28309SOL    HW289775   2.011   8.241   2.618  0.3041 -2.0166  0.0223
28310SOL     OW89776   2.780   3.382   8.956 -0.5806 -0.5835 -0.2010
28310SOL    HW189777   2.741   3.449   8.900 -0.3100  1.0759  1.4809
28310SOL    HW289778   2.864   3.362   8.915 -0.8506 -0.1930 -0.9541
28311SOL     OW89779   5.794   8.103   2.217  0.0803 -0.2000 -0.0633
28311SOL    HW189780   5.825   8.144   2.298 -0.5929  3.2329 -1.3629
28311SOL    HW289781   5.860   8.036   2.198 -0.5132 -2.2807  3.9753
28312SOL     OW89782   6.590   4.231   0.337 -0.3712 -0.1927 -0.0592
28312SOL    HW189783   6.661   4.292   0.357 -0.9812 -0.1453  2.3159
28312SOL    HW289784   6.511   4.285   0.335 -0.8933 -0.7868  1.8837
28313SOL     OW89785   7.457   7.127   0.759  0.0252  0.2676 -0.2064
28313SOL    HW189786   7.436   7.102   0.670 -1.2451  0.5142  0.0078
28313SOL    HW289787   7.409   7.208   0.773 -0.4871 -0.2152  0.9745
28314SOL     OW89788   9.311   8.348   9.597 -0.1527  0.5548 -0.1875
28314SOL    HW189789   9.403   8.331   9.576 -0.0930  0.0392  0.4334
28314SOL    HW289790   9.302   8.443   9.591  0.7426  0.7389  0.9128
28315SOL     OW89791   6.565   0.905   7.126 -0.3484 -0.2870  0.4808
28315SOL    HW189792   6.491   0.926   7.183  0.3228  1.9179  0.6168
28315SOL    HW289793   6.636   0.883   7.186  0.0200  0.8727  0.4961
28316SOL     OW89794   4.584   1.593   6.248 -0.0866 -0.2972 -0.1375
28316SOL    HW189795   4.492   1.600   6.273  0.1503 -0.1925  0.7369
28316SOL    HW289796   4.629   1.564   6.328  0.6589 -0.1985 -0.5110
28317SOL     OW89797   6.811   5.654   7.122  0.0624 -0.6114  0.2986
28317SOL    HW189798   6.823   5.565   7.152  1.5348 -0.4686  0.2225
28317SOL    HW289799   6.724   5.679   7.152 -1.8330 -3.1602 -2.4560
28318SOL     OW89800   8.107   5.538   8.459 -0.7409  0.2165  0.3507
28318SOL    HW189801   8.189   5.579   8.433 -0.0269 -0.7361  1.0075
28318SOL    HW289802   8.051   5.610   8.488 -1.0678  1.1621 -2.3707
28319SOL     OW89803   2.201   8.829   5.660  0.1147  0.1993  0.2106
28319SOL    HW189804   2.139   8.781   5.715  1.1813 -1.0036  0.4312
28319SOL    HW289805   2.183   8.797   5.571 -0.4998  0.8908  0.0845
28320SOL     OW89806   2.396   3.748   6.091  0.3069  0.2213  0.6371
28320SOL    HW189807   2.433   3.677   6.143 -0.1823 -0.1905  0.4309
28320SOL    HW289808   2.359   3.808   6.155 -2.8409 -1.6689  0.7508
28321SOL     OW89809   2.717   1.956   5.544  0.3989 -0.4981 -0.1722
28321SOL    HW189810   2.625   1.960   5.517 -1.0064 -1.9842  3.7125
28321SOL    HW289811   2.747   1.870   5.515 -0.8484 -1.7578  1.9805
28322SOL     OW89812   7.623   0.601   9.505 -0.5509 -0.7060  0.1736
28322SOL    HW189813   7.669   0.521   9.532  1.0500  0.5394  1.4031
28322SOL    HW289814   7.635   0.605   9.411  1.4573 -0.7247  0.3844
28323SOL     OW89815   1.695   3.510   2.974 -0.4113 -0.0254  0.4815
28323SOL    HW189816   1.675   3.597   3.009 -2.1229 -0.9974  2.0580
28323SOL    HW289817   1.612   3.478   2.939 -0.3198 -1.7978  1.7526
28324SOL     OW89818   9.051   0.965   5.174 -0.3497 -0.7208 -0.2657
28324SOL    HW189819   9.101   1.015   5.239 -1.3351  0.2879 -0.2651
28324SOL    HW289820   9.109   0.892   5.151  0.0879 -1.0379  1.6447
28325SOL     OW89821   7.033   2.281   2.795  0.8722  0.2114  0.2858
28325SOL    HW189822   7.074   2.367   2.780  0.9218 -0.1951 -2.5508
28325SOL    HW289823   7.081   2.244   2.869  2.7252  1.5286 -0.1873
28326SOL     OW89824   1.744   1.321   2.253 -0.1597 -0.7431 -1.0132
28326SOL    HW189825   1.663   1.346   2.298  0.3976 -0.9655  0.1302
28326SOL    HW289826   1.714   1.271   2.176 -1.1474  0.4642 -1.4405
28327SOL     OW89827   7.939   6.288   0.335 -0.0553 -0.3292 -0.0037
28327SOL    HW189828   7.884   6.267   0.410  0.9363 -0.4785  0.7000
28327SOL    HW289829   7.967   6.378   0.350  1.1740 -0.7695  0.4905
28328SOL     OW89830   2.793   0.394   3.889  0.1226 -0.0553 -0.7191
28328SOL    HW189831   2.738   0.472   3.877 -2.4546 -1.7500 -0.4689
28328SOL    HW289832   2.825   0.374   3.801 -1.6692 -0.3968 -1.3310
28329SOL     OW89833   3.074   8.162   7.753 -0.5868  0.2284 -0.5955
28329SOL    HW189834   3.078   8.115   7.836  1.0322  1.6086  0.1546
28329SOL    HW289835   3.118   8.104   7.690  0.4307  0.2446  0.0774
28330SOL     OW89836   1.836   9.096   3.879  0.0765 -0.4338  1.0368
28330SOL    HW189837   1.919   9.050   3.867  0.8632  1.0466  0.5389
28330SOL    HW289838   1.844   9.139   3.964  0.7979  1.5455  0.0413
28331SOL     OW89839   8.840   6.383   4.268 -0.5031  0.1946 -0.0536
28331SOL    HW189840   8.786   6.460   4.251 -0.7810 -0.4131 -2.2495
28331SOL    HW289841   8.792   6.311   4.228  0.8052 -0.7556  0.0286
28332SOL     OW89842   0.286   9.657   0.896 -0.1772  0.4510 -0.4516
28332SOL    HW189843   0.286   9.588   0.962  1.4056  0.0930 -0.8031
28332SOL    HW289844   0.204   9.643   0.848 -0.3097 -0.6237  0.0540
28333SOL     OW89845   8.990   3.268   4.244  0.5098  0.5118  0.2030
28333SOL    HW189846   9.025   3.199   4.300 -1.1052 -2.7961 -2.5442
28333SOL    HW289847   9.049   3.271   4.169 -1.1586 -0.2013 -1.1917
28334SOL     OW89848   4.581   2.101   4.856 -0.0460 -0.4476  0.0063
28334SOL    HW189849   4.596   2.036   4.787  0.9947  0.2003 -0.4011
28334SOL    HW289850   4.601   2.055   4.937 -0.1056 -0.8626 -0.2100
28335SOL     OW89851   5.584   8.669   9.208 -0.2744  0.4507 -0.4138
28335SOL    HW189852   5.626   8.663   9.294  1.4505  0.2394 -1.2292
28335SOL    HW289853   5.491   8.676   9.228  0.0562  0.1749  1.4669
28336SOL     OW89854   2.124   4.372   8.293  0.0533  0.1300  0.1433
28336SOL    HW189855   2.096   4.449   8.243 -0.5229  0.7926  1.4240
28336SOL    HW289856   2.099   4.392   8.383 -1.3695 -2.1487  0.3296
28337SOL     OW89857   5.126   1.658   5.709  0.1312  0.1980  0.2517
28337SOL    HW189858   5.089   1.695   5.789 -0.1728 -0.3121  0.3543
28337SOL    HW289859   5.147   1.567   5.732  1.3004  0.4271  0.1378
28338SOL     OW89860   7.944   2.583   7.488 -0.2831 -0.0728 -0.2833
28338SOL    HW189861   7.952   2.549   7.399 -0.0640 -1.1396  0.1325
28338SOL    HW289862   7.949   2.506   7.544 -1.1701  0.4980  0.6277
28339SOL     OW89863   0.329   1.307   3.841  0.4152  0.6305 -0.0572
28339SOL    HW189864   0.338   1.313   3.936 -1.5733 -1.9759  0.4234
28339SOL    HW289865   0.407   1.258   3.814  0.9592  1.3235  0.2367
28340SOL     OW89866   9.568   9.541   3.518  0.7066  0.6450  0.5034
28340SOL    HW189867   9.477   9.526   3.494  0.7256  0.6464  0.4304
28340SOL    HW289868   9.618   9.524   3.438  0.6877  1.5637  0.2896
28341SOL     OW89869   6.582   0.975   3.568 -0.3850  0.4819 -0.2282
28341SOL    HW189870   6.504   0.921   3.558 -1.1381  1.0624  1.9314
28341SOL    HW289871   6.551   1.065   3.559  0.5100  0.6710 -1.8129
28342SOL     OW89872   2.383   6.563   4.116 -0.1515 -0.4093 -0.0821
28342SOL    HW189873   2.371   6.520   4.201  0.5415  0.8497  0.6904
28342SOL    HW289874   2.466   6.529   4.084 -0.1316 -0.4593  0.0220
28343SOL     OW89875   7.553   0.436   8.741 -0.2481 -0.2601 -0.2142
28343SOL    HW189876   7.468   0.470   8.770  0.4288  1.0920  0.2272
28343SOL    HW289877   7.595   0.508   8.695  0.1116 -1.3474 -1.6792
28344SOL     OW89878   5.974   5.433   6.143  0.0875  0.4708  0.0076
28344SOL    HW189879   5.927   5.486   6.208 -3.5138  0.9127 -2.6209
28344SOL    HW289880   6.026   5.496   6.093  0.6258  0.5477  0.6496
28345SOL     OW89881   7.033   8.778   1.438 -0.4519 -0.0454  0.4192
28345SOL    HW189882   7.110   8.741   1.481  0.5435 -0.7772 -1.8272
28345SOL    HW289883   6.973   8.798   1.509  1.7289  0.3984  2.2459
28346SOL     OW89884   7.357   5.898   4.579 -0.4840  0.3033 -0.4310
28346SOL    HW189885   7.397   5.812   4.573 -0.4577  0.3160 -0.4388
28346SOL    HW289886   7.330   5.906   4.671 -3.3806 -1.0079 -1.0402
28347SOL     OW89887   1.535   4.152   4.623 -0.3693 -0.6652 -0.1486
28347SOL    HW189888   1.483   4.123   4.548 -1.2777 -1.0345  0.6064
28347SOL    HW289889   1.610   4.197   4.584 -0.9343 -0.6595 -1.2733
28348SOL     OW89890   5.931   0.245   2.892  0.0786 -0.3951  0.0496
28348SOL    HW189891   5.886   0.193   2.826  0.3723 -1.2441  0.5059
28348SOL    HW289892   5.940   0.332   2.853 -1.5740 -0.3227 -0.2039
28349SOL     OW89893   3.075   8.268   4.826 -0.4848  0.1594  0.0721
28349SOL    HW189894   3.154   8.285   4.776 -1.5956  0.1919 -1.7390
28349SOL    HW289895   3.075   8.174   4.842 -1.6927 -0.4218 -2.8573
28350SOL     OW89896   8.740   5.297   2.551  0.0950 -0.2578 -0.3682
28350SOL    HW189897   8.699   5.377   2.517  0.8652 -0.1371 -1.0286
28350SOL    HW289898   8.810   5.329   2.609  0.6862 -0.4353 -0.9691
28351SOL     OW89899   7.707   9.014   9.584 -0.0199  0.4058 -0.5015
28351SOL    HW189900   7.740   9.101   9.606 -1.0453  0.8107 -0.4918
28351SOL    HW289901   7.632   9.031   9.526 -0.5476 -0.4434 -0.0870
28352SOL     OW89902   0.725   4.995   2.759 -0.4518  0.1683 -0.2345
28352SOL    HW189903   0.663   5.066   2.739  0.5602  1.0193 -0.4323
28352SOL    HW289904   0.799   5.039   2.801 -0.1456 -0.8860  0.3558
28353SOL     OW89905   1.662   9.618   1.711 -0.4046  0.2791  0.6275
28353SOL    HW189906   1.671   9.526   1.734 -0.0083  0.5427  1.5569
28353SOL    HW289907   1.584   9.648   1.758 -0.5637  0.4125  0.2861
28354SOL     OW89908   6.050   8.684   0.791  0.0099  0.4706 -0.1723
28354SOL    HW189909   6.033   8.593   0.814 -1.4465  0.6761 -0.3351
28354SOL    HW289910   6.112   8.714   0.857  0.4736 -0.6128 -0.0859
28355SOL     OW89911   7.756   7.537   7.442  0.4151  0.8748 -0.0071
28355SOL    HW189912   7.769   7.632   7.432 -1.5941  1.2907  0.7231
28355SOL    HW289913   7.821   7.511   7.508  0.2355  1.9886  0.6408
28356SOL     OW89914   4.681   7.785   3.431 -0.0543 -0.2607 -0.1033
28356SOL    HW189915   4.715   7.743   3.510 -0.0684  1.7628  1.0459
28356SOL    HW289916   4.587   7.790   3.446  0.1448  1.9081  0.7260
28357SOL     OW89917   8.945   6.087   9.134 -0.0608 -0.0455 -0.1477
28357SOL    HW189918   9.035   6.094   9.102  0.5579  0.3338  1.5667
28357SOL    HW289919   8.932   6.165   9.188 -1.8038  0.4549 -1.1997
28358SOL     OW89920   4.630   6.718   7.380  0.1429 -0.4283  0.1896
28358SOL    HW189921   4.630   6.691   7.471 -0.2520 -0.8583  0.0616
28358SOL    HW289922   4.586   6.803   7.380 -0.4366 -0.7276  0.3084
28359SOL     OW89923   7.927   2.693   3.888 -0.3605 -0.3504  0.0173
28359SOL    HW189924   7.884   2.740   3.960 -1.8562 -0.4247 -0.7717
28359SOL    HW289925   7.986   2.758   3.849  0.7402 -0.4177  1.4843
28360SOL     OW89926   3.595   6.319   7.267 -0.2821  0.5227  0.3471
28360SOL    HW189927   3.563   6.265   7.340 -0.2433  1.5945  1.1784
28360SOL    HW289928   3.686   6.291   7.256 -1.1650 -2.0303 -1.5614
28361SOL     OW89929   9.371   9.468   7.499  0.4805 -0.4452  0.3888
28361SOL    HW189930   9.402   9.383   7.468  0.8296 -0.4515  0.7461
28361SOL    HW289931   9.416   9.481   7.583 -1.6332 -1.1566  1.7068
28362SOL     OW89932   8.142   2.366   5.102  0.1843 -0.5396 -1.1306
28362SOL    HW189933   8.189   2.439   5.142 -0.1034 -1.2303  0.5560
28362SOL    HW289934   8.163   2.372   5.008  2.0557  0.2947 -0.7027
28363SOL     OW89935   4.298   4.087   0.682  0.1137 -0.1567 -0.4475
28363SOL    HW189936   4.246   4.008   0.690  0.4229 -0.1973  1.5065
28363SOL    HW289937   4.328   4.086   0.591 -1.6797 -1.1091 -1.0789
28364SOL     OW89938   4.056   8.156   2.190  0.2411 -0.1453 -0.5747
28364SOL    HW189939   4.147   8.182   2.177  0.6719 -1.9438 -1.4516
28364SOL    HW289940   4.060   8.089   2.258 -0.3489 -0.7393 -1.1204
28365SOL     OW89941   9.370   2.682   1.886  0.1145  0.4924  0.0549
28365SOL    HW189942   9.331   2.762   1.851 -0.4536  0.0089 -0.4556
28365SOL    HW289943   9.304   2.647   1.946  0.0113 -0.0036 -0.3365
28366SOL     OW89944   0.812   2.398   1.708 -0.3453 -0.1743  0.8336
28366SOL    HW189945   0.892   2.420   1.662 -1.9113  0.4262 -1.8138
28366SOL    HW289946   0.796   2.473   1.765 -0.2179  0.8095 -0.3852
28367SOL     OW89947   3.981   9.045   2.396 -0.2001  0.4072 -0.2688
28367SOL    HW189948   4.043   8.982   2.431 -1.0786 -0.4625 -0.2382
28367SOL    HW289949   3.918   8.992   2.348 -0.0374  1.4111 -1.6544
28368SOL     OW89950   8.422   7.137   4.706  0.1960 -0.1002 -0.3252
28368SOL    HW189951   8.499   7.144   4.650  1.0331  0.1936  0.8203
28368SOL    HW289952   8.441   7.195   4.780 -1.0027 -0.2524  0.1201
28369SOL     OW89953   6.360   2.523   8.857  0.2974  0.6253 -0.8289
28369SOL    HW189954   6.286   2.533   8.796  0.9156  0.1793 -1.6754
28369SOL    HW289955   6.419   2.594   8.836 -0.1294  1.3227  0.2363
28370SOL     OW89956   8.173   2.231   4.307 -0.5714  0.1239 -0.1738
28370SOL    HW189957   8.245   2.190   4.356 -0.5898  0.4935  0.1675
28370SOL    HW289958   8.174   2.322   4.336 -0.0513  0.5572 -1.4842
28371SOL     OW89959   3.384   3.578   3.055 -0.3675  0.3417  0.1397
28371SOL    HW189960   3.290   3.568   3.048 -0.2235 -1.4637  0.2957
28371SOL    HW289961   3.413   3.498   3.100  1.1851  1.0366  0.4329
28372SOL     OW89962   7.055   0.212   8.830  0.4382 -0.6374  0.1331
28372SOL    HW189963   7.042   0.295   8.784  2.0740  0.0992  0.9146
28372SOL    HW289964   7.147   0.190   8.813  0.5015 -1.3992  1.3495
28373SOL     OW89965   0.261   1.765   5.344 -0.2940  0.6610  0.5280
28373SOL    HW189966   0.285   1.683   5.301  0.3628  0.8944  0.4328
28373SOL    HW289967   0.170   1.752   5.372 -0.2311 -0.0540  0.4194
28374SOL     OW89968   1.861   8.522   3.218  0.3745 -0.4361 -0.0595
28374SOL    HW189969   1.843   8.528   3.312  0.3587 -0.4158 -0.0637
28374SOL    HW289970   1.834   8.433   3.194 -0.8862 -0.0190 -0.3099
28375SOL     OW89971   9.036   5.773   6.059 -0.2526  0.0374 -0.0258
28375SOL    HW189972   9.093   5.847   6.038  0.6926 -0.7700 -0.4005
28375SOL    HW289973   8.948   5.807   6.051  0.1572  0.9186 -1.0143
28376SOL     OW89974   8.619   5.502   2.359 -0.0761 -0.0775  0.4147
28376SOL    HW189975   8.636   5.591   2.391  0.4928  0.6490 -1.7483
28376SOL    HW289976   8.537   5.510   2.311 -0.5801 -0.9927  1.1027
28377SOL     OW89977   4.227   7.752   2.807 -0.1097 -0.7897 -0.2751
28377SOL    HW189978   4.144   7.710   2.783 -1.9987  3.0844 -1.3635
28377SOL    HW289979   4.205   7.808   2.882  1.3956  0.5907 -0.7973
28378SOL     OW89980   5.282   5.226   7.823 -0.7013  0.1726  0.3622
28378SOL    HW189981   5.356   5.254   7.876  0.8316 -0.2730 -1.4108
28378SOL    HW289982   5.206   5.266   7.864  0.4416  0.2823  2.5235
28379SOL     OW89983   3.708   4.820   5.746 -0.5609 -0.3539  0.4322
28379SOL    HW189984   3.639   4.881   5.718  1.7806  1.1208 -2.7620
28379SOL    HW289985   3.686   4.738   5.701 -1.8551 -0.9524  2.0239
28380SOL     OW89986   6.346   0.930   4.912  0.7392  0.3271 -0.1025
28380SOL    HW189987   6.301   1.011   4.935  0.1925 -0.0435  0.1377
28380SOL    HW289988   6.419   0.958   4.857  0.9448  1.0422  0.5222
28381SOL     OW89989   3.851   9.244   4.451 -0.3453 -0.9750  0.6690
28381SOL    HW189990   3.914   9.260   4.521  0.6860  0.8874 -0.5863
28381SOL    HW289991   3.769   9.280   4.484  0.8526  3.0075 -0.1911
28382SOL     OW89992   3.304   0.024   0.453 -0.3318 -0.2814  0.6275
28382SOL    HW189993   3.257   0.045   0.534 -0.6468 -2.4674  1.0769
28382SOL    HW289994   3.236  -0.006   0.393  0.1471 -0.8195  0.3369
28383SOL     OW89995   6.457   5.023   8.601  0.0981 -0.4523 -0.2325
28383SOL    HW189996   6.427   4.975   8.524 -1.7386 -0.1909  0.2696
28383SOL    HW289997   6.552   5.028   8.591 -0.0173 -1.1793 -2.0250
28384SOL     OW89998   2.443   0.355   3.241  0.2829 -0.1124  0.2137
28384SOL    HW189999   2.481   0.358   3.329 -0.5941  0.6469  0.5887
28384SOL    HW290000   2.506   0.306   3.189  0.4469 -1.2970  1.4573
28385SOL     OW90001   6.506   7.772   1.430 -0.0886 -0.4670 -0.3362
28385SOL    HW190002   6.467   7.783   1.342 -0.1417  3.5291 -0.0255
28385SOL    HW290003   6.585   7.721   1.415 -0.8374 -1.1234 -2.4796
28386SOL     OW90004   9.432   9.388   3.763 -0.1504  0.0356 -0.1039
28386SOL    HW190005   9.508   9.424   3.808 -2.3980  0.9879  3.3482
28386SOL    HW290006   9.462   9.305   3.727  2.8059  0.9852 -0.0865
28387SOL     OW90007   4.178   9.069   1.125 -0.1151 -0.3026 -0.5684
28387SOL    HW190008   4.194   9.102   1.213 -0.2748  0.8422 -0.9501
28387SOL    HW290009   4.162   8.975   1.137  1.1177 -0.4016  0.4624
28388SOL     OW90010   0.056   2.051   8.551 -0.0107 -0.1608  0.0949
28388SOL    HW190011   0.146   2.032   8.576  0.0884 -0.0654 -0.1987
28388SOL    HW290012   0.018   1.965   8.534  0.1818 -0.1614 -0.3318
28389SOL     OW90013   1.028   2.674   2.712 -0.1890 -0.0227  0.0598
28389SOL    HW190014   0.999   2.751   2.664 -1.3182 -0.9436 -0.7803
28389SOL    HW290015   1.023   2.603   2.649 -3.6011 -1.6701  1.9077
28390SOL     OW90016   8.262   7.336   5.673 -0.0823 -0.0959  0.2475
28390SOL    HW190017   8.204   7.285   5.616 -0.3842  0.9565 -0.4112
28390SOL    HW290018   8.350   7.300   5.657 -0.4910 -1.6006  1.1429
28391SOL     OW90019   9.029   3.322   3.242 -0.1581 -0.5867 -0.5912
28391SOL    HW190020   8.991   3.404   3.211  2.1834  1.3417  1.2531
28391SOL    HW290021   8.966   3.289   3.306 -0.1563  0.9664  0.2482
28392SOL     OW90022   1.692   7.960   1.881 -0.1699 -0.1077 -0.2530
28392SOL    HW190023   1.701   7.886   1.941  0.7865 -1.8962 -2.4608
28392SOL    HW290024   1.766   8.017   1.902 -0.0858 -0.4934  0.5267
28393SOL     OW90025   1.139   3.414   9.107 -0.1475 -0.3436 -0.4126
28393SOL    HW190026   1.142   3.495   9.157  1.6082  0.2798 -1.4541
28393SOL    HW290027   1.051   3.379   9.124 -0.3910  0.9623  1.2812
28394SOL     OW90028   6.148   2.129   0.782  0.6800 -0.0269 -0.0662
28394SOL    HW190029   6.176   2.101   0.695 -0.5409  0.2790 -0.5798
28394SOL    HW290030   6.224   2.174   0.819  0.5081  1.9399 -1.9153
28395SOL     OW90031   5.498   7.922   9.213  0.2454 -0.2326  0.4979
28395SOL    HW190032   5.571   7.863   9.231  1.2818  1.0337  0.5972
28395SOL    HW290033   5.420   7.867   9.222  0.9954 -1.0306  3.1677
28396SOL     OW90034   7.481   3.978   8.651 -0.2499  0.2961  0.1150
28396SOL    HW190035   7.566   3.974   8.696  1.3091 -0.0468 -2.6296
28396SOL    HW290036   7.503   3.975   8.558 -3.3835 -1.0363 -0.7067
28397SOL     OW90037   0.492   6.969   1.884 -0.0486 -0.1187 -0.1583
28397SOL    HW190038   0.510   6.885   1.928 -1.0464 -0.0984  0.3166
28397SOL    HW290039   0.411   6.954   1.837  0.6972  0.0564 -1.5497
28398SOL     OW90040   3.855   0.534   3.514 -0.5084 -0.0289 -0.3024
28398SOL    HW190041   3.761   0.532   3.494 -0.4050  0.9630 -0.9296
28398SOL    HW290042   3.863   0.596   3.587  0.0292  2.8705 -2.6375
28399SOL     OW90043   6.065   1.304   8.656 -0.0696  0.1161  0.2667
28399SOL    HW190044   6.097   1.218   8.681  0.5346 -0.4832 -2.2511
28399SOL    HW290045   5.976   1.289   8.625  0.0120  0.4090 -0.1145
28400SOL     OW90046   8.771   7.279   5.150  0.6024 -0.1387  0.1394
28400SOL    HW190047   8.760   7.225   5.228 -1.3898 -2.0480 -1.3132
28400SOL    HW290048   8.783   7.216   5.079  0.8623  1.4508 -1.2959
28401SOL     OW90049   6.181   9.007   0.886 -0.0246 -0.2122  0.4431
28401SOL    HW190050   6.235   9.069   0.837 -0.2110  1.1145  1.8258
28401SOL    HW290051   6.114   8.979   0.824 -0.6157  1.8684  0.0646
28402SOL     OW90052   9.533   8.951   9.533 -0.2270 -0.0879 -0.3530
28402SOL    HW190053   9.598   8.906   9.479 -1.1643 -0.7026 -1.0245
28402SOL    HW290054   9.509   8.887   9.600 -1.3061 -0.5089 -1.0989
28403SOL     OW90055   7.191   6.350   7.289  0.1330 -0.2886  0.4938
28403SOL    HW190056   7.095   6.344   7.296  0.0886 -0.1775  0.0374
28403SOL    HW290057   7.212   6.297   7.212  0.4680 -0.5488  0.7655
28404SOL     OW90058   1.944   3.439   3.067 -0.0870 -0.1113  0.3165
28404SOL    HW190059   1.867   3.435   3.010  0.5322 -0.3099 -0.5240
28404SOL    HW290060   1.973   3.530   3.062  1.4994 -0.6662 -1.8026
28405SOL     OW90061   3.862   0.925   5.312  0.0334 -0.4303 -0.1979
28405SOL    HW190062   3.938   0.885   5.355  1.3865  1.3401 -0.8446
28405SOL    HW290063   3.841   1.001   5.365 -0.1434  0.1078 -1.0133
28406SOL     OW90064   8.064   6.174   2.496 -0.2809  0.2601  0.4459
28406SOL    HW190065   7.988   6.165   2.553 -0.1002 -0.6813  0.5589
28406SOL    HW290066   8.139   6.149   2.551 -0.2854 -2.5562 -0.6533
28407SOL     OW90067   6.853   2.161   2.143  0.2813 -0.0655 -0.2240
28407SOL    HW190068   6.810   2.075   2.140  1.8447 -0.8750 -0.8567
28407SOL    HW290069   6.846   2.188   2.235 -3.9297  1.1846 -0.6953
28408SOL     OW90070   5.718   5.432   6.989 -0.6384  0.2276  0.4792
28408SOL    HW190071   5.769   5.513   6.993 -1.6183  0.9989 -1.5250
28408SOL    HW290072   5.654   5.442   7.059 -1.1739  1.5146 -0.1589
28409SOL     OW90073   2.399   1.917   0.947  0.2138 -0.3890  0.2149
28409SOL    HW190074   2.355   1.837   0.976  0.1964  0.4430  2.7159
28409SOL    HW290075   2.365   1.985   1.005  1.9479  1.0042 -0.3153
28410SOL     OW90076   2.070   3.018   3.707 -0.6415  0.2709  0.3992
28410SOL    HW190077   2.092   2.925   3.716 -1.0774  0.2320  1.1479
28410SOL    HW290078   2.154   3.062   3.694 -0.1246  0.0675  2.5955
28411SOL     OW90079   4.040   2.505   5.670  0.0703 -0.5573  0.2742
28411SOL    HW190080   3.966   2.501   5.610 -0.9453 -1.3378  1.5276
28411SOL    HW290081   4.091   2.581   5.641 -2.1932  1.1276  0.5001
28412SOL     OW90082   4.488   3.016   4.676 -0.4631  0.0829 -0.3214
28412SOL    HW190083   4.506   3.108   4.656 -1.0075  0.1698 -0.4370
28412SOL    HW290084   4.400   3.016   4.714 -0.2541 -0.3280  0.1854
28413SOL     OW90085   7.677   1.456   3.068 -0.0764  1.0461  0.2908
28413SOL    HW190086   7.632   1.539   3.057 -1.0895  0.6083  0.9752
28413SOL    HW290087   7.624   1.407   3.131  0.5080 -0.1040 -0.0616
28414SOL     OW90088   9.162   0.726   0.981  0.3123 -0.2598 -0.1897
28414SOL    HW190089   9.233   0.665   0.961 -0.2308 -1.7443  2.0126
28414SOL    HW290090   9.104   0.720   0.905  0.5449 -2.1548 -0.2798
28415SOL     OW90091   7.399   6.088   5.486  0.6353  0.5963  0.1538
28415SOL    HW190092   7.454   6.041   5.424  0.8133  1.0632 -0.0415
28415SOL    HW290093   7.316   6.101   5.440  0.2118 -0.4487  0.5857
28416SOL     OW90094   7.999   1.295   3.616 -0.3612  0.1801  0.0218
28416SOL    HW190095   8.020   1.203   3.605  5.3175  1.0941 -0.1372
28416SOL    HW290096   7.999   1.309   3.710  1.3146  0.3074  0.0353
28417SOL     OW90097   8.514   8.754   0.385  0.2364 -0.6571  0.2650
28417SOL    HW190098   8.550   8.719   0.304 -0.0873 -1.4503  0.4525
28417SOL    HW290099   8.492   8.845   0.364 -0.0282 -0.9076 -0.5954
28418SOL     OW90100   1.455   3.832   7.727 -0.1725  0.1260 -0.3329
28418SOL    HW190101   1.535   3.824   7.675  0.7842 -1.1153  1.2015
28418SOL    HW290102   1.485   3.868   7.810 -1.5414  1.4477 -0.3858
28419SOL     OW90103   8.364   7.248   8.203  0.3175 -0.2084  0.3316
28419SOL    HW190104   8.449   7.262   8.244 -0.0715 -0.1459  1.1368
28419SOL    HW290105   8.339   7.334   8.170  0.7120 -0.2943 -0.2009
28420SOL     OW90106   6.227   0.024   6.141  0.1972  0.3480  0.1321
28420SOL    HW190107   6.171   0.101   6.149 -0.2106  0.0753 -0.1014
28420SOL    HW290108   6.286   0.046   6.068  0.8109  0.8845  0.7715
28421SOL     OW90109   7.655   3.744   9.465 -0.0531 -0.4845  1.2020
28421SOL    HW190110   7.661   3.750   9.369 -0.0888 -1.3670  1.1355
28421SOL    HW290111   7.577   3.793   9.487  0.5670  0.6853  0.8906
28422SOL     OW90112   9.115   3.589   9.494 -0.5560 -0.3925 -0.6084
28422SOL    HW190113   9.159   3.513   9.455 -1.9208 -0.3590 -2.3204
28422SOL    HW290114   9.187   3.651   9.511  0.2901 -1.0598 -1.5874
28423SOL     OW90115   9.273   9.561   3.610  0.5255 -0.2725  0.0496
28423SOL    HW190116   9.334   9.534   3.679 -0.0528 -1.4167  0.1447
28423SOL    HW290117   9.279   9.491   3.544 -0.8272 -0.5203  0.1645
28424SOL     OW90118   4.095   5.357   5.489  0.1431  0.0502  0.3900
28424SOL    HW190119   4.072   5.440   5.448 -1.2412 -0.5876 -0.2114
28424SOL    HW290120   4.171   5.377   5.543  2.7131  0.7921 -3.1190
28425SOL     OW90121   2.789   9.471   4.305 -0.1783 -0.0025 -1.0890
28425SOL    HW190122   2.736   9.414   4.250  0.0636 -0.6906 -0.6230
28425SOL    HW290123   2.728   9.502   4.373 -0.7380  1.6531 -2.2738
28426SOL     OW90124   9.236   4.317   3.527 -0.7155 -0.2725 -0.1332
28426SOL    HW190125   9.201   4.318   3.616  0.5366 -0.1869  0.3743
28426SOL    HW290126   9.235   4.225   3.501 -2.1980 -0.1786 -0.5077
28427SOL     OW90127   8.554   0.690   4.984  0.5358 -0.2077 -0.0622
28427SOL    HW190128   8.510   0.775   4.985 -0.9643 -0.8300  3.7980
28427SOL    HW290129   8.640   0.706   5.023  0.2562 -0.4522  0.6601
28428SOL     OW90130   8.028   0.387   8.123  0.4708 -0.6344 -0.1151
28428SOL    HW190131   8.073   0.438   8.190 -0.3038 -0.8267  0.5691
28428SOL    HW290132   8.089   0.317   8.101  0.7472 -0.5531  0.3749
28429SOL     OW90133   0.003   4.286   6.750  0.0763  0.1498  0.4823
28429SOL    HW190134   0.024   4.255   6.838 -0.0144  0.0358  0.4639
28429SOL    HW290135   0.004   4.207   6.696 -1.1884  0.0137  0.6299
28430SOL     OW90136   1.849   1.678   0.763  0.6829  0.4670 -0.3885
28430SOL    HW190137   1.807   1.640   0.687  0.9162  1.5731 -1.1027
28430SOL    HW290138   1.794   1.652   0.837  1.2526 -1.8545 -0.7098
28431SOL     OW90139   2.875   2.201   8.748 -0.1834  0.5404  0.0325
28431SOL    HW190140   2.970   2.210   8.740  0.2256 -1.8734  0.9857
28431SOL    HW290141   2.859   2.199   8.843 -1.2064  1.1028 -0.1151
28432SOL     OW90142   5.822   5.392   4.167  0.5172  0.4797  0.1065
28432SOL    HW190143   5.731   5.380   4.193  0.7348 -0.8995  0.2825
28432SOL    HW290144   5.841   5.483   4.190  0.1722 -0.1186  3.2797
28433SOL     OW90145   3.593   1.470   6.057 -0.0165  0.4530 -0.3959
28433SOL    HW190146   3.543   1.444   6.134 -0.8024  2.9246 -0.0085
28433SOL    HW290147   3.626   1.387   6.021 -0.5315 -0.8521  1.9447
28434SOL     OW90148   9.305   1.627   9.507  0.2907 -0.1658  0.1612
28434SOL    HW190149   9.239   1.685   9.468  2.0144  1.2274 -0.8030
28434SOL    HW290150   9.322   1.664   9.593 -0.1364 -0.5036  0.3947
28435SOL     OW90151   8.409   8.871   8.260 -0.3210 -0.2332 -0.2674
28435SOL    HW190152   8.360   8.800   8.300 -2.2553  2.1489  1.9283
28435SOL    HW290153   8.402   8.943   8.322  1.5445  1.9092 -2.3435
28436SOL     OW90154   0.985   7.818   5.444 -0.1725  0.3732  0.0899
28436SOL    HW190155   0.935   7.807   5.364  0.0966 -0.0559 -0.0239
28436SOL    HW290156   0.937   7.769   5.510 -1.4856  2.3209  0.6924
28437SOL     OW90157   8.439   0.251   0.066  0.4187 -0.0280 -0.8422
28437SOL    HW190158   8.444   0.341   0.035  2.0593  0.5080  0.7958
28437SOL    HW290159   8.528   0.230   0.094 -0.2601 -1.5988  0.2888
28438SOL     OW90160   7.343   3.358   2.233 -0.4582 -0.4183  0.3291
28438SOL    HW190161   7.284   3.320   2.298 -1.8423  0.1154 -0.5697
28438SOL    HW290162   7.295   3.434   2.198  1.1396  0.5850  0.2051
28439SOL     OW90163   3.133   1.501   6.240  0.5415 -0.2868  0.6467
28439SOL    HW190164   3.131   1.548   6.323 -0.5930 -0.1172  0.5350
28439SOL    HW290165   3.045   1.464   6.231  1.2259 -1.9533  0.4502
28440SOL     OW90166   6.280   6.404   9.551  0.4817  0.1681 -0.4414
28440SOL    HW190167   6.239   6.488   9.527  0.0725 -0.0634 -0.5588
28440SOL    HW290168   6.240   6.340   9.492 -0.3497 -0.3751  0.6754
28441SOL     OW90169   7.283   2.304   0.270  0.5969 -0.2957  0.5461
28441SOL    HW190170   7.379   2.304   0.268  0.6069 -0.4606  1.0355
28441SOL    HW290171   7.258   2.271   0.183  0.9903 -1.0751  0.7177
28442SOL     OW90172   2.760   6.597   7.195  0.5775  0.1315  0.2237
28442SOL    HW190173   2.766   6.687   7.162 -0.6935 -0.0209 -0.5103
28442SOL    HW290174   2.759   6.607   7.290 -0.0383  0.9457  0.1470
28443SOL     OW90175   7.407   5.703   5.178 -0.2554  0.2126 -0.0476
28443SOL    HW190176   7.398   5.788   5.222  0.1078  1.8499 -2.8395
28443SOL    HW290177   7.462   5.722   5.101 -0.0361 -2.6193 -0.7077
28444SOL     OW90178   8.668   2.692   7.374  0.1012 -0.0079 -0.7022
28444SOL    HW190179   8.737   2.752   7.405  0.2248  0.3742 -1.6455
28444SOL    HW290180   8.588   2.724   7.416  0.3764  0.0254 -0.1958
28445SOL     OW90181   9.375   4.647   9.325  0.5571 -0.0246 -0.5803
28445SOL    HW190182   9.357   4.722   9.268 -0.6064  0.0502 -0.1403
28445SOL    HW290183   9.424   4.683   9.398  0.4998  0.2033 -0.6546
28446SOL     OW90184   5.889   4.685   8.506 -0.6276  0.3581 -0.1141
28446SOL    HW190185   5.956   4.641   8.455  0.0317 -0.4040  1.3752
28446SOL    HW290186   5.937   4.744   8.564 -1.3722  1.3232 -0.4439
28447SOL     OW90187   6.730   0.715   8.248  0.2070  0.0803 -0.4745
28447SOL    HW190188   6.798   0.777   8.223  0.5975  0.2462  0.9328
28447SOL    HW290189   6.769   0.663   8.318 -0.9228 -0.1633  0.0006
28448SOL     OW90190   7.598   1.557   3.390  0.3521 -0.0367  0.0297
28448SOL    HW190191   7.583   1.473   3.347  0.0401 -0.2531  0.5597
28448SOL    HW290192   7.631   1.534   3.477 -1.8025  0.3404  0.9952
28449SOL     OW90193   2.077   8.201   6.862  0.8722 -0.3272 -0.0659
28449SOL    HW190194   2.048   8.168   6.777  2.1673  1.0670 -1.1149
28449SOL    HW290195   2.147   8.262   6.841  0.3331  1.0812  1.9294
28450SOL     OW90196   3.279   2.853   5.788  0.2568 -0.0318 -0.2646
28450SOL    HW190197   3.195   2.842   5.745 -0.9595 -0.2635  2.0220
28450SOL    HW290198   3.264   2.921   5.854  2.7756  2.3751 -1.9274
28451SOL     OW90199   8.359   8.970   0.054  0.0689  0.4793  0.3340
28451SOL    HW190200   8.445   8.994   0.019  0.0986  1.1380  0.8584
28451SOL    HW290201   8.297   9.013  -0.005  0.1169  1.1624  0.7679
28452SOL     OW90202   2.108   1.291   7.748 -0.0824  0.1205  0.4299
28452SOL    HW190203   2.139   1.360   7.689 -0.0401  0.6190  1.0288
28452SOL    HW290204   2.175   1.285   7.816  0.0374 -0.6851  0.2533
28453SOL     OW90205   5.711   3.911   6.024  0.1783  0.1795 -0.5617
28453SOL    HW190206   5.804   3.929   6.037  0.6710 -1.2341 -1.8641
28453SOL    HW290207   5.673   3.997   6.003  1.1226  0.8063  0.1903
28454SOL     OW90208   2.850   9.546   3.572  0.6805  0.7594 -0.0364
28454SOL    HW190209   2.914   9.482   3.544  0.8529  0.6059  0.6807
28454SOL    HW290210   2.779   9.541   3.507  0.2496 -0.8185  0.5197
28455SOL     OW90211   0.275   4.096   3.039  0.5713  0.3597  0.2309
28455SOL    HW190212   0.301   4.188   3.044  0.1662  0.4899  0.0045
28455SOL    HW290213   0.345   4.048   3.082  2.4271  0.4677 -2.4370
28456SOL     OW90214   8.767   8.936   4.343  0.0792 -0.7493 -0.4208
28456SOL    HW190215   8.850   8.930   4.391 -1.1047 -0.1390  1.8344
28456SOL    HW290216   8.779   9.010   4.283  1.2357 -0.8271 -0.3048
28457SOL     OW90217   3.156   3.884   7.868  0.1716  0.0205 -0.5465
28457SOL    HW190218   3.079   3.828   7.881 -0.3524  0.8924  0.2824
28457SOL    HW290219   3.224   3.843   7.922 -0.3166  0.3558  0.3599
28458SOL     OW90220   3.339   5.150   0.784 -0.1496  0.1575  0.2051
28458SOL    HW190221   3.420   5.140   0.834 -0.5944  1.0118  1.1255
28458SOL    HW290222   3.367   5.146   0.693  0.9880  0.8359  0.5027
28459SOL     OW90223   0.030   7.718   9.350  0.4618  0.3173 -0.6176
28459SOL    HW190224  -0.052   7.681   9.318 -1.1526 -0.3441  3.5265
28459SOL    HW290225   0.003   7.799   9.394  2.4935  1.5028 -1.4407
28460SOL     OW90226   3.941   0.239   7.799  0.4002 -0.2188  0.3799
28460SOL    HW190227   3.922   0.293   7.722 -1.2317  0.0461  0.9478
28460SOL    HW290228   4.030   0.264   7.824  0.2316  1.1160 -0.2618
28461SOL     OW90229   5.414   8.978   5.611 -0.0309  0.2054 -0.0059
28461SOL    HW190230   5.420   9.052   5.672 -1.7523  1.0882 -0.8469
28461SOL    HW290231   5.466   9.005   5.535  2.2670 -0.9706  1.0529
28462SOL     OW90232   3.010   9.558   9.199 -0.5445  0.1691  0.5649
28462SOL    HW190233   3.033   9.647   9.224 -0.0203  0.3799 -0.5742
28462SOL    HW290234   2.916   9.551   9.214 -0.1736 -0.0352  3.3646
28463SOL     OW90235   4.395   3.638   3.163 -0.0407  0.0691 -0.2822
28463SOL    HW190236   4.321   3.592   3.202  0.1154 -1.3773 -1.5771
28463SOL    HW290237   4.466   3.626   3.226 -0.5006  0.1259  0.2521
28464SOL     OW90238   7.964   6.410   2.967  0.8422  0.5996  0.1600
28464SOL    HW190239   7.902   6.345   3.000  0.1450  0.1965 -1.8057
28464SOL    HW290240   8.036   6.410   3.031 -0.7141  0.4068  2.0007
28465SOL     OW90241   9.416   6.770   1.994  0.6543 -0.3104 -0.1229
28465SOL    HW190242   9.443   6.794   1.905 -0.0150 -0.0882 -0.2750
28465SOL    HW290243   9.456   6.836   2.050  2.0766 -1.1387 -0.1153
28466SOL     OW90244   5.787   5.164   5.220 -0.6288  0.0156 -0.2950
28466SOL    HW190245   5.731   5.086   5.226  0.2978 -0.7269 -1.0208
28466SOL    HW290246   5.725   5.237   5.211 -1.4961 -0.7731 -0.9101
28467SOL     OW90247   8.140   5.794   1.505  0.2090 -0.1344  0.4426
28467SOL    HW190248   8.138   5.731   1.433  0.7907  1.2219 -0.8187
28467SOL    HW290249   8.075   5.762   1.567  0.8563 -2.2288  0.0866
28468SOL     OW90250   9.388   2.187   0.724 -0.0108  0.5060 -0.2206
28468SOL    HW190251   9.353   2.109   0.681  0.5921 -0.7023  1.3986
28468SOL    HW290252   9.466   2.157   0.769  0.1408  2.0202  0.5930
28469SOL     OW90253   4.256   3.987   0.127 -0.1980  0.3360 -0.0727
28469SOL    HW190254   4.348   3.993   0.099 -0.2972  1.2197 -0.2176
28469SOL    HW290255   4.256   3.917   0.193  0.5992  0.4098  0.0148
28470SOL     OW90256   7.541   2.252   5.109 -0.4771 -0.3858 -0.2545
28470SOL    HW190257   7.497   2.238   5.025  0.4745 -1.9081 -0.5345
28470SOL    HW290258   7.630   2.280   5.085 -0.0576 -1.2829  0.2125
28471SOL     OW90259   8.276   4.533   4.053  0.2340  1.0052 -0.1067
28471SOL    HW190260   8.214   4.526   3.981 -1.2975 -1.0417  1.2941
28471SOL    HW290261   8.276   4.626   4.075 -0.6287  1.3873 -1.5783
28472SOL     OW90262   6.513   3.875   9.113 -0.4860  0.1459 -0.3383
28472SOL    HW190263   6.511   3.934   9.188  0.0779 -0.6876  0.3469
28472SOL    HW290264   6.438   3.901   9.060 -0.0044  1.7578 -0.2746
28473SOL     OW90265   8.297   0.927   2.949  0.1305 -0.1799  0.5996
28473SOL    HW190266   8.312   0.966   2.863  0.0978  1.7679  1.4269
28473SOL    HW290267   8.381   0.933   2.994  0.3410 -1.8557  0.4883
28474SOL     OW90268   2.440   6.108   2.376  0.2210 -0.2067 -0.4878
28474SOL    HW190269   2.507   6.107   2.444  0.3983  0.7670 -0.6425
28474SOL    HW290270   2.389   6.028   2.392 -1.5760  1.3636  2.6574
28475SOL     OW90271   5.990   4.138   7.329 -0.3457  0.3799 -0.1313
28475SOL    HW190272   6.016   4.064   7.275  1.1020  1.0698 -0.4190
28475SOL    HW290273   6.014   4.112   7.418  0.1368  0.4942 -0.2278
28476SOL     OW90274   4.304   9.335   3.354  0.1325  0.5647  0.0629
28476SOL    HW190275   4.327   9.427   3.366 -0.7418  0.7416  0.4625
28476SOL    HW290276   4.377   9.286   3.392 -0.5297  1.1037  2.1374
28477SOL     OW90277   6.592   8.059   4.680  0.4157  0.3370 -0.2537
28477SOL    HW190278   6.576   8.152   4.700  3.9983  1.3067 -1.2805
28477SOL    HW290279   6.645   8.028   4.753  2.3517  0.1990 -1.6520
28478SOL     OW90280   4.722   7.849   8.442 -0.2559  0.0246  0.0483
28478SOL    HW190281   4.647   7.814   8.393 -0.8578  0.1179  0.8941
28478SOL    HW290282   4.759   7.915   8.383 -0.2430 -0.6952 -0.7771
28479SOL     OW90283   8.875   9.249   7.166 -0.6110  0.3030 -0.0761
28479SOL    HW190284   8.790   9.272   7.129 -0.4572 -1.1263 -1.3958
28479SOL    HW290285   8.938   9.301   7.116 -0.4261 -1.4341 -1.7434
28480SOL     OW90286   3.766   8.606   7.978 -0.5661 -0.7431 -0.2413
28480SOL    HW190287   3.835   8.543   8.001  1.1463  0.3052 -2.2170
28480SOL    HW290288   3.706   8.556   7.923  0.5983 -0.7933 -1.5150
28481SOL     OW90289   1.361   7.626   5.117 -0.1495  0.2273 -0.1351
28481SOL    HW190290   1.348   7.604   5.210 -0.3943  0.5902 -0.0766
28481SOL    HW290291   1.278   7.602   5.076 -0.8359  1.9641  0.1197
28482SOL     OW90292   2.351   7.165   5.272  0.1729 -0.8220 -0.0082
28482SOL    HW190293   2.395   7.190   5.190  2.1874 -0.3523  1.1467
28482SOL    HW290294   2.301   7.086   5.249 -0.9047  0.3810 -2.1226
28483SOL     OW90295   0.566   4.868   3.242  0.7902  0.1180  0.2194
28483SOL    HW190296   0.632   4.867   3.311  1.1664  1.9942 -0.0733
28483SOL    HW290297   0.576   4.783   3.199  0.0124 -1.4498  2.9132
28484SOL     OW90298   7.225   4.686   1.378 -0.2556  0.2712  0.0930
28484SOL    HW190299   7.155   4.707   1.440  0.6872  0.6598  1.0521
28484SOL    HW290300   7.180   4.645   1.304 -1.4545  0.1963  0.8402
28485SOL     OW90301   0.007   0.904   8.981  0.1960  0.2212 -0.2317
28485SOL    HW190302   0.029   0.917   9.073  0.4006  1.1517 -0.4031
28485SOL    HW290303  -0.065   0.964   8.964  1.2625  1.2991 -1.0925
28486SOL     OW90304   3.648   5.844   1.031 -0.2354 -0.0209 -0.3820
28486SOL    HW190305   3.568   5.792   1.027  0.6509 -1.4469 -0.3005
28486SOL    HW290306   3.716   5.781   1.057  0.9861  1.0560 -0.8774
28487SOL     OW90307   7.950   8.191   5.597  0.3883  0.1450 -0.2029
28487SOL    HW190308   7.941   8.221   5.687  1.8313  1.8575 -0.5661
28487SOL    HW290309   7.918   8.264   5.544 -0.3698 -0.8096 -1.1008
28488SOL     OW90310   2.531   7.284   0.672 -0.8959  0.7877 -0.6247
28488SOL    HW190311   2.492   7.248   0.593  1.0374 -0.8943 -0.8920
28488SOL    HW290312   2.497   7.230   0.743 -0.9172  0.8572 -0.5821
28489SOL     OW90313   1.351   5.363   0.656  0.3326  0.1923  0.0331
28489SOL    HW190314   1.416   5.338   0.590  0.0419  1.3862 -0.7550
28489SOL    HW290315   1.401   5.373   0.737  0.9890  0.2488 -0.3677
28490SOL     OW90316   4.605   6.843   8.531  0.5785 -0.0027  0.6530
28490SOL    HW190317   4.648   6.920   8.568  0.4856  0.1666  0.4099
28490SOL    HW290318   4.676   6.779   8.519  0.4789 -0.4137  1.9984
28491SOL     OW90319   0.123   1.596   9.716 -0.3281 -0.1052  0.3025
28491SOL    HW190320   0.146   1.525   9.777  1.4261 -1.4214 -1.7709
28491SOL    HW290321   0.184   1.666   9.736  1.0311 -0.9820 -0.6596
28492SOL     OW90322   3.644   5.986   0.803 -0.4942  0.0456 -0.1206
28492SOL    HW190323   3.634   6.081   0.809 -0.9925 -0.0325  0.3224
28492SOL    HW290324   3.639   5.955   0.893  0.2616 -0.3510 -0.2065
28493SOL     OW90325   4.422   5.170   5.315 -0.0437 -0.2018  0.2388
28493SOL    HW190326   4.464   5.225   5.381 -0.4159 -0.5276  0.7556
28493SOL    HW290327   4.453   5.205   5.231  0.0052  0.5559  0.5677
28494SOL     OW90328   1.366   2.032   2.791  0.4087  0.0296 -0.2241
28494SOL    HW190329   1.443   2.031   2.735 -1.2623  0.4376 -2.7030
28494SOL    HW290330   1.334   2.122   2.786 -0.5309 -0.2589  0.3154
28495SOL     OW90331   7.695   6.557   0.119 -0.2746 -0.3647 -0.2252
28495SOL    HW190332   7.653   6.543   0.035  0.3083  2.3069 -1.0424
28495SOL    HW290333   7.633   6.609   0.169  0.1117 -0.4375  0.3452
28496SOL     OW90334   7.799   2.706   0.965 -0.4209  0.1419 -0.5307
28496SOL    HW190335   7.849   2.699   0.884  0.4391 -0.8971  0.0665
28496SOL    HW290336   7.811   2.796   0.993 -2.2790  1.1140 -2.4920
28497SOL     OW90337   4.246   8.089   7.834 -0.1066 -0.4594 -0.5261
28497SOL    HW190338   4.259   8.018   7.771  2.5703  0.1350 -0.7539
28497SOL    HW290339   4.275   8.054   7.918 -0.0777 -0.0784 -0.3727
28498SOL     OW90340   1.293   0.318   0.990 -0.3388  0.2671 -0.3528
28498SOL    HW190341   1.321   0.296   0.902  0.3554  2.5755 -0.7738
28498SOL    HW290342   1.263   0.409   0.984 -0.4873  0.4180  1.7367
28499SOL     OW90343   1.041   1.780   4.900  0.3001  0.9803  0.0383
28499SOL    HW190344   0.985   1.839   4.952 -0.1857 -0.6526  1.4533
28499SOL    HW290345   1.128   1.790   4.938  0.3553  1.2863 -0.1686
28500SOL     OW90346   0.634   2.887   6.390  0.1803 -0.5018 -0.1035
28500SOL    HW190347   0.687   2.886   6.470 -0.5293 -1.0941  0.3813
28500SOL    HW290348   0.597   2.975   6.386  2.8028  0.6349 -1.5737
28501SOL     OW90349   1.419   5.533   4.597  0.2087  0.3325 -0.4644
28501SOL    HW190350   1.357   5.481   4.649 -0.8900  0.2334 -1.8325
28501SOL    HW290351   1.493   5.548   4.657 -0.7868 -0.1918  0.9574
28502SOL     OW90352   9.311   5.924   9.353  0.2595  0.3699 -0.0276
28502SOL    HW190353   9.345   5.869   9.423  0.5848 -2.1263 -1.9923
28502SOL    HW290354   9.256   5.988   9.397  0.3795 -1.1293  2.4836
28503SOL     OW90355   5.692   8.075   9.111 -0.2723 -0.4032 -0.5662
28503SOL    HW190356   5.760   8.007   9.117  0.9364  0.7616 -0.6149
28503SOL    HW290357   5.610   8.028   9.124  0.6613 -1.5189  1.7407
28504SOL     OW90358   2.261   0.100   7.499 -0.2312 -0.2922  0.1675
28504SOL    HW190359   2.239   0.012   7.469  0.2522  0.1820 -1.7054
28504SOL    HW290360   2.180   0.135   7.535 -0.2320 -1.7662  1.7479
28505SOL     OW90361   4.772   0.997   8.782 -0.2203 -0.1286 -0.0332
28505SOL    HW190362   4.840   1.025   8.843 -0.8815  1.8968 -0.1575
28505SOL    HW290363   4.756   0.905   8.804 -0.4338  0.5103  2.8436
28506SOL     OW90364   2.686   6.811   6.779  0.2035  0.2942  0.4567
28506SOL    HW190365   2.692   6.848   6.867  0.1324 -1.3380  1.1856
28506SOL    HW290366   2.642   6.879   6.727  3.3643  2.7837  0.7327
28507SOL     OW90367   9.084   8.455   3.925 -0.7783  0.6835 -0.0066
28507SOL    HW190368   8.997   8.490   3.945 -1.3058 -1.2152  1.3374
28507SOL    HW290369   9.070   8.361   3.917  0.6948  0.6069 -2.6979
28508SOL     OW90370   2.562   7.353   7.223 -0.1739  0.2662 -0.5687
28508SOL    HW190371   2.629   7.298   7.263 -0.4501  1.1336  1.2137
28508SOL    HW290372   2.490   7.293   7.204  1.2596 -0.7942 -3.1031
28509SOL     OW90373   9.247   8.780   1.118 -0.2972 -0.2864  0.0442
28509SOL    HW190374   9.269   8.805   1.028 -0.0713  0.7097  0.3712
28509SOL    HW290375   9.166   8.729   1.109 -1.9380  2.2466 -0.4656
28510SOL     OW90376   3.485   7.065   1.843  0.5439 -0.1665  0.2959
28510SOL    HW190377   3.476   6.971   1.859 -1.2461 -0.1095 -0.1505
28510SOL    HW290378   3.488   7.072   1.747 -1.2502  0.3231  0.2401
28511SOL     OW90379   5.285   3.121   5.072  0.2780 -0.3358 -0.1302
28511SOL    HW190380   5.339   3.145   4.997 -1.0093  0.4991 -0.8217
28511SOL    HW290381   5.344   3.069   5.128  1.8102  0.6196 -0.7843
28512SOL     OW90382   6.249   4.731   5.083 -0.3031 -0.0860 -0.4549
28512SOL    HW190383   6.338   4.700   5.101 -0.1518  0.3136 -0.4882
28512SOL    HW290384   6.234   4.800   5.147 -0.3987  0.1919 -0.7687
28513SOL     OW90385   6.270   2.611   5.714  0.5783  0.0269 -0.8256
28513SOL    HW190386   6.294   2.639   5.625  2.2503 -0.2401 -0.4893
28513SOL    HW290387   6.353   2.597   5.758 -0.2253 -0.7973  0.5040
28514SOL     OW90388   7.747   6.215   3.040 -0.9707  0.4208  0.4874
28514SOL    HW190389   7.726   6.245   3.128 -0.3760 -1.1744  1.2210
28514SOL    HW290390   7.668   6.233   2.989 -1.1750  1.7449  1.2183
28515SOL     OW90391   3.514   2.901   3.139  0.3244 -0.6233 -0.1829
28515SOL    HW190392   3.537   2.994   3.133  0.6266 -0.7330 -0.8032
28515SOL    HW290393   3.423   2.901   3.169  0.7777 -0.1585  1.2767
28516SOL     OW90394   0.628   8.243   8.579 -0.8426 -0.1089 -0.3457
28516SOL    HW190395   0.648   8.265   8.488  3.6458 -1.9852 -0.0623
28516SOL    HW290396   0.569   8.168   8.574  1.7071 -2.1525 -1.9488
28517SOL     OW90397   5.212   0.536   1.605  0.0563  0.0144 -0.1038
28517SOL    HW190398   5.159   0.531   1.684 -0.4114 -0.4269 -0.4365
28517SOL    HW290399   5.246   0.447   1.594  0.5360  0.2001 -0.1131
28518SOL     OW90400   6.934   3.905   6.871 -0.2982  0.7276  0.4132
28518SOL    HW190401   6.913   3.881   6.781  0.7906 -0.0618  0.3488
28518SOL    HW290402   6.985   3.986   6.864 -2.2527  2.0494  0.5079
28519SOL     OW90403   0.337   7.043   0.348  0.0290 -0.0956 -0.5750
28519SOL    HW190404   0.254   7.086   0.327 -0.6149 -0.4983  0.9832
28519SOL    HW290405   0.394   7.061   0.273 -1.4820  0.1215 -1.7028
28520SOL     OW90406   3.792   7.935   6.163  0.1354  0.4103  0.9192
28520SOL    HW190407   3.736   7.980   6.100  0.4033  2.9905  2.4023
28520SOL    HW290408   3.737   7.924   6.241  0.9737  0.8535  1.5895
28521SOL     OW90409   7.238   0.433   7.971 -0.2179  0.2459  0.2270
28521SOL    HW190410   7.297   0.505   7.995  0.5496 -0.3381  0.1321
28521SOL    HW290411   7.219   0.448   7.878  3.5488 -2.0505 -1.1475
28522SOL     OW90412   7.968   4.737   8.038  0.1511 -0.1865 -0.4656
28522SOL    HW190413   7.887   4.749   8.088  0.8691 -1.8702  1.1797
28522SOL    HW290414   7.943   4.679   7.966 -0.4988  0.8848 -1.1424
28523SOL     OW90415   9.742   3.946   2.648 -0.0819  0.0590  0.1688
28523SOL    HW190416   9.794   4.006   2.595 -0.2266 -0.7102 -0.8883
28523SOL    HW290417   9.779   3.953   2.736  2.1960 -0.8945 -0.6490
28524SOL     OW90418   3.409   8.912   4.137 -0.8118  0.1517  0.1816
28524SOL    HW190419   3.376   8.824   4.121 -1.7434  0.0365  2.3360
28524SOL    HW290420   3.444   8.909   4.226 -2.2701  2.3261  0.9214
28525SOL     OW90421   3.472   3.174   3.562  0.0714  0.3735 -0.6474
28525SOL    HW190422   3.563   3.186   3.590  0.2297  1.2963 -1.5154
28525SOL    HW290423   3.477   3.156   3.469 -0.6275  0.1141 -0.6436
28526SOL     OW90424   0.206   8.137   8.733 -0.2388 -0.1516 -0.4255
28526SOL    HW190425   0.194   8.185   8.651  0.4744 -0.0153 -0.4632
28526SOL    HW290426   0.239   8.203   8.795  2.2627 -0.8342 -0.8930
28527SOL     OW90427   5.796   2.820   2.311  0.4180  0.0125  0.0379
28527SOL    HW190428   5.717   2.811   2.365 -0.3060  0.2496 -0.9488
28527SOL    HW290429   5.794   2.745   2.252 -0.0542  0.9516 -1.1898
28528SOL     OW90430   1.866   9.010   6.500  0.2012  0.1622 -0.4747
28528SOL    HW190431   1.917   9.074   6.549  0.3430 -0.8778  0.7753
28528SOL    HW290432   1.796   9.061   6.460  2.0630  1.6041 -2.1055
28529SOL     OW90433   6.722   6.491   6.037 -0.3453 -0.0420 -0.7469
28529SOL    HW190434   6.798   6.437   6.014  0.0586  1.2246 -2.5278
28529SOL    HW290435   6.662   6.481   5.963 -1.3970 -0.0362  0.0781
28530SOL     OW90436   5.987   6.581   0.005 -0.0393 -0.1211 -0.5833
28530SOL    HW190437   6.007   6.648  -0.060 -2.2282  1.0088 -0.1791
28530SOL    HW290438   6.009   6.621   0.089 -3.2364  0.9985 -0.1608
28531SOL     OW90439   8.281   3.976   6.048  0.0169  0.1987 -0.5855
28531SOL    HW190440   8.186   3.970   6.053 -0.1353  0.7202 -2.0804
28531SOL    HW290441   8.298   4.066   6.018  1.0745  0.6280  1.1806
28532SOL     OW90442   9.538   2.580   8.332 -0.1137 -0.2766 -0.6455
28532SOL    HW190443   9.446   2.560   8.317 -0.2168 -0.6664  0.4399
28532SOL    HW290444   9.551   2.666   8.291 -0.9437 -0.2337 -0.8328
28533SOL     OW90445   1.166   7.287   2.454  0.1809 -0.1499 -0.5429
28533SOL    HW190446   1.131   7.312   2.369  0.7591 -0.0758 -0.7651
28533SOL    HW290447   1.188   7.194   2.445 -0.7663 -0.4253 -0.1253
28534SOL     OW90448   0.659   7.092   5.726  0.2936  0.0141 -0.5370
28534SOL    HW190449   0.653   7.011   5.675 -1.2984 -0.0892 -0.2125
28534SOL    HW290450   0.626   7.069   5.812 -0.7852  1.1604 -0.6204
28535SOL     OW90451   1.091   6.038   9.687 -0.1651  0.0062  0.3480
28535SOL    HW190452   1.063   5.997   9.769  2.1379 -0.9662  0.7181
28535SOL    HW290453   1.042   5.992   9.619 -1.0898 -0.1129  1.0715
28536SOL     OW90454   2.514   1.431   4.283 -0.7036 -0.1180  0.3671
28536SOL    HW190455   2.440   1.386   4.243  0.0204 -1.2782  0.2638
28536SOL    HW290456   2.552   1.483   4.213 -0.4268 -0.8585 -0.0522
28537SOL     OW90457   7.877   9.608   7.507  0.3312 -0.2163  0.1021
28537SOL    HW190458   7.899   9.677   7.444  0.2683 -0.7225 -0.4876
28537SOL    HW290459   7.877   9.652   7.592 -0.2559  0.6273 -0.3240
28538SOL     OW90460   4.897   5.520   0.148  0.5391 -0.2451 -0.3177
28538SOL    HW190461   4.916   5.607   0.113 -0.0296  0.6734  1.5115
28538SOL    HW290462   4.805   5.504   0.127  0.8116 -0.7080 -1.2103
28539SOL     OW90463   1.834   2.075   7.427  0.1839 -0.0540  0.4162
28539SOL    HW190464   1.854   2.153   7.375 -0.1312 -0.4554 -0.3365
28539SOL    HW290465   1.893   2.008   7.393 -2.0085 -1.1320 -1.5408
28540SOL     OW90466   0.838   2.163   7.833 -0.6177 -0.1035  0.0467
28540SOL    HW190467   0.826   2.069   7.821  0.4674 -0.2307 -0.0907
28540SOL    HW290468   0.925   2.182   7.799 -1.8442  1.4523 -2.5294
28541SOL     OW90469   6.644   9.066   1.703  0.0382 -1.2908  0.5032
28541SOL    HW190470   6.664   9.008   1.630  1.3873 -0.7359  0.4165
28541SOL    HW290471   6.653   9.011   1.780  0.1333 -1.4875  0.3530
28542SOL     OW90472   5.336   5.507   7.798  0.4359  0.2884 -1.0903
28542SOL    HW190473   5.342   5.480   7.890 -0.3785  2.1528 -0.4395
28542SOL    HW290474   5.376   5.593   7.795  0.6802  0.1552 -2.5565
28543SOL     OW90475   8.983   6.129   3.299 -0.2910  0.2237 -0.6188
28543SOL    HW190476   8.943   6.198   3.247 -0.6047 -0.7809 -1.7542
28543SOL    HW290477   9.059   6.171   3.340 -0.1031  1.0744 -1.7969
28544SOL     OW90478   0.738   7.096   4.960  0.1728  0.2208 -0.3714
28544SOL    HW190479   0.672   7.104   5.029 -1.3606 -1.4185 -1.5688
28544SOL    HW290480   0.761   7.187   4.940  0.1215  0.7612  1.7409
28545SOL     OW90481   9.269   2.368   8.650 -0.0167 -0.3744 -0.1085
28545SOL    HW190482   9.357   2.331   8.639  1.0146  2.2021 -1.5032
28545SOL    HW290483   9.251   2.360   8.743  2.3856  0.3582  0.4817
28546SOL     OW90484   8.345   7.984   2.496 -0.5136 -0.0134 -0.2020
28546SOL    HW190485   8.251   7.974   2.484 -0.3428 -0.3933 -1.3435
28546SOL    HW290486   8.380   7.997   2.408  0.3894  1.2421  0.3019
28547SOL     OW90487   6.789   2.165   3.071 -0.0116 -0.2327  0.3717
28547SOL    HW190488   6.879   2.198   3.076 -0.4238  0.7653  2.3002
28547SOL    HW290489   6.776   2.145   2.978  2.5520 -1.4973  0.1768
28548SOL     OW90490   6.890   3.568   4.022  0.6384  0.1882  0.3479
28548SOL    HW190491   6.938   3.546   4.102  1.3227  1.2342  0.2514
28548SOL    HW290492   6.883   3.664   4.024  0.1160  0.1817 -0.5391
28549SOL     OW90493   0.293   7.938   0.048 -0.4484  0.1446 -0.3046
28549SOL    HW190494   0.320   8.022   0.085 -1.3413 -0.0976  0.9742
28549SOL    HW290495   0.323   7.873   0.112 -2.7133 -0.2279  0.4704
28550SOL     OW90496   2.971   8.229   6.689 -0.0458  0.0744  0.2607
28550SOL    HW190497   2.911   8.276   6.747 -0.0982 -0.0350  0.2961
28550SOL    HW290498   2.986   8.145   6.733 -0.3546 -0.1483 -0.0494
28551SOL     OW90499   1.184   4.217   2.710 -0.1622 -0.1581  0.2304
28551SOL    HW190500   1.235   4.195   2.632  0.0911 -1.3649  0.7077
28551SOL    HW290501   1.235   4.287   2.753 -0.4926  0.7664 -0.8476
28552SOL     OW90502   5.380   4.607   8.045 -0.3405  0.2891  0.1036
28552SOL    HW190503   5.393   4.593   8.138  0.2681  1.8021  0.2850
28552SOL    HW290504   5.294   4.648   8.038 -0.6954 -0.4719 -0.0813
28553SOL     OW90505   1.473   7.666   2.755 -0.4365  0.1301 -0.8088
28553SOL    HW190506   1.527   7.589   2.777  1.3433  1.5150 -0.0112
28553SOL    HW290507   1.386   7.630   2.738  0.1423 -1.9887  0.2669
28554SOL     OW90508   6.004   7.917   7.522 -0.2585  0.0151  0.5191
28554SOL    HW190509   5.914   7.929   7.492  0.0420  1.2619  0.0481
28554SOL    HW290510   6.038   7.846   7.468 -0.5389  0.4708 -0.2783
28555SOL     OW90511   5.661   4.152   9.670 -0.3803 -0.0073 -0.1541
28555SOL    HW190512   5.612   4.080   9.710 -0.4366  0.2657  0.2739
28555SOL    HW290513   5.746   4.114   9.648  0.0987  0.1215  1.3091
28556SOL     OW90514   3.434   0.736   2.585 -0.2196 -0.2566  0.2949
28556SOL    HW190515   3.408   0.672   2.518  0.2831  1.1197 -1.2732
28556SOL    HW290516   3.504   0.692   2.633  1.0519 -0.4424 -1.6268
28557SOL     OW90517   8.240   9.087   5.446 -0.4306  0.0096  0.2409
28557SOL    HW190518   8.249   9.164   5.391 -1.5691  0.8920  1.2245
28557SOL    HW290519   8.323   9.081   5.494 -1.0043  1.8033  1.5697
28558SOL     OW90520   5.826   6.849   1.972 -0.1973  0.3592  0.5223
28558SOL    HW190521   5.913   6.880   1.995  0.4937 -0.9645 -0.1779
28558SOL    HW290522   5.788   6.920   1.920  1.1076  0.3241 -0.5487
28559SOL     OW90523   4.695   5.545   4.849 -0.8027 -0.1989  0.1946
28559SOL    HW190524   4.774   5.519   4.897 -0.2677 -2.0746 -1.5619
28559SOL    HW290525   4.640   5.587   4.915  0.4379 -1.4550  2.1537
28560SOL     OW90526   3.446   1.023   4.082  0.0601  0.1730  0.1308
28560SOL    HW190527   3.448   1.030   4.177  1.3826  1.7219  0.0308
28560SOL    HW290528   3.460   1.113   4.051 -0.1841 -0.3306 -1.5197
28561SOL     OW90529   7.368   4.644   8.081 -0.7372  0.0255  0.1834
28561SOL    HW190530   7.436   4.705   8.052 -1.4713  0.8880  0.2547
28561SOL    HW290531   7.388   4.563   8.035 -2.2177  1.4798 -3.3320
28562SOL     OW90532   3.763   4.675   0.090 -0.4836  0.2677 -0.4148
28562SOL    HW190533   3.812   4.627   0.023  0.3272 -0.3933  0.6340
28562SOL    HW290534   3.810   4.757   0.101  1.1994 -0.8781  1.4888
28563SOL     OW90535   9.584   1.559   7.669  0.1532 -0.5113  0.5383
28563SOL    HW190536   9.585   1.635   7.728 -1.5262  0.7173 -0.9355
28563SOL    HW290537   9.544   1.591   7.589 -1.3860 -3.1774  0.1386
28564SOL     OW90538   0.538   5.548   6.502 -0.1421  1.1186  0.4375
28564SOL    HW190539   0.603   5.591   6.446  2.6379 -3.6864 -0.5792
28564SOL    HW290540   0.462   5.538   6.445  1.4607 -0.7526 -1.5246
28565SOL     OW90541   5.539   8.381   2.064 -0.2637  0.0419  0.0560
28565SOL    HW190542   5.539   8.422   2.151  1.0787  0.5196 -0.1550
28565SOL    HW290543   5.468   8.316   2.069 -1.9589  1.8201  0.6408
28566SOL     OW90544   0.940   6.272   0.854  0.3692 -0.0630 -0.1875
28566SOL    HW190545   0.896   6.247   0.935 -0.0749 -0.1285 -0.4460
28566SOL    HW290546   0.957   6.189   0.809 -0.4748  0.0464 -0.7208
28567SOL     OW90547   0.076   2.394   4.413 -0.4713 -0.5852 -0.2530
28567SOL    HW190548   0.027   2.327   4.460  0.7441 -0.8086  0.7399
28567SOL    HW290549   0.160   2.399   4.458 -0.2374  1.0548 -0.7964
28568SOL     OW90550   6.506   2.322   2.473  0.6061  0.8582 -0.0735
28568SOL    HW190551   6.523   2.375   2.395  0.4647  0.2102 -0.5496
28568SOL    HW290552   6.439   2.260   2.446  1.4180 -0.1653  0.1974
28569SOL     OW90553   0.872   6.943   1.418  0.0028  0.4868  0.2225
28569SOL    HW190554   0.791   6.970   1.462 -0.0508  0.0361  0.4095
28569SOL    HW290555   0.845   6.870   1.362  0.1727  0.7136 -0.1573
28570SOL     OW90556   5.596   4.777   7.123  0.5543  0.0763 -0.1119
28570SOL    HW190557   5.599   4.730   7.207 -0.6515  1.3243  0.6821
28570SOL    HW290558   5.503   4.779   7.101  0.6459  1.5260 -0.4270
28571SOL     OW90559   6.383   7.961   1.618  0.8813 -0.3557 -0.8187
28571SOL    HW190560   6.448   7.905   1.576  0.2502 -1.5821 -0.2196
28571SOL    HW290561   6.342   7.905   1.683 -1.3483  0.0967 -1.7315
28572SOL     OW90562   7.945   9.302   2.813  0.8928 -0.5163  0.7279
28572SOL    HW190563   8.030   9.262   2.833  1.1433 -0.2149  0.2846
28572SOL    HW290564   7.934   9.290   2.719  0.3730 -0.6771  0.8040
28573SOL     OW90565   1.137   2.527   6.828  0.3299 -0.2111 -0.4532
28573SOL    HW190566   1.217   2.579   6.837  0.0443 -0.0582  1.5217
28573SOL    HW290567   1.086   2.546   6.906  0.0550 -3.1865  0.2159
28574SOL     OW90568   8.912   1.733   1.817 -0.1666  0.1874 -0.4837
28574SOL    HW190569   8.909   1.683   1.898 -2.7872  0.4033 -0.3570
28574SOL    HW290570   8.947   1.818   1.842 -1.6469  0.5142  0.6378
28575SOL     OW90571   1.394   5.836   6.751  0.3690 -0.3290  0.2692
28575SOL    HW190572   1.416   5.743   6.753 -1.4515 -0.7995  1.4494
28575SOL    HW290573   1.402   5.861   6.659 -0.9416 -2.1623 -0.4045
28576SOL     OW90574   6.973   6.142   1.081  0.1772  0.4198 -0.7173
28576SOL    HW190575   6.948   6.052   1.060 -0.4240 -0.2793  2.4662
28576SOL    HW290576   6.891   6.191   1.079  0.1781  0.4334 -0.4816
28577SOL     OW90577   7.252   1.959   0.896 -0.2968  0.2051  0.1635
28577SOL    HW190578   7.306   1.902   0.841  1.0756  1.4728  0.1256
28577SOL    HW290579   7.239   1.910   0.977  2.1562  0.3909  0.7404
28578SOL     OW90580   4.842   2.301   0.702  0.4407 -0.3572 -0.5815
28578SOL    HW190581   4.885   2.254   0.631  0.8008 -0.6531 -0.1806
28578SOL    HW290582   4.784   2.237   0.742 -0.9505  0.2482 -1.5758
28579SOL     OW90583   0.625   3.437   6.526  0.5849  0.1422 -0.1296
28579SOL    HW190584   0.651   3.353   6.488 -0.2941 -0.6210  0.9313
28579SOL    HW290585   0.652   3.502   6.460  2.0497 -0.8816 -0.5744
28580SOL     OW90586   2.270   5.437   5.365  0.4558  0.3736 -0.6769
28580SOL    HW190587   2.205   5.449   5.434 -0.5158 -0.3330 -1.4341
28580SOL    HW290588   2.300   5.346   5.376  1.3771  0.7121 -0.2943
28581SOL     OW90589   3.648   1.276   0.671  0.3197 -0.2263 -0.0557
28581SOL    HW190590   3.687   1.205   0.621  0.3858  1.2234 -2.2028
28581SOL    HW290591   3.722   1.313   0.721  0.9570  0.2233 -1.2905
28582SOL     OW90592   8.263   6.547   2.782  0.1241 -0.1792  0.2247
28582SOL    HW190593   8.182   6.531   2.733  0.4723 -0.1348 -0.3785
28582SOL    HW290594   8.234   6.565   2.871 -0.5149 -0.4354  0.0765
28583SOL     OW90595   1.638   1.960   4.782 -0.2566  0.4095 -0.2028
28583SOL    HW190596   1.543   1.964   4.795 -0.1947  2.9931 -0.0445
28583SOL    HW290597   1.665   2.051   4.771  1.8723 -0.4120 -3.0815
28584SOL     OW90598   1.353   4.594   0.295 -0.0516  0.1898  0.1476
28584SOL    HW190599   1.272   4.558   0.331  0.0999 -0.6148 -0.2968
28584SOL    HW290600   1.422   4.555   0.350  0.0478  0.7375  0.4161
28585SOL     OW90601   5.897   3.325   4.965  0.3303 -0.3324  0.3851
28585SOL    HW190602   5.987   3.307   4.939  0.5743  2.9798 -1.6534
28585SOL    HW290603   5.843   3.283   4.898  0.5240  0.1364 -0.0708
28586SOL     OW90604   1.601   1.713   2.292 -0.5825 -0.1839  0.0220
28586SOL    HW190605   1.555   1.752   2.367  0.1880  0.0713  0.3710
28586SOL    HW290606   1.671   1.662   2.332 -0.4682 -0.4474 -0.5147
28587SOL     OW90607   2.932   6.622   6.709 -0.2061  0.3264 -0.1209
28587SOL    HW190608   2.864   6.583   6.764 -0.5630  0.3886 -0.5139
28587SOL    HW290609   2.970   6.548   6.661  1.2254  0.0290  1.3930
28588SOL     OW90610   1.968   8.918   1.245 -0.1159  0.5717 -0.2339
28588SOL    HW190611   1.888   8.970   1.242 -0.1730  0.5989  1.2143
28588SOL    HW290612   1.950   8.844   1.187 -1.1225  0.6690 -0.0607
28589SOL     OW90613   9.039   5.034   5.392 -0.5604 -0.3283  0.4348
28589SOL    HW190614   8.947   5.034   5.418 -0.3130  0.4489  1.3484
28589SOL    HW290615   9.043   4.970   5.321 -1.7770 -0.4733  0.4680
28590SOL     OW90616   9.128   5.846   8.291  0.0217  0.9916  0.0829
28590SOL    HW190617   9.145   5.938   8.311  3.8793  0.4819 -0.0573
28590SOL    HW290618   9.121   5.843   8.195  3.2789  0.8851 -0.2690
28591SOL     OW90619   5.317   9.732   4.770 -0.1810 -0.0593  0.1375
28591SOL    HW190620   5.343   9.811   4.724 -1.0706  0.2758  0.1878
28591SOL    HW290621   5.222   9.740   4.779 -0.1867 -0.7775  0.8033
28592SOL     OW90622   9.388   3.601   8.493 -0.3947  0.3916  0.0662
28592SOL    HW190623   9.459   3.665   8.483 -1.2251  1.0857 -1.9038
28592SOL    HW290624   9.396   3.545   8.415 -0.5412 -1.0681  1.0639
28593SOL     OW90625   7.889   6.293   4.484 -0.2806 -0.4623  0.3844
28593SOL    HW190626   7.837   6.246   4.548  0.2661  0.7656  1.7890
28593SOL    HW290627   7.862   6.257   4.399 -0.8872 -2.2536  1.2910
28594SOL     OW90628   0.546   7.774   1.705  0.3238 -0.1418 -0.2009
28594SOL    HW190629   0.521   7.852   1.755 -0.8533 -0.6909  0.1071
28594SOL    HW290630   0.483   7.770   1.633 -1.8471 -2.5852  1.6294
28595SOL     OW90631   9.465   1.717   6.163 -0.1117  0.1851  0.9403
28595SOL    HW190632   9.439   1.625   6.164  1.0789 -0.1807  0.0988
28595SOL    HW290633   9.514   1.727   6.081 -0.5728  1.6684  0.8275
28596SOL     OW90634   6.555   3.960   8.023  0.5164 -0.8926 -0.4713
28596SOL    HW190635   6.486   3.989   7.964 -0.6552 -2.5542  0.0249
28596SOL    HW290636   6.535   3.869   8.041  1.1320 -0.5883  2.1058
28597SOL     OW90637   2.566   4.074   9.703 -0.0465  0.5672 -0.1948
28597SOL    HW190638   2.513   4.022   9.763 -0.0534 -0.2800 -0.9097
28597SOL    HW290639   2.557   4.164   9.734 -1.9383  0.4591 -0.3105
28598SOL     OW90640   2.576   8.495   0.748 -0.5746  0.2823  0.0342
28598SOL    HW190641   2.664   8.503   0.787 -0.2715  1.5641 -0.8337
28598SOL    HW290642   2.586   8.428   0.681 -0.3063  0.2558  0.0960
28599SOL     OW90643   7.342   5.941   0.984  0.3544 -0.2523  0.2045
28599SOL    HW190644   7.404   5.870   1.001 -0.2088 -0.6255  0.7388
28599SOL    HW290645   7.257   5.906   1.010  0.0601  0.6064  0.4532
28600SOL     OW90646   1.830   3.245   5.810 -0.2847 -0.1308 -0.2366
28600SOL    HW190647   1.753   3.188   5.817 -0.0923 -0.4376 -0.5781
28600SOL    HW290648   1.889   3.198   5.752 -0.0195  0.3104 -0.3276
28601SOL     OW90649   9.752   9.383   3.281  0.5262 -0.2486  0.6523
28601SOL    HW190650   9.777   9.426   3.199 -1.6753  1.2553  0.6999
28601SOL    HW290651   9.824   9.322   3.299  1.3017 -0.2868 -2.1371
28602SOL     OW90652   6.740   6.125   6.472 -0.2126 -0.3319  0.1273
28602SOL    HW190653   6.684   6.057   6.509 -0.6517 -0.6502 -1.0678
28602SOL    HW290654   6.679   6.196   6.450 -0.0993 -0.5012 -0.7704
28603SOL     OW90655   7.577   0.815   5.686  0.2799  0.4737 -0.4543
28603SOL    HW190656   7.483   0.807   5.677  0.0427  1.7583  0.5720
28603SOL    HW290657   7.591   0.847   5.775  1.5504  1.9479 -1.1096
28604SOL     OW90658   6.514   2.160   3.345  0.0225 -0.6131 -0.2292
28604SOL    HW190659   6.423   2.187   3.357 -0.3855 -1.2253 -1.6812
28604SOL    HW290660   6.512   2.105   3.266  1.5524 -1.1439  0.0749
28605SOL     OW90661   5.365   6.520   6.659  0.1460  0.2631  0.1622
28605SOL    HW190662   5.377   6.509   6.753  2.2831 -1.1236 -0.2147
28605SOL    HW290663   5.288   6.467   6.638  0.1175 -0.0465  1.0238
28606SOL     OW90664   5.888   8.321   9.516  0.7643  0.4611 -0.7097
28606SOL    HW190665   5.971   8.332   9.469 -1.2586 -1.5665 -5.2946
28606SOL    HW290666   5.878   8.227   9.526 -0.9135  0.6677 -0.1237
28607SOL     OW90667   7.676   4.873   1.737 -0.3658 -0.9232 -0.0425
28607SOL    HW190668   7.592   4.847   1.697 -0.0632 -0.8748 -0.7249
28607SOL    HW290669   7.734   4.889   1.663 -0.0344  0.0284  0.4018
28608SOL     OW90670   7.183   5.040   4.738  0.5290  0.1397 -0.2112
28608SOL    HW190671   7.244   4.990   4.792 -0.6804 -0.7329  0.4089
28608SOL    HW290672   7.208   5.131   4.750  1.0873 -0.1315  0.8000
28609SOL     OW90673   9.744   5.068   7.323  0.5563  0.1306  0.1550
28609SOL    HW190674   9.672   5.092   7.264  0.8225  0.3071 -0.0996
28609SOL    HW290675   9.758   4.975   7.306  0.1308  0.0058  0.4833
28610SOL     OW90676   5.979   1.515   1.738  0.0526 -0.9505  0.1943
28610SOL    HW190677   5.966   1.525   1.832 -0.7913 -0.7592  0.0658
28610SOL    HW290678   5.929   1.588   1.700  1.5938 -0.1270 -0.3366
28611SOL     OW90679   8.944   0.503   5.955  0.2345  0.3658  0.9312
28611SOL    HW190680   8.920   0.586   5.995  0.8623  0.9393  0.1355
28611SOL    HW290681   9.038   0.496   5.968  0.2307 -0.0935  0.7457
28612SOL     OW90682   2.319   6.990   0.619  0.1545  0.3550  0.3716
28612SOL    HW190683   2.292   7.057   0.682  1.2209  0.4250  0.7731
28612SOL    HW290684   2.360   7.039   0.548 -1.0532  0.2769 -0.4156
28613SOL     OW90685   5.174   7.630   5.550 -0.0265  0.1120  0.1507
28613SOL    HW190686   5.204   7.704   5.603 -0.9556 -0.6566  1.8172
28613SOL    HW290687   5.147   7.564   5.614  1.6685 -2.0748 -1.2782
28614SOL     OW90688   7.821   3.483   6.024  0.5016  0.2296 -0.0310
28614SOL    HW190689   7.860   3.396   6.013  0.8174  0.4082 -0.3511
28614SOL    HW290690   7.767   3.496   5.946 -0.6344 -0.2293  0.6544
28615SOL     OW90691   6.197   0.077   4.799  0.4259  0.4198  0.3951
28615SOL    HW190692   6.111   0.087   4.757 -0.2784 -1.3287  1.3377
28615SOL    HW290693   6.206   0.157   4.852 -1.2061  0.0829  1.2533
28616SOL     OW90694   2.848   7.674   6.089  0.0914 -0.1985  0.3737
28616SOL    HW190695   2.812   7.586   6.103 -0.2836 -0.0696  0.2092
28616SOL    HW290696   2.791   7.713   6.023 -1.3742  1.1509  2.3468
28617SOL     OW90697   9.458   2.131   8.938  0.1893  0.9257  0.0054
28617SOL    HW190698   9.365   2.110   8.928 -0.0418  1.4287  0.9816
28617SOL    HW290699   9.485   2.082   9.016  1.2211 -0.6765 -1.3047
28618SOL     OW90700   7.486   1.245   6.499 -0.1072 -0.9190 -0.1601
28618SOL    HW190701   7.485   1.312   6.567  0.6171 -1.1116  0.0492
28618SOL    HW290702   7.407   1.193   6.515 -0.2941 -0.5496  0.1152
28619SOL     OW90703   4.651   9.656   7.418 -0.2485 -0.2020 -0.5836
28619SOL    HW190704   4.708   9.604   7.363  1.6207 -0.3503  1.3763
28619SOL    HW290705   4.651   9.611   7.503 -0.5657  1.6103  0.4446
28620SOL     OW90706   3.402   7.490   5.602  0.1873  0.2659 -0.0415
28620SOL    HW190707   3.314   7.491   5.565  0.7382  1.3951 -1.4372
28620SOL    HW290708   3.458   7.462   5.530  0.9860 -0.4577  0.8330
28621SOL     OW90709   8.020   8.021   6.164  0.2476  0.3950 -0.1598
28621SOL    HW190710   7.959   8.094   6.153  0.4352  0.6514  0.4661
28621SOL    HW290711   8.096   8.045   6.110 -0.2977 -0.0493 -1.1528
28622SOL     OW90712   4.800   5.096   1.526  0.1876  0.0998  0.3457
28622SOL    HW190713   4.751   5.024   1.486  1.0736 -0.4648  0.2535
28622SOL    HW290714   4.805   5.073   1.619 -1.7805  1.3600  0.8431
28623SOL     OW90715   9.525   2.315   6.064  0.2995 -0.2941  0.3622
28623SOL    HW190716   9.615   2.342   6.080  0.8683 -1.6170 -0.4081
28623SOL    HW290717   9.473   2.394   6.076  1.6410  0.6499  0.1360
28624SOL     OW90718   2.501   1.907   8.242 -0.2476 -0.4963 -0.1862
28624SOL    HW190719   2.582   1.857   8.258  0.0717  0.6891  2.3225
28624SOL    HW290720   2.433   1.840   8.235  0.8161 -1.4889 -1.7590
28625SOL     OW90721   0.143   9.213   7.344  0.0595 -0.6520 -0.3346
28625SOL    HW190722   0.135   9.193   7.438 -0.0964  0.2704 -0.1375
28625SOL    HW290723   0.113   9.134   7.300 -0.0454 -1.0322  0.3983
28626SOL     OW90724   9.348   2.479   5.418 -0.6361  0.5410 -0.2210
28626SOL    HW190725   9.359   2.529   5.499 -0.0072  1.7326 -1.0104
28626SOL    HW290726   9.437   2.462   5.387 -0.8686  0.5986 -0.9620
28627SOL     OW90727   8.320   1.296   6.466 -0.1448  0.0505 -0.3443
28627SOL    HW190728   8.334   1.211   6.423  1.7761 -0.2945  0.8254
28627SOL    HW290729   8.350   1.361   6.402  0.4940 -0.3148 -0.4264
28628SOL     OW90730   8.749   8.066   9.123 -0.5935  0.4281  0.0495
28628SOL    HW190731   8.670   8.105   9.161 -0.7693 -0.5371  0.6964
28628SOL    HW290732   8.722   8.037   9.036 -1.8797 -2.6798  1.3513
28629SOL     OW90733   0.084   8.609   4.001  0.6672 -0.1657  0.0180
28629SOL    HW190734   0.164   8.599   3.949  1.0549  0.3153  0.5176
28629SOL    HW290735   0.069   8.523   4.039  2.1908  0.2460  1.7019
28630SOL     OW90736   8.791   4.085   7.365 -0.2036  0.1531  0.4112
28630SOL    HW190737   8.769   4.087   7.458 -0.5364 -0.8580  0.3707
28630SOL    HW290738   8.749   4.004   7.333  0.0710  0.3910 -0.5680
28631SOL     OW90739   0.416   1.294   0.530  0.2050  0.1747 -0.1227
28631SOL    HW190740   0.387   1.322   0.616  0.9632  2.4074 -0.5232
28631SOL    HW290741   0.349   1.327   0.470  0.3122 -0.2888 -0.5089
28632SOL     OW90742   8.956   8.547   3.401  0.0481  0.1303  0.2219
28632SOL    HW190743   8.879   8.604   3.402 -0.8030 -0.9733 -0.1006
28632SOL    HW290744   9.026   8.600   3.439 -0.5625  1.5863 -0.6166
28633SOL     OW90745   6.948   5.733   5.539 -0.1993 -0.2229 -0.9008
28633SOL    HW190746   6.900   5.703   5.462  0.4436 -0.0435 -1.3726
28633SOL    HW290747   6.974   5.652   5.583 -0.4437 -0.3249 -0.9401
28634SOL     OW90748   3.799   9.336   6.512  0.1004  0.0814  0.6293
28634SOL    HW190749   3.862   9.342   6.584 -0.4232 -0.5542  1.1535
28634SOL    HW290750   3.747   9.258   6.532  0.6233 -0.7176 -1.0030
28635SOL     OW90751   0.991   7.734   3.775 -0.7275  0.8418 -0.7856
28635SOL    HW190752   0.995   7.642   3.750 -0.1098  0.8100 -0.5878
28635SOL    HW290753   1.069   7.773   3.736 -0.7859  1.2012 -0.5502
28636SOL     OW90754   6.248   9.631   1.887 -0.5480 -0.1196 -0.3566
28636SOL    HW190755   6.253   9.690   1.962  0.7274  0.3633 -0.8046
28636SOL    HW290756   6.154   9.615   1.875 -0.7567 -1.1997  2.0947
28637SOL     OW90757   3.276   4.414   2.737  0.6831  0.4131 -0.1216
28637SOL    HW190758   3.194   4.391   2.782  1.1814 -0.0675  0.5705
28637SOL    HW290759   3.259   4.500   2.698  0.2296  0.8459  0.9903
28638SOL     OW90760   3.372   2.757   8.704 -0.8896 -0.3129  0.3824
28638SOL    HW190761   3.283   2.756   8.741 -1.0969  0.1833 -0.0881
28638SOL    HW290762   3.367   2.821   8.632 -0.0905 -0.1056  0.5037
28639SOL     OW90763   3.421   5.198   8.868 -0.1547  0.1162 -0.0069
28639SOL    HW190764   3.464   5.113   8.870 -0.2092  0.1017  0.5405
28639SOL    HW290765   3.475   5.254   8.923  1.6670  1.3097 -2.7557
28640SOL     OW90766   8.260   8.816   5.351  0.3346  0.5887  0.7381
28640SOL    HW190767   8.355   8.821   5.359  0.3919  1.4021 -0.2851
28640SOL    HW290768   8.229   8.904   5.372 -0.1416  0.4929  0.4652
28641SOL     OW90769   0.651   1.382   0.305 -0.0809  0.0264  0.8839
28641SOL    HW190770   0.570   1.340   0.335 -1.1548 -0.4094 -2.2213
28641SOL    HW290771   0.673   1.444   0.375 -3.5171  0.6920  1.5737
28642SOL     OW90772   8.886   6.078   7.015 -0.1320 -0.1046  0.2196
28642SOL    HW190773   8.930   5.993   7.026  0.7157  0.2920 -0.0219
28642SOL    HW290774   8.875   6.111   7.104 -0.0287 -0.2506  0.2866
28643SOL     OW90775   2.815   8.561   1.572 -0.7315  0.0165  0.2322
28643SOL    HW190776   2.802   8.654   1.590  1.8040  0.3758  0.6077
28643SOL    HW290777   2.797   8.518   1.655 -1.2948  0.2375  0.2276
28644SOL     OW90778   8.259   2.322   5.401 -0.3858  0.5972 -0.0533
28644SOL    HW190779   8.349   2.291   5.393  0.3618  2.4228  0.6263
28644SOL    HW290780   8.239   2.316   5.494  0.5870  3.9534  0.5128
28645SOL     OW90781   8.941   7.841   5.507  0.0712  0.3738 -0.0643
28645SOL    HW190782   8.908   7.839   5.597 -1.0905 -2.5749 -0.4558
28645SOL    HW290783   9.033   7.818   5.514 -0.4388 -1.6956  0.2871
28646SOL     OW90784   5.954   9.109   3.857  0.2398 -0.5271  0.0616
28646SOL    HW190785   5.916   9.160   3.786  0.8565  0.9084  0.7236
28646SOL    HW290786   5.952   9.019   3.825  0.5430  0.0745 -1.7868
28647SOL     OW90787   5.134   0.220   0.786 -0.0713  0.5570 -0.4525
28647SOL    HW190788   5.125   0.314   0.775  0.8599  0.7522  0.2739
28647SOL    HW290789   5.058   0.194   0.839 -0.4440  0.8585 -0.8386
28648SOL     OW90790   3.993   7.475   8.763  0.4375  0.1709 -0.8216
28648SOL    HW190791   3.974   7.388   8.728 -0.1511  0.2989 -0.8155
28648SOL    HW290792   3.909   7.520   8.766 -0.0065 -0.5523  2.7508
28649SOL     OW90793   9.317   3.260   2.339 -0.7909  0.3483  0.2373
28649SOL    HW190794   9.346   3.253   2.248  1.0347 -0.3641  0.8182
28649SOL    HW290795   9.357   3.341   2.371 -0.5800  0.0806  0.6671
28650SOL     OW90796   0.558   7.477   4.900  0.0173  0.1641  0.2797
28650SOL    HW190797   0.486   7.528   4.940 -0.7694 -0.0512 -0.8223
28650SOL    HW290798   0.530   7.386   4.909 -0.0116  0.0957 -0.4450
28651SOL     OW90799   0.715   7.820   2.868 -0.3380  0.4270  0.7288
28651SOL    HW190800   0.678   7.825   2.957 -0.9637  0.1284  0.4891
28651SOL    HW290801   0.677   7.895   2.822 -4.0392 -2.0677 -0.7469
28652SOL     OW90802   6.412   9.331   7.390 -0.1963 -0.2016 -0.4030
28652SOL    HW190803   6.355   9.311   7.464  0.1706 -0.8118 -0.2733
28652SOL    HW290804   6.501   9.324   7.425 -0.0225 -0.2622 -0.8409
28653SOL     OW90805   5.396   8.667   3.521  0.2992 -0.2911 -0.0627
28653SOL    HW190806   5.407   8.619   3.603  0.8943 -1.2008 -0.6582
28653SOL    HW290807   5.436   8.611   3.454  2.6579  1.7904 -0.5493
28654SOL     OW90808   9.664   5.463   2.805 -0.1065  0.2203 -0.7422
28654SOL    HW190809   9.682   5.457   2.899 -1.5072 -2.5149 -0.5532
28654SOL    HW290810   9.699   5.548   2.779  1.2826  0.5963  2.0291
28655SOL     OW90811   1.989   3.613   3.903  0.4890  0.4801 -0.3515
28655SOL    HW190812   2.047   3.566   3.963  1.2464 -0.0463 -1.4382
28655SOL    HW290813   2.029   3.599   3.817 -1.3147  0.0399 -1.1568
28656SOL     OW90814   2.678   1.515   0.225  0.2891  0.2415  0.1879
28656SOL    HW190815   2.713   1.532   0.313 -0.6280  1.9286  0.2692
28656SOL    HW290816   2.610   1.581   0.214 -1.2471 -1.4518 -0.8802
28657SOL     OW90817   9.619   2.591   1.560  0.7884 -0.6604  0.1139
28657SOL    HW190818   9.618   2.503   1.521 -1.2227 -1.0335  0.8417
28657SOL    HW290819   9.565   2.644   1.501 -0.6028 -0.7315  1.2589
28658SOL     OW90820   4.902   9.668   8.555  0.0179  0.3461 -0.0307
28658SOL    HW190821   4.906   9.762   8.570  1.0656  0.7574 -2.3907
28658SOL    HW290822   4.960   9.653   8.480 -0.5669 -2.1019 -0.0895
28659SOL     OW90823   3.663   2.381   4.145  0.0389 -0.0889  0.1416
28659SOL    HW190824   3.728   2.442   4.181 -0.1552 -0.7305  1.6791
28659SOL    HW290825   3.584   2.397   4.197  0.5260 -2.8855  1.9563
28660SOL     OW90826   5.775   8.934   4.800  0.8755  0.3269 -0.4785
28660SOL    HW190827   5.807   9.018   4.767  1.1652  1.1627  1.7088
28660SOL    HW290828   5.844   8.905   4.860  0.0182 -0.6132  0.0725
28661SOL     OW90829   1.235   1.519   4.236  0.2010  0.6687  0.5215
28661SOL    HW190830   1.269   1.444   4.187  0.5715  1.2689 -0.1495
28661SOL    HW290831   1.211   1.482   4.321  1.1442 -0.0654  0.4902
28662SOL     OW90832   3.980   1.905   8.950  0.1846 -0.4064  0.6129
28662SOL    HW190833   3.925   1.948   9.016  2.1475 -0.1486  2.1624
28662SOL    HW290834   4.000   1.819   8.988  1.4400 -0.2091  0.4280
28663SOL     OW90835   3.955   1.305   8.055  0.4018  0.1507  0.0871
28663SOL    HW190836   3.875   1.329   8.008  0.6254  3.0163  0.9754
28663SOL    HW290837   4.016   1.278   7.986 -1.2771 -2.2192 -0.6021
28664SOL     OW90838   8.353   1.076   2.712 -0.1542 -0.4670 -0.0496
28664SOL    HW190839   8.442   1.043   2.720 -0.2879 -0.5610  1.1279
28664SOL    HW290840   8.317   1.029   2.636  1.2251  0.6048 -1.4334
28665SOL     OW90841   5.754   1.768   8.302 -0.7187 -0.0030 -0.0008
28665SOL    HW190842   5.780   1.763   8.394  1.1144  1.0632 -0.4119
28665SOL    HW290843   5.687   1.700   8.292 -1.0307 -0.0655  2.1217
28666SOL     OW90844   3.636   6.876   9.259 -0.7118  0.3271  0.7635
28666SOL    HW190845   3.632   6.792   9.213 -1.2820  0.9376 -0.3549
28666SOL    HW290846   3.694   6.860   9.333 -1.5162 -1.2940  1.0892
28667SOL     OW90847   9.517   1.495   9.086 -0.3093  0.1884  0.3969
28667SOL    HW190848   9.518   1.488   8.991  1.0370 -1.3556  0.4842
28667SOL    HW290849   9.424   1.503   9.109 -0.5821  1.6409 -1.0786
28668SOL     OW90850   9.330   5.842   6.654 -0.1778 -0.0663  0.0006
28668SOL    HW190851   9.310   5.910   6.589 -4.5672 -2.5125 -1.6827
28668SOL    HW290852   9.271   5.860   6.727  0.3514 -0.7415  0.6134
28669SOL     OW90853   4.704   2.695   5.382 -0.1612  0.5903 -0.2208
28669SOL    HW190854   4.697   2.743   5.465  0.5438 -0.6525  0.5901
28669SOL    HW290855   4.692   2.762   5.315 -0.1067  1.7434  0.8759
28670SOL     OW90856   2.545   4.747   2.122 -0.3041 -0.3598 -0.3966
28670SOL    HW190857   2.514   4.782   2.205 -0.9593 -1.8443  0.0091
28670SOL    HW290858   2.511   4.808   2.056 -0.8520  0.1350  0.3301
28671SOL     OW90859   4.289   7.373   8.279 -0.1164 -0.2876 -0.0032
28671SOL    HW190860   4.247   7.314   8.341  0.9611 -0.3458  0.6924
28671SOL    HW290861   4.328   7.442   8.334 -1.1775  0.9851 -0.7714
28672SOL     OW90862   2.950   2.444   1.032  1.0336  0.3449  0.2801
28672SOL    HW190863   2.958   2.416   0.941 -3.2332  1.4891 -0.6707
28672SOL    HW290864   2.920   2.365   1.078 -1.4264  0.8111 -0.3905
28673SOL     OW90865   5.891   7.404   3.186  0.0290  0.8425  0.4830
28673SOL    HW190866   5.908   7.470   3.119  0.8295 -0.4071 -0.6036
28673SOL    HW290867   5.796   7.392   3.184 -0.0082  1.1768 -0.0746
28674SOL     OW90868   2.056   1.144   1.760  0.0926 -0.5317  0.1104
28674SOL    HW190869   1.963   1.157   1.744  0.0373 -0.4712  0.4601
28674SOL    HW290870   2.061   1.117   1.852  0.3640 -1.2235 -0.1058
28675SOL     OW90871   3.475   1.110   4.363 -0.9302 -0.0198 -0.2630
28675SOL    HW190872   3.560   1.132   4.324 -0.8136  0.6036  0.3323
28675SOL    HW290873   3.492   1.105   4.457 -1.2485 -1.3348 -0.2523
28676SOL     OW90874   2.297   7.909   7.011  0.7084 -0.1005  0.4734
28676SOL    HW190875   2.232   7.854   6.968  0.0622 -0.6318  2.0530
28676SOL    HW290876   2.247   7.983   7.045  1.0785 -0.0296  0.8753
28677SOL     OW90877   2.415   2.352   8.405 -0.3704 -0.1711 -0.0686
28677SOL    HW190878   2.442   2.277   8.352 -0.4902 -0.1932 -0.0996
28677SOL    HW290879   2.327   2.374   8.373  0.6936  1.7001 -1.9495
28678SOL     OW90880   0.261   4.265   0.361 -0.8416 -0.0091  0.3256
28678SOL    HW190881   0.330   4.295   0.421 -1.6350  1.9833  0.3164
28678SOL    HW290882   0.264   4.170   0.367  1.5285  0.0319  0.7412
28679SOL     OW90883   3.766   3.301   9.541 -0.3140  0.1448  0.2863
28679SOL    HW190884   3.835   3.253   9.495 -0.3011 -0.2684  0.7229
28679SOL    HW290885   3.686   3.281   9.493 -0.2903 -0.2268  0.4023
28680SOL     OW90886   1.944   7.465   4.866  0.0167 -0.2447 -0.0133
28680SOL    HW190887   2.006   7.510   4.923 -0.4305  0.6218 -0.1886
28680SOL    HW290888   1.999   7.413   4.807  0.5011 -0.7360  0.8625
28681SOL     OW90889   3.937   2.902   5.065  0.3014  0.6788 -0.4647
28681SOL    HW190890   3.925   2.813   5.031  1.1763  0.1469  0.5377
28681SOL    HW290891   3.890   2.902   5.149  0.0165  1.2817 -0.6164
28682SOL     OW90892   4.951   5.841   0.967  0.2034 -0.1238  0.0854
28682SOL    HW190893   4.902   5.765   0.937 -2.0546  1.0497  0.5717
28682SOL    HW290894   4.945   5.838   1.063  2.7832 -0.9658  0.2922
28683SOL     OW90895   2.377   8.445   8.669  0.5163 -0.2457  0.5827
28683SOL    HW190896   2.385   8.373   8.606  0.6133  0.1090  0.1823
28683SOL    HW290897   2.466   8.459   8.701  0.8319  0.8680 -0.6763
28684SOL     OW90898   5.024   4.453   3.949 -0.0469  0.4532 -0.1824
28684SOL    HW190899   4.999   4.518   3.883 -1.8294 -0.3819 -0.3794
28684SOL    HW290900   4.948   4.447   4.007  1.0697  0.3690  1.3347
28685SOL     OW90901   7.804   6.984   6.218  0.0132 -0.0941 -0.1577
28685SOL    HW190902   7.869   6.939   6.164  0.1976  0.6329 -0.5522
28685SOL    HW290903   7.777   7.060   6.166 -0.6643 -0.0198  0.2826
28686SOL     OW90904   1.525   9.172   9.021  0.1028  0.3802 -0.8090
28686SOL    HW190905   1.491   9.239   9.080  0.5456 -0.1883  0.1052
28686SOL    HW290906   1.479   9.092   9.046  1.5513 -0.2414 -0.0424
28687SOL     OW90907   2.180   8.156   9.010 -0.3429 -0.6587  0.1575
28687SOL    HW190908   2.168   8.085   9.074 -2.5576 -0.0006  0.5583
28687SOL    HW290909   2.182   8.112   8.926  1.6048 -1.4465  0.5517
28688SOL     OW90910   0.822   2.988   3.344  0.1083 -0.0842 -0.4512
28688SOL    HW190911   0.728   3.003   3.356  0.3538 -0.3718  2.4308
28688SOL    HW290912   0.830   2.961   3.252 -2.3483  1.7229 -1.3023
28689SOL     OW90913   4.375   2.887   8.839 -0.2292 -0.3485 -0.1248
28689SOL    HW190914   4.448   2.899   8.779 -1.6918  1.5847 -1.6790
28689SOL    HW290915   4.347   2.796   8.825 -0.5858  0.0693 -2.5154
28690SOL     OW90916   4.450   9.454   7.156 -0.3564  0.3373  0.0230
28690SOL    HW190917   4.466   9.382   7.095 -1.1277 -1.2031  1.5322
28690SOL    HW290918   4.370   9.495   7.124  0.0240  0.4577 -0.7930
28691SOL     OW90919   9.689   9.725   8.282  1.1045  0.3008 -0.0987
28691SOL    HW190920   9.727   9.725   8.370 -0.2912  0.1097  0.5182
28691SOL    HW290921   9.626   9.797   8.282  1.7203  0.8680 -1.2380
28692SOL     OW90922   6.390   6.135   6.402  0.3235  0.3580  0.0801
28692SOL    HW190923   6.317   6.090   6.359 -0.6605  1.9319  0.0622
28692SOL    HW290924   6.366   6.227   6.403  1.7194  0.7627  1.2712
28693SOL     OW90925   4.265   0.394   0.150 -0.0240 -0.2224 -0.0880
28693SOL    HW190926   4.331   0.408   0.082  1.3425 -5.6824 -0.3605
28693SOL    HW290927   4.316   0.371   0.228 -1.5653 -0.4342  0.8914
28694SOL     OW90928   1.305   8.702   5.145 -0.5198  0.3621 -0.3007
28694SOL    HW190929   1.245   8.644   5.192 -1.1696  0.0370 -1.4736
28694SOL    HW290930   1.254   8.783   5.132 -0.7107  0.1054 -1.2489
28695SOL     OW90931   4.516   1.213   8.187  0.5795  0.2201 -0.5494
28695SOL    HW190932   4.543   1.302   8.211 -1.6216  1.1778 -1.3170
28695SOL    HW290933   4.467   1.224   8.105 -1.2645 -1.4113  0.2398
28696SOL     OW90934   2.060   1.860   3.897  0.9918 -0.6093 -0.1771
28696SOL    HW190935   1.998   1.789   3.909 -0.4750  0.3737 -1.4665
28696SOL    HW290936   2.019   1.917   3.832  2.7216  0.7156 -0.1976
28697SOL     OW90937   6.659   8.896   6.515 -0.1988 -0.1407 -0.3441
28697SOL    HW190938   6.676   8.987   6.539  0.4162 -0.1516 -0.7171
28697SOL    HW290939   6.659   8.849   6.598  2.6026 -0.2991 -0.3380
28698SOL     OW90940   9.430   7.733   0.212  0.2891 -0.2247 -0.4003
28698SOL    HW190941   9.374   7.670   0.257  0.2545 -0.1537 -0.3439
28698SOL    HW290942   9.382   7.815   0.217  1.1224  0.1977  1.0509
28699SOL     OW90943   8.858   5.865   1.555  0.6053 -0.3533  0.4588
28699SOL    HW190944   8.954   5.869   1.557  0.5784 -0.0267  1.0905
28699SOL    HW290945   8.839   5.803   1.484  1.2716  0.0020 -0.0459
28700SOL     OW90946   3.298   8.295   8.674 -0.1577  0.6073 -0.2154
28700SOL    HW190947   3.366   8.243   8.718 -1.1553  1.1491  2.0959
28700SOL    HW290948   3.248   8.230   8.624  1.2809  0.0347 -0.9907
28701SOL     OW90949   3.156   4.420   2.220 -0.6141  0.0494  0.2343
28701SOL    HW190950   3.204   4.432   2.302 -0.2455 -0.4486  0.0936
28701SOL    HW290951   3.063   4.424   2.246 -0.5114  1.3126  0.4600
28702SOL     OW90952   3.592   5.583   6.828  0.5863 -0.5824  0.4314
28702SOL    HW190953   3.602   5.601   6.735  1.1969 -0.8628  0.4386
28702SOL    HW290954   3.565   5.491   6.831 -2.2318  0.1457  0.4061
28703SOL     OW90955   7.592   5.694   2.067  0.8614 -0.1576  0.3134
28703SOL    HW190956   7.588   5.775   2.118  0.5949 -0.9093  1.5305
28703SOL    HW290957   7.518   5.641   2.099 -0.3084 -0.0532 -1.9724
28704SOL     OW90958   4.530   0.389   3.727 -0.3958 -0.6629  0.1040
28704SOL    HW190959   4.553   0.479   3.704 -3.4188  0.2802  0.3674
28704SOL    HW290960   4.605   0.357   3.777 -0.2586  2.6660  2.3261
28705SOL     OW90961   4.399   6.861   4.958  0.1095 -0.4025  0.7050
28705SOL    HW190962   4.392   6.822   5.045  1.3600  0.4526  1.2076
28705SOL    HW290963   4.397   6.955   4.973 -0.9963 -0.2424 -0.3295
28706SOL     OW90964   2.622   9.173   3.339  0.3831  0.3974 -0.8302
28706SOL    HW190965   2.622   9.257   3.295 -0.0367  0.4138 -0.8079
28706SOL    HW290966   2.711   9.140   3.330  0.6409  0.9954 -0.5488
28707SOL     OW90967   3.388   4.210   0.120  0.1223  0.9640  0.2081
28707SOL    HW190968   3.310   4.250   0.083  1.2624  1.9450 -1.2281
28707SOL    HW290969   3.459   4.236   0.061  1.3415 -0.9570  0.7414
28708SOL     OW90970   8.443   5.867   1.800 -0.3870 -0.0005 -0.5183
28708SOL    HW190971   8.529   5.825   1.801 -0.0240  0.6738  1.1253
28708SOL    HW290972   8.388   5.808   1.852 -0.2049  0.8709  0.7000
28709SOL     OW90973   7.504   2.358   3.707 -0.5960 -0.1982 -0.2346
28709SOL    HW190974   7.498   2.292   3.639 -1.6755 -1.0137  0.6093
28709SOL    HW290975   7.591   2.396   3.696 -0.6090 -0.5559 -1.8143
28710SOL     OW90976   1.137   2.665   1.066  0.0562  0.3439 -0.0077
28710SOL    HW190977   1.062   2.619   1.028  0.9019 -0.2231 -1.0687
28710SOL    HW290978   1.143   2.746   1.015  1.6799 -0.7799 -1.7606
28711SOL     OW90979   4.242   8.832   3.432 -0.0335  0.3960 -0.0245
28711SOL    HW190980   4.256   8.758   3.372 -0.6654  0.2452  0.0167
28711SOL    HW290981   4.328   8.875   3.436  0.7377 -1.1598  1.0714
28712SOL     OW90982   7.740   6.879   4.580 -0.1661  0.4648  0.3934
28712SOL    HW190983   7.748   6.813   4.649 -0.1387  0.2195  0.1575
28712SOL    HW290984   7.788   6.842   4.506 -3.5676 -1.2171 -1.2098
28713SOL     OW90985   9.205   1.401   3.075 -0.0290 -0.2219 -0.9115
28713SOL    HW190986   9.244   1.455   3.144 -2.6799 -0.3274  0.7969
28713SOL    HW290987   9.255   1.319   3.079  1.4225  0.6433 -0.7905
28714SOL     OW90988   3.433   8.024   3.284 -0.1686  0.2820  0.0617
28714SOL    HW190989   3.474   7.941   3.310 -0.6524 -0.3202 -1.0211
28714SOL    HW290990   3.363   8.037   3.348  1.5648  1.2682  1.8728
28715SOL     OW90991   7.228   3.204   2.678  0.6251 -0.2021 -0.5803
28715SOL    HW190992   7.219   3.227   2.770  1.6025  1.0676 -0.7738
28715SOL    HW290993   7.259   3.113   2.678  0.1529 -0.3723  0.3043
28716SOL     OW90994   3.729   2.925   9.055 -0.1232  0.3136 -0.2210
28716SOL    HW190995   3.671   2.863   9.012 -1.2968 -0.0556  1.7885
28716SOL    HW290996   3.773   2.971   8.982 -1.1265 -1.0553 -1.7603
28717SOL     OW90997   6.712   0.140   4.451  0.2405  0.9297  0.0716
28717SOL    HW190998   6.789   0.191   4.476  0.8107  0.8142 -1.3588
28717SOL    HW290999   6.724   0.122   4.358  0.0506 -1.8336  0.5138
28718SOL     OW91000   0.789   4.477   8.158  0.2467  0.0272 -0.4162
28718SOL    HW191001   0.735   4.518   8.226 -0.5301 -1.6213  0.0055
28718SOL    HW291002   0.749   4.507   8.076  0.6881  1.3701 -0.1681
28719SOL     OW91003   9.321   2.846   9.010 -0.1484 -0.1267  0.3111
28719SOL    HW191004   9.343   2.892   8.928 -3.0759  0.6685 -0.1392
28719SOL    HW291005   9.394   2.867   9.069  0.8793  1.2564 -1.3425
28720SOL     OW91006   5.879   0.262   0.469  0.2931  0.3462 -0.4878
28720SOL    HW191007   5.969   0.230   0.470  0.2826  0.2404  1.3266
28720SOL    HW291008   5.825   0.183   0.462  0.3313  0.2509  0.1982
28721SOL     OW91009   5.589   5.168   9.435 -0.4860 -0.4227 -0.1394
28721SOL    HW191010   5.683   5.175   9.420 -0.3923 -1.6993 -0.1944
28721SOL    HW291011   5.560   5.259   9.445  1.2438 -0.0641  2.9102
28722SOL     OW91012   6.264   1.782   0.115  0.2078 -0.1646 -0.0014
28722SOL    HW191013   6.228   1.869   0.096  0.1460  0.2210  1.6476
28722SOL    HW291014   6.243   1.729   0.039  0.0064  1.1995 -0.9305
28723SOL     OW91015   8.556   2.956   9.008  0.6599  0.3218 -0.5634
28723SOL    HW191016   8.644   2.993   9.004  0.9836 -0.3942 -0.2868
28723SOL    HW291017   8.564   2.870   8.968  0.4967 -0.4898  1.0685
28724SOL     OW91018   8.753   1.957   7.946  0.6021  0.2476  0.4360
28724SOL    HW191019   8.692   1.904   7.895  0.0179  0.6297  0.7299
28724SOL    HW291020   8.774   2.031   7.889  0.6435  0.2177  0.4120
28725SOL     OW91021   4.466   2.119   9.150 -0.3589 -0.0692 -0.4626
28725SOL    HW191022   4.404   2.131   9.077 -0.4441  1.3693 -0.1680
28725SOL    HW291023   4.414   2.136   9.228  0.1454  0.0426 -0.1506
28726SOL     OW91024   3.548   2.554   6.964 -0.0767  0.4486  0.0547
28726SOL    HW191025   3.553   2.516   7.052  1.3539  0.1104 -0.1441
28726SOL    HW291026   3.636   2.543   6.928 -0.7565  0.1221 -1.6169
28727SOL     OW91027   5.947   7.632   0.135  0.0836  0.1938 -0.2100
28727SOL    HW191028   5.853   7.622   0.121 -0.3116  0.9940  1.5951
28727SOL    HW291029   5.983   7.545   0.120 -0.7899  0.0691 -1.7990
28728SOL     OW91030   6.933   7.670   4.569 -0.8633  0.1762 -0.0479
28728SOL    HW191031   6.918   7.756   4.608 -1.3214  0.2213 -0.3177
28728SOL    HW291032   6.963   7.615   4.641  0.3887  0.8124 -0.0577
28729SOL     OW91033   8.867   6.834   0.948  0.1400 -0.1131 -0.0672
28729SOL    HW191034   8.923   6.756   0.955  0.1502 -0.0199  1.0896
28729SOL    HW291035   8.779   6.799   0.940  0.2505 -0.2487 -0.7614
28730SOL     OW91036   5.618   3.577   7.267 -0.0258  0.5870  0.0106
28730SOL    HW191037   5.699   3.534   7.241  0.8737  1.7702  0.7672
28730SOL    HW291038   5.568   3.510   7.313  1.6810  0.4963  1.8511
28731SOL     OW91039   4.031   8.818   9.567  0.2078 -0.6541 -0.0596
28731SOL    HW191040   4.094   8.790   9.500  0.4864  3.0427 -1.6070
28731SOL    HW291041   4.085   8.853   9.638 -0.1119 -1.0865  0.4021
28732SOL     OW91042   1.281   4.099   8.230 -0.2550 -1.1169 -0.8580
28732SOL    HW191043   1.252   4.038   8.162 -0.2337 -1.7273 -0.3325
28732SOL    HW291044   1.364   4.134   8.198 -0.1925 -1.4808 -1.0999
28733SOL     OW91045   8.191   1.205   7.283 -0.3133 -0.5728  0.0499
28733SOL    HW191046   8.158   1.200   7.193  1.1673  0.9587 -0.6400
28733SOL    HW291047   8.213   1.115   7.306 -0.9628 -1.0213 -1.0233
28734SOL     OW91048   2.816   8.342   2.709 -0.2200  0.1802 -0.5841
28734SOL    HW191049   2.761   8.273   2.671  0.6097 -1.4357  1.0033
28734SOL    HW291050   2.798   8.419   2.655 -1.8232 -1.0416 -1.9109
28735SOL     OW91051   5.273   6.326   5.652 -0.0150 -0.2079 -0.1224
28735SOL    HW191052   5.325   6.394   5.695  0.2986 -0.1964 -0.5142
28735SOL    HW291053   5.334   6.284   5.591 -0.3801 -0.4033 -0.3581
28736SOL     OW91054   8.068   6.155   2.186  0.0291  1.0950  0.6981
28736SOL    HW191055   8.159   6.130   2.170 -0.8716 -2.1301 -0.2391
28736SOL    HW291056   8.052   6.129   2.277 -0.4976 -0.5186  0.1814
28737SOL     OW91057   0.944   2.369   5.944  0.4426  0.2542 -0.1476
28737SOL    HW191058   1.039   2.362   5.939  0.4616  0.3696  0.0399
28737SOL    HW291059   0.917   2.403   5.859  0.5464 -0.0112 -0.2874
28738SOL     OW91060   1.671   5.639   4.717 -0.4003 -0.3640 -0.2077
28738SOL    HW191061   1.603   5.683   4.768  1.4587  0.1003  2.0025
28738SOL    HW291062   1.703   5.707   4.658 -3.4836 -1.2511 -3.2341
28739SOL     OW91063   3.264   2.292   1.449  0.1170  0.2894 -0.0442
28739SOL    HW191064   3.249   2.197   1.446 -0.7719  0.4387 -0.7324
28739SOL    HW291065   3.181   2.329   1.478  0.5423  0.8503  0.4925
28740SOL     OW91066   8.662   3.659   1.791  0.1142 -0.5652 -0.3783
28740SOL    HW191067   8.748   3.636   1.755 -0.6716 -0.1473 -2.7281
28740SOL    HW291068   8.600   3.607   1.740 -1.0973 -0.1379  0.6076
28741SOL     OW91069   3.631   3.428   3.887 -0.3500 -0.1959  0.3689
28741SOL    HW191070   3.675   3.346   3.865  1.1136  0.9264 -1.2309
28741SOL    HW291071   3.550   3.427   3.835  0.3804 -0.0363 -0.8258
28742SOL     OW91072   5.265   2.207   5.620  0.0983 -0.6485 -0.0391
28742SOL    HW191073   5.192   2.155   5.656  0.0534 -0.0701  0.7325
28742SOL    HW291074   5.298   2.256   5.695 -0.0607  0.6834 -0.8245
28743SOL     OW91075   1.575   8.523   1.023  0.7934  0.6379  0.2544
28743SOL    HW191076   1.514   8.450   1.034  1.0931  0.4988  1.0652
28743SOL    HW291077   1.541   8.592   1.079  1.1693  0.6963  0.4151
28744SOL     OW91078   0.204   0.933   5.507  0.1017 -0.0885 -0.4781
28744SOL    HW191079   0.162   0.947   5.591  1.6181  0.1244  0.2790
28744SOL    HW291080   0.293   0.966   5.518  0.5026 -0.5407 -1.9973
28745SOL     OW91081   5.059   9.043   2.355 -0.1973  0.6807 -0.0904
28745SOL    HW191082   4.971   9.025   2.390  0.4812  0.3455  1.5041
28745SOL    HW291083   5.092   9.115   2.408  1.7158 -1.2857  1.5677
28746SOL     OW91084   5.648   5.660   2.048 -0.4635 -0.4739  0.4445
28746SOL    HW191085   5.569   5.607   2.039  0.1586 -1.5651  1.1522
28746SOL    HW291086   5.712   5.601   2.089  2.0444 -1.0381 -3.6419
28747SOL     OW91087   8.042   3.538   8.736 -0.0067 -0.3827 -0.2005
28747SOL    HW191088   8.113   3.585   8.779  1.7393 -3.1391  0.2091
28747SOL    HW291089   7.968   3.546   8.797  0.3242  1.4000  0.0236
28748SOL     OW91090   1.605   0.925   3.062 -0.2832 -0.3640 -0.5669
28748SOL    HW191091   1.526   0.893   3.106 -0.8866  1.5800 -0.1213
28748SOL    HW291092   1.675   0.907   3.124 -0.6993 -0.2492 -0.0502
28749SOL     OW91093   7.385   4.510   8.725  0.2401  0.1185 -0.0848
28749SOL    HW191094   7.413   4.418   8.729 -0.6022 -0.1184  0.7432
28749SOL    HW291095   7.302   4.507   8.678  0.1393  0.4326  0.0752
28750SOL     OW91096   6.438   8.267   7.462 -0.1559 -0.2245  0.0071
28750SOL    HW191097   6.465   8.332   7.397  1.6499 -0.0239  0.8966
28750SOL    HW291098   6.406   8.319   7.536 -1.4567 -0.4347 -0.3878
28751SOL     OW91099   8.491   3.508   1.632  0.5245  0.5062 -0.1351
28751SOL    HW191100   8.479   3.473   1.544  0.4482  2.2717 -0.8689
28751SOL    HW291101   8.405   3.501   1.673  0.1595  1.1139 -0.7762
28752SOL     OW91102   2.863   0.404   8.723  0.3138  0.3048 -0.5498
28752SOL    HW191103   2.769   0.424   8.716  0.1113  0.8477  2.3465
28752SOL    HW291104   2.870   0.352   8.803  2.5429  0.6582 -0.4662
28753SOL     OW91105   7.201   0.251   3.311  0.2321  0.3318 -0.2985
28753SOL    HW191106   7.138   0.285   3.248 -1.8048 -2.1822  0.2334
28753SOL    HW291107   7.174   0.289   3.395 -0.2248 -0.2630 -0.1696
28754SOL     OW91108   5.900   3.252   7.029  0.2934 -0.0918  0.5892
28754SOL    HW191109   5.889   3.257   6.934  0.5726  1.1558  0.6092
28754SOL    HW291110   5.981   3.203   7.041  1.3843  1.5183  0.1041
28755SOL     OW91111   3.899   3.073   7.416 -0.9502  0.5441  0.4128
28755SOL    HW191112   3.812   3.034   7.408  0.3372 -2.0720 -4.1649
28755SOL    HW291113   3.900   3.144   7.352  0.9834 -1.2421 -1.6841
28756SOL     OW91114   2.107   8.507   6.201  0.0603  0.0142 -0.0191
28756SOL    HW191115   2.012   8.506   6.213  0.0431  0.6971 -0.0595
28756SOL    HW291116   2.128   8.599   6.186  0.4400 -0.3620 -2.2587
28757SOL     OW91117   6.699   4.016   0.724 -0.3269  0.0166 -0.8293
28757SOL    HW191118   6.757   3.962   0.671  0.6853  0.9150 -0.6622
28757SOL    HW291119   6.731   4.105   0.711  0.0766  0.2453  1.4430
28758SOL     OW91120   5.099   0.044   9.628  0.5302  0.3431 -0.1810
28758SOL    HW191121   5.084   0.027   9.720 -1.1670 -1.3113 -0.7073
28758SOL    HW291122   5.101   0.140   9.621  1.5394  0.4983  1.6424
28759SOL     OW91123   4.734   5.086   5.186 -0.2829  0.3894  0.0959
28759SOL    HW191124   4.669   5.151   5.214 -0.8424 -0.0602 -0.1470
28759SOL    HW291125   4.767   5.120   5.102 -0.2201  0.6001  0.2040
28760SOL     OW91126   0.634   7.643   1.918 -0.2645 -0.1170  0.3158
28760SOL    HW191127   0.611   7.672   1.830  0.2851 -1.2088 -0.2041
28760SOL    HW291128   0.666   7.554   1.906 -0.7364 -0.4908  1.7003
28761SOL     OW91129   7.304   5.253   8.574  0.9155  0.0546 -0.0560
28761SOL    HW191130   7.393   5.287   8.563  0.8178  1.4545  2.7271
28761SOL    HW291131   7.315   5.158   8.568  2.5148  0.2160 -0.2883
28762SOL     OW91132   0.880   5.678   0.307  0.1816 -0.5026 -0.2655
28762SOL    HW191133   0.837   5.762   0.290  2.1215  0.3572 -1.2321
28762SOL    HW291134   0.847   5.620   0.239  1.7203  0.6216 -2.0528
28763SOL     OW91135   7.384   3.510   6.899  0.4339  0.4625  0.3164
28763SOL    HW191136   7.296   3.527   6.865 -0.6735 -1.7684  1.8066
28763SOL    HW291137   7.442   3.557   6.839 -1.7296  1.7032 -0.9465
28764SOL     OW91138   8.061   7.225   2.654 -0.2763 -0.0813  0.1944
28764SOL    HW191139   8.103   7.166   2.592  0.4344  0.3925  0.2166
28764SOL    HW291140   8.128   7.291   2.674 -0.2393 -0.6126  2.0037
28765SOL     OW91141   3.548   2.253   5.300  0.7554 -0.2332 -0.2951
28765SOL    HW191142   3.631   2.274   5.344  0.3781  0.2605  0.1898
28765SOL    HW291143   3.547   2.312   5.224 -0.2077  1.4233  0.9562
28766SOL     OW91144   6.541   2.806   0.389 -0.5574  0.1804 -0.0565
28766SOL    HW191145   6.461   2.858   0.386 -0.9037 -0.3844 -0.7936
28766SOL    HW291146   6.564   2.792   0.297  0.2425  0.1077  0.1449
28767SOL     OW91147   5.632   3.082   7.947 -0.1886  0.2857  0.0772
28767SOL    HW191148   5.588   3.005   7.911  0.9741 -0.5521  0.3723
28767SOL    HW291149   5.723   3.055   7.958 -0.1547  1.0051  2.1283
28768SOL     OW91150   5.001   2.960   1.702 -0.1767  0.1838 -0.1245
28768SOL    HW191151   4.983   2.917   1.786 -1.4528 -1.8809 -1.3789
28768SOL    HW291152   4.915   2.982   1.666  0.3155  0.4511 -1.1854
28769SOL     OW91153   8.620   8.892   6.610 -0.9443  0.2397  0.0311
28769SOL    HW191154   8.680   8.882   6.536  1.9234  0.1850  2.1683
28769SOL    HW291155   8.584   8.804   6.624 -0.4042 -0.0591 -0.4148
28770SOL     OW91156   2.589   1.896   8.998 -0.0067 -0.0744  0.4315
28770SOL    HW191157   2.590   1.992   8.995 -1.5358 -0.0402 -1.9908
28770SOL    HW291158   2.616   1.870   8.910  1.2485 -1.9351  1.3029
28771SOL     OW91159   3.362   5.865   3.348  0.1919  0.3459 -0.1971
28771SOL    HW191160   3.309   5.811   3.290 -0.8860  0.5294  0.5986
28771SOL    HW291161   3.378   5.945   3.299 -1.6796  0.9784  0.1480
28772SOL     OW91162   9.655   9.723   4.444 -0.5448  0.2322  0.0431
28772SOL    HW191163   9.717   9.794   4.460  0.3584 -0.4095 -0.5247
28772SOL    HW291164   9.604   9.752   4.368 -0.9452  0.7541  0.5013
28773SOL     OW91165   8.417   5.784   4.830  0.0644  0.2551  0.3750
28773SOL    HW191166   8.385   5.705   4.788 -1.6869  1.5407 -0.8601
28773SOL    HW291167   8.509   5.789   4.803  0.1544 -1.2250  0.3132
28774SOL     OW91168   8.546   2.298   3.568 -0.6893 -0.4683  0.2292
28774SOL    HW191169   8.530   2.388   3.597 -1.6310 -1.0697  1.7092
28774SOL    HW291170   8.471   2.248   3.601 -1.5543 -1.3967 -2.8254
28775SOL     OW91171   3.997   8.737   8.915  0.2001  0.3023 -0.3770
28775SOL    HW191172   4.078   8.689   8.898 -0.1724 -0.7771  0.7767
28775SOL    HW291173   3.946   8.729   8.834  1.0854  0.7069 -0.9864
28776SOL     OW91174   1.615   1.729   3.613  0.8925  0.7253 -0.6024
28776SOL    HW191175   1.641   1.760   3.526  0.6417 -0.5254 -1.1412
28776SOL    HW291176   1.522   1.752   3.619  0.5141 -0.5494 -1.3066
28777SOL     OW91177   3.202   5.418   2.548  0.1477 -0.1280 -0.1353
28777SOL    HW191178   3.161   5.414   2.634  0.6695  0.4905  0.1507
28777SOL    HW291179   3.197   5.328   2.515  1.6048 -0.8074  1.3331
28778SOL     OW91180   8.733   7.753   1.898 -0.6054  0.1598  0.1628
28778SOL    HW191181   8.767   7.666   1.919  0.4136  0.3213 -0.7230
28778SOL    HW291182   8.705   7.789   1.982 -0.2545 -0.6981  0.6570
28779SOL     OW91183   4.818   3.020   6.403  0.0660 -0.7334 -0.0444
28779SOL    HW191184   4.803   3.015   6.497  1.2795 -0.7300  0.1742
28779SOL    HW291185   4.883   2.952   6.385 -0.2974 -0.8655 -0.9126
28780SOL     OW91186   9.357   5.353   6.248  0.4803  0.1217  0.5958
28780SOL    HW191187   9.288   5.388   6.304 -1.5829  0.5828 -2.0663
28780SOL    HW291188   9.397   5.431   6.208  0.8013 -0.2464  0.1940
28781SOL     OW91189   2.678   6.090   7.401  0.1087  0.1742  0.0605
28781SOL    HW191190   2.634   6.074   7.317  1.2751 -0.2930 -0.4758
28781SOL    HW291191   2.607   6.090   7.465 -0.6742 -0.6302 -0.7713
28782SOL     OW91192   6.089   4.420   1.009 -0.2314  0.0660 -0.5700
28782SOL    HW191193   6.026   4.354   1.039 -0.6895  0.6264 -0.2849
28782SOL    HW291194   6.051   4.453   0.927  0.4317 -0.6340 -1.1674
28783SOL     OW91195   1.213   7.692   5.877  0.0184 -0.2212  0.2105
28783SOL    HW191196   1.273   7.662   5.945  0.7730  0.4985 -0.1174
28783SOL    HW291197   1.264   7.687   5.796 -0.0439  1.2436  0.0499
28784SOL     OW91198   1.217   5.003   2.499  0.0309 -0.2875  0.3869
28784SOL    HW191199   1.207   5.089   2.540 -1.9063 -0.2973  0.0381
28784SOL    HW291200   1.280   5.018   2.429  0.0100  0.7735  0.5681
28785SOL     OW91201   7.642   5.503   0.857 -0.3163  0.0895 -0.3097
28785SOL    HW191202   7.580   5.472   0.922 -1.9421 -0.6990 -2.1287
28785SOL    HW291203   7.674   5.424   0.814 -0.0399  0.6229 -1.1165
28786SOL     OW91204   9.383   1.504   7.913 -0.6634  0.8280 -0.3747
28786SOL    HW191205   9.427   1.468   7.989 -1.7709  0.4565  0.1203
28786SOL    HW291206   9.445   1.493   7.841  0.9807  2.4751  0.7064
28787SOL     OW91207   5.491   3.239   2.346 -0.4432  0.5395 -0.3278
28787SOL    HW191208   5.447   3.292   2.412 -3.3429 -0.4298 -1.3330
28787SOL    HW291209   5.474   3.284   2.264 -1.1467 -0.7820 -0.9401
28788SOL     OW91210   5.988   5.358   2.398  0.4360  0.6068 -0.4692
28788SOL    HW191211   5.966   5.446   2.430 -0.1313 -0.2648  1.6942
28788SOL    HW291212   5.926   5.342   2.327 -0.8366  1.1929  0.4701
28789SOL     OW91213   3.424   6.130   5.388  0.4597 -0.3341  0.5226
28789SOL    HW191214   3.415   6.056   5.328  3.1333  0.2113 -0.7067
28789SOL    HW291215   3.392   6.205   5.340 -2.3435 -0.5933  1.8080
28790SOL     OW91216   6.097   3.950   1.791  0.2045  0.2605 -0.0916
28790SOL    HW191217   6.043   3.900   1.729  1.4823 -2.8830  1.1002
28790SOL    HW291218   6.144   4.013   1.737 -2.1875  0.9084 -1.5849
28791SOL     OW91219   0.018   9.248   0.278  0.3891  0.1470 -0.9422
28791SOL    HW191220   0.026   9.321   0.216 -0.5411 -0.0730 -1.3433
28791SOL    HW291221  -0.058   9.198   0.247 -0.8110  0.6435  0.9824
28792SOL     OW91222   0.690   2.535   1.426 -0.1481 -0.1822  0.2813
28792SOL    HW191223   0.730   2.537   1.339  1.3314  2.5586  0.8987
28792SOL    HW291224   0.760   2.563   1.485 -1.9871  1.3273  1.9046
28793SOL     OW91225   8.840   8.840   8.256  0.2219  1.0028 -0.4486
28793SOL    HW191226   8.806   8.859   8.343  1.5012  0.1090  0.2692
28793SOL    HW291227   8.772   8.785   8.216  0.1631  0.4038  0.4373
28794SOL     OW91228   3.735   2.256   2.248  0.4414 -0.4297  0.3569
28794SOL    HW191229   3.810   2.254   2.189  1.3344 -3.4355  1.4339
28794SOL    HW291230   3.669   2.202   2.205  0.5462 -1.3973  1.3628
28795SOL     OW91231   9.306   1.616   2.183 -0.0706  0.2265 -0.2842
28795SOL    HW191232   9.325   1.710   2.190  0.2266  0.2752 -1.4332
28795SOL    HW291233   9.241   1.600   2.251  1.8052  0.6919  1.7230
28796SOL     OW91234   9.651   3.674   9.647  0.1099  0.3822 -0.1296
28796SOL    HW191235   9.658   3.650   9.555  1.7191  0.8986 -0.1709
28796SOL    HW291236   9.680   3.596   9.695  0.4867  0.5413 -0.0994
28797SOL     OW91237   6.673   5.118   9.211 -0.3434  0.8502  0.2634
28797SOL    HW191238   6.757   5.137   9.169 -0.0673  0.3364  0.5714
28797SOL    HW291239   6.629   5.059   9.150  0.3887 -0.5362  1.0301
28798SOL     OW91240   5.942   2.680   8.365  0.1986  0.2917  0.0760
28798SOL    HW191241   5.938   2.645   8.454 -0.3505  2.0948  0.8245
28798SOL    HW291242   5.853   2.666   8.330  0.7886 -1.6755 -0.7547
28799SOL     OW91243   9.205   9.401   3.182  1.0925 -0.2817 -0.3903
28799SOL    HW191244   9.144   9.339   3.142  0.5939 -0.1756  0.1843
28799SOL    HW291245   9.238   9.453   3.109 -1.1520  1.0905 -0.5186
28800SOL     OW91246   4.318   7.546   7.485 -0.6872  0.0606 -0.5151
28800SOL    HW191247   4.326   7.496   7.403 -2.3830 -0.5600 -0.3474
28800SOL    HW291248   4.389   7.610   7.481  0.0955 -0.8373 -1.8419
28801SOL     OW91249   5.704   8.735   7.119  0.4150  0.3016 -0.6358
28801SOL    HW191250   5.783   8.682   7.106  1.0016  0.9694  0.1929
28801SOL    HW291251   5.675   8.714   7.208 -0.6537 -0.3285 -1.1064
28802SOL     OW91252   1.442   5.973   7.250 -0.1182  0.4976  0.7216
28802SOL    HW191253   1.443   5.885   7.211  0.3728  0.3092  1.1599
28802SOL    HW291254   1.520   6.015   7.216  0.3477  0.3117  1.5413
28803SOL     OW91255   9.439   7.832   1.217  0.2653 -0.5997 -0.5163
28803SOL    HW191256   9.343   7.839   1.212  0.1697  0.3934  1.4563
28803SOL    HW291257   9.466   7.813   1.127 -1.6621  0.7345 -1.4665
28804SOL     OW91258   9.674   3.796   2.303  0.5199  0.0704  0.4717
28804SOL    HW191259   9.752   3.827   2.258  0.5243  3.3334  2.4120
28804SOL    HW291260   9.701   3.784   2.394 -0.9478 -0.0267  0.9222
28805SOL     OW91261   6.103   6.798   6.876  0.3977  0.0340  0.3436
28805SOL    HW191262   6.094   6.725   6.814  0.4112  0.0084  0.3713
28805SOL    HW291263   6.166   6.766   6.941  1.6246  0.6590 -0.4976
28806SOL     OW91264   1.818   8.935   3.238  0.1525 -0.4317 -0.2532
28806SOL    HW191265   1.851   8.984   3.313  0.0771 -1.4994  0.4979
28806SOL    HW291266   1.751   8.991   3.200  0.8193  0.5090 -0.0750
28807SOL     OW91267   2.661   0.350   7.939 -0.1186 -0.3841 -0.2927
28807SOL    HW191268   2.640   0.318   8.027  0.0392 -2.2946 -0.9038
28807SOL    HW291269   2.589   0.410   7.917  0.1952  0.6726  1.3739
28808SOL     OW91270   4.614   5.271   5.462  0.2547 -0.7692  0.1810
28808SOL    HW191271   4.610   5.338   5.529 -1.4663  1.1926 -1.7423
28808SOL    HW291272   4.663   5.312   5.390 -3.2393 -0.2991 -2.1697
28809SOL     OW91273   6.549   7.507   1.603  0.8162 -0.4871 -0.2584
28809SOL    HW191274   6.574   7.462   1.683  0.8787 -0.2057 -0.1193
28809SOL    HW291275   6.593   7.592   1.608  1.4503 -0.7589 -0.9464
28810SOL     OW91276   4.508   3.504   8.622  0.4184  0.5621 -0.4747
28810SOL    HW191277   4.422   3.538   8.597 -0.6693  1.4543  3.6568
28810SOL    HW291278   4.570   3.567   8.586 -1.1108  2.9668  0.8002
28811SOL     OW91279   5.276   8.393   9.520 -0.2450 -0.5714 -0.0193
28811SOL    HW191280   5.202   8.427   9.470  1.6065  0.3150 -2.3827
28811SOL    HW291281   5.344   8.460   9.511  2.1525 -2.9775 -1.2830
28812SOL     OW91282   3.395   6.934   2.291 -0.9159  0.4319 -0.3004
28812SOL    HW191283   3.455   7.000   2.324  0.9336 -1.2010 -0.2338
28812SOL    HW291284   3.308   6.964   2.319  0.0136  2.0380  0.9959
28813SOL     OW91285   3.976   2.792   2.527  0.2900 -0.2756 -0.0050
28813SOL    HW191286   3.941   2.760   2.611 -2.7973 -1.9253 -1.7322
28813SOL    HW291287   4.051   2.735   2.509  1.1278  0.2408  1.6721
28814SOL     OW91288   1.208   2.586   1.429 -0.4404  0.2204  0.1723
28814SOL    HW191289   1.273   2.614   1.493  0.6399  1.3840 -1.3430
28814SOL    HW291290   1.259   2.561   1.352 -1.7407  0.2832 -0.7548
28815SOL     OW91291   0.034   0.181   6.773  0.2352 -0.1267 -0.0663
28815SOL    HW191292  -0.035   0.228   6.819 -0.2124 -0.6068 -0.2308
28815SOL    HW291293   0.029   0.213   6.683 -0.2044 -0.6205 -0.2256
28816SOL     OW91294   4.071   5.718   3.480 -0.2959 -0.3251  0.1920
28816SOL    HW191295   4.091   5.730   3.388  0.4495 -0.2756  0.3575
28816SOL    HW291296   4.156   5.712   3.523 -0.5704 -2.6152  0.5873
28817SOL     OW91297   7.787   4.036   9.199  0.9497 -0.4531  0.0952
28817SOL    HW191298   7.699   4.064   9.224  0.5393  0.2180 -1.9201
28817SOL    HW291299   7.785   3.941   9.210  0.4931 -0.2932  1.5549
28818SOL     OW91300   7.956   1.295   3.884  0.3774  0.4111 -0.3878
28818SOL    HW191301   8.031   1.284   3.942 -0.2370 -1.3489  0.1240
28818SOL    HW291302   7.918   1.208   3.876 -0.5099  0.9006 -2.1699
28819SOL     OW91303   3.364   8.581   1.396 -0.3803 -0.2644 -0.2225
28819SOL    HW191304   3.357   8.666   1.352 -0.8296 -0.2729 -0.1803
28819SOL    HW291305   3.414   8.599   1.476 -1.6484  0.2566  0.4869
28820SOL     OW91306   3.373   3.187   5.143  0.4562 -0.1142 -0.6323
28820SOL    HW191307   3.334   3.245   5.208  0.6763  0.3769 -0.9311
28820SOL    HW291308   3.299   3.151   5.095  0.3114 -0.1763 -0.3620
28821SOL     OW91309   3.821   1.932   3.287 -0.2785  0.0183 -0.2049
28821SOL    HW191310   3.759   1.867   3.319  0.0475  0.0308  0.4598
28821SOL    HW291311   3.897   1.880   3.258  0.3562  0.1475  1.1731
28822SOL     OW91312   0.095   5.761   3.797 -0.0482  0.5933  0.0344
28822SOL    HW191313   0.065   5.670   3.792  0.1084  0.6142 -1.9621
28822SOL    HW291314   0.125   5.771   3.888 -0.4988 -1.1960  0.4248
28823SOL     OW91315   3.309   5.386   1.145 -0.2736 -0.6478  0.2514
28823SOL    HW191316   3.243   5.414   1.082 -0.5008 -0.8444  0.3982
28823SOL    HW291317   3.289   5.293   1.161  0.4287 -0.8785 -0.1807
28824SOL     OW91318   8.649   2.576   9.356 -0.1126 -0.0970  0.0896
28824SOL    HW191319   8.641   2.489   9.317  1.5398  0.5956 -1.9898
28824SOL    HW291320   8.583   2.629   9.311  0.0509  0.1227  0.1048
28825SOL     OW91321   6.577   2.381   7.011 -0.2109  0.0293 -0.2006
28825SOL    HW191322   6.528   2.300   7.025 -0.1074  0.2079  1.3506
28825SOL    HW291323   6.547   2.412   6.926 -0.5611 -1.4092 -0.6401
28826SOL     OW91324   8.497   3.252   0.771 -0.0133 -0.1302  0.0808
28826SOL    HW191325   8.512   3.328   0.828  0.2683  0.2188 -0.4541
28826SOL    HW291326   8.446   3.286   0.698  0.0866 -0.4624 -0.1481
28827SOL     OW91327   7.429   2.263   3.953  0.0590 -0.0536  0.2784
28827SOL    HW191328   7.436   2.275   3.858 -0.8494 -1.9469 -0.0758
28827SOL    HW291329   7.398   2.348   3.985  1.5157  1.0041 -0.9324
28828SOL     OW91330   3.932   5.713   2.838  0.1941 -0.4803  0.4500
28828SOL    HW191331   3.934   5.679   2.748 -1.1136  0.0722  0.1871
28828SOL    HW291332   3.987   5.791   2.835 -1.3385  0.6274 -0.3843
28829SOL     OW91333   7.886   1.174   4.231  0.0878 -0.3505 -0.1754
28829SOL    HW191334   7.908   1.089   4.267 -1.8255 -0.3333  1.2025
28829SOL    HW291335   7.805   1.160   4.183 -1.8717  1.1000  2.4333
28830SOL     OW91336   7.319   9.040   8.865 -0.2685 -0.2948 -0.6512
28830SOL    HW191337   7.312   9.135   8.858  3.5809  0.0587 -2.4734
28830SOL    HW291338   7.292   9.007   8.780  1.9733 -0.3584 -1.4208
28831SOL     OW91339   1.409   2.935   3.061  0.6215 -0.0176  0.5261
28831SOL    HW191340   1.457   2.946   3.144 -0.5265  0.1829  1.1769
28831SOL    HW291341   1.478   2.915   2.997  1.4242 -1.2737  1.7248
28832SOL     OW91342   2.546   2.179   9.273  0.3249 -0.7727 -0.1884
28832SOL    HW191343   2.584   2.213   9.354 -0.6451 -1.5752  0.6314
28832SOL    HW291344   2.504   2.097   9.299 -1.0223 -0.4607 -1.2687
28833SOL     OW91345   4.911   8.594   1.909  0.4639  0.5771  0.1799
28833SOL    HW191346   4.889   8.591   2.002 -0.0015  1.8190  0.1321
28833SOL    HW291347   5.006   8.589   1.906  0.4476 -0.0217  0.6924
28834SOL     OW91348   3.236   4.866   0.001 -0.5971 -0.2646  0.2931
28834SOL    HW191349   3.200   4.792   0.050 -1.2398 -0.4104 -0.3872
28834SOL    HW291350   3.318   4.887   0.046 -0.3102 -1.5108  0.3748
28835SOL     OW91351   4.392   5.399   3.058  0.2519  0.1528 -0.0167
28835SOL    HW191352   4.417   5.337   3.127  1.8739  0.2791 -0.4577
28835SOL    HW291353   4.322   5.354   3.010 -1.5415  0.3944  2.1595
28836SOL     OW91354   2.715   8.504   1.807 -0.5737  0.2122 -0.7128
28836SOL    HW191355   2.675   8.445   1.870  1.4499 -0.6260 -0.1246
28836SOL    HW291356   2.683   8.591   1.830 -1.2650 -0.3050  0.3237
28837SOL     OW91357   5.578   4.166   3.243  0.0258  0.4819  0.1074
28837SOL    HW191358   5.608   4.098   3.304 -1.6526 -0.2791  0.1483
28837SOL    HW291359   5.594   4.128   3.156  1.4618  1.1409  0.0506
28838SOL     OW91360   0.715   5.520   8.480  0.4583  0.6225  0.0296
28838SOL    HW191361   0.803   5.485   8.470  0.6983  1.2819 -0.2352
28838SOL    HW291362   0.685   5.536   8.390 -0.7666 -1.5662 -0.0206
28839SOL     OW91363   2.894   0.577   5.758  0.3992  0.0267 -0.2587
28839SOL    HW191364   2.922   0.633   5.831  0.6734  0.2208 -0.5087
28839SOL    HW291365   2.840   0.635   5.704 -0.5929 -0.3704  0.2703
28840SOL     OW91366   2.063   1.370   0.726  0.2716  0.4958 -0.6307
28840SOL    HW191367   2.114   1.436   0.679 -0.5560  0.4066 -1.6921
28840SOL    HW291368   2.091   1.378   0.817  1.4690  1.0988 -1.0262
28841SOL     OW91369   9.523   8.547   2.641  0.0442  0.0571 -0.0649
28841SOL    HW191370   9.553   8.488   2.710 -0.8128 -1.2695 -0.7806
28841SOL    HW291371   9.595   8.609   2.629  0.0554  0.5947  2.2870
28842SOL     OW91372   1.971   1.477   5.856 -0.5616 -0.0905  0.2084
28842SOL    HW191373   2.043   1.462   5.795 -0.2243  1.0270  0.2955
28842SOL    HW291374   2.015   1.490   5.941 -1.0657 -2.6208  0.9534
28843SOL     OW91375   4.761   3.782   5.395 -0.4915 -0.3300  0.3225
28843SOL    HW191376   4.695   3.725   5.356  0.4089 -0.3259 -1.2731
28843SOL    HW291377   4.842   3.759   5.351  0.1857  1.1317  0.7441
28844SOL     OW91378   7.525   2.519   0.179  1.1259 -0.4832  0.1366
28844SOL    HW191379   7.531   2.424   0.173  0.4242 -0.5311  0.1361
28844SOL    HW291380   7.585   2.543   0.250  0.9021 -0.9708  0.4892
28845SOL     OW91381   1.648   7.437   2.806 -0.2511 -0.2018  0.0669
28845SOL    HW191382   1.729   7.426   2.755  0.3166 -0.8243  1.0685
28845SOL    HW291383   1.588   7.371   2.770 -0.3878  0.3696 -0.7859
28846SOL     OW91384   0.584   4.229   0.815 -0.1010  0.3794 -0.1654
28846SOL    HW191385   0.628   4.297   0.867 -0.8026 -1.1915  2.6992
28846SOL    HW291386   0.637   4.151   0.827 -0.5849 -0.1664 -1.4388
28847SOL     OW91387   1.891   9.217   0.291 -0.1989  0.4785 -0.1740
28847SOL    HW191388   1.850   9.277   0.353  1.6668  0.5110  1.0905
28847SOL    HW291389   1.917   9.272   0.217  0.3198  1.0088  0.3946
28848SOL     OW91390   7.092   7.095   3.200 -0.2330 -0.0738 -0.3171
28848SOL    HW191391   7.067   7.015   3.153 -1.2485 -0.7985  1.3678
28848SOL    HW291392   7.155   7.065   3.266  0.7505  0.8363 -0.8143
28849SOL     OW91393   8.329   4.605   2.049  0.2629  0.1446 -0.2938
28849SOL    HW191394   8.280   4.592   2.130  0.6819 -0.1227 -0.0786
28849SOL    HW291395   8.264   4.595   1.979 -0.3635  1.6138  0.0392
28850SOL     OW91396   6.923   8.355   2.264 -0.8503  0.5669 -0.7712
28850SOL    HW191397   6.982   8.284   2.287  0.1105  1.2825 -0.9511
28850SOL    HW291398   6.900   8.396   2.347 -0.6775  0.6029 -0.7404
28851SOL     OW91399   5.611   4.485   1.206 -0.2122 -0.1723 -0.3809
28851SOL    HW191400   5.682   4.426   1.228 -0.1790  0.2132  0.5933
28851SOL    HW291401   5.533   4.445   1.245  0.0520  1.1599  1.6506
28852SOL     OW91402   0.215   8.671   8.408 -0.1418  0.1924  0.1160
28852SOL    HW191403   0.178   8.615   8.340  0.2016  0.5392 -0.3599
28852SOL    HW291404   0.304   8.690   8.378  0.0189  0.3415  0.6685
28853SOL     OW91405   0.997   0.592   0.391  0.0479  0.0982 -0.4943
28853SOL    HW191406   0.968   0.656   0.457 -2.4537 -0.9299 -0.4627
28853SOL    HW291407   0.957   0.623   0.309  2.4503  0.9061 -1.4513
28854SOL     OW91408   8.218   9.149   9.486  0.2755  0.1451 -0.2356
28854SOL    HW191409   8.133   9.105   9.492  0.1696  0.3240 -0.3887
28854SOL    HW291410   8.278   9.082   9.453  0.4840 -0.3486  1.1078
28855SOL     OW91411   2.730   2.359   3.438  0.3940 -0.1912 -0.5933
28855SOL    HW191412   2.684   2.291   3.389 -0.4364 -0.8058  0.9804
28855SOL    HW291413   2.755   2.318   3.521 -0.8073  1.5819  0.7463
28856SOL     OW91414   0.140   5.062   2.981  0.0232 -0.4504 -0.8115
28856SOL    HW191415   0.223   5.049   3.026  0.0916  1.6762 -0.1858
28856SOL    HW291416   0.077   5.008   3.028  0.5396  0.0364  0.4793
28857SOL     OW91417   3.640   2.544   6.609  0.2985 -0.2340 -0.2355
28857SOL    HW191418   3.697   2.574   6.680  1.2346 -0.5560 -0.8366
28857SOL    HW291419   3.553   2.538   6.649  0.7710 -0.2040  0.8263
28858SOL     OW91420   1.569   7.620   1.371 -0.0378  0.6201 -0.0556
28858SOL    HW191421   1.490   7.585   1.412 -0.7280  1.4528 -0.6510
28858SOL    HW291422   1.537   7.672   1.297  1.1707 -1.6759 -2.3662
28859SOL     OW91423   6.479   5.960   4.924  0.1742  0.0303 -0.3535
28859SOL    HW191424   6.463   5.927   4.835 -0.1572 -1.0372  0.0900
28859SOL    HW291425   6.482   6.055   4.913 -1.6696  0.0537 -1.2490
28860SOL     OW91426   2.445   6.757   8.178  0.5252 -0.2801  0.2749
28860SOL    HW191427   2.468   6.817   8.107 -0.5528 -0.7978 -0.5261
28860SOL    HW291428   2.374   6.801   8.225 -0.5087 -1.0335 -0.5210
28861SOL     OW91429   0.538   7.799   8.533  0.2996 -0.3698  0.1821
28861SOL    HW191430   0.493   7.793   8.617 -1.1023 -2.9989 -0.6436
28861SOL    HW291431   0.629   7.777   8.552  0.2042  0.0153  1.1176
28862SOL     OW91432   8.199   5.771   5.503  0.4542 -0.3288  0.6060
28862SOL    HW191433   8.198   5.802   5.594  2.3570  0.9653  0.2463
28862SOL    HW291434   8.121   5.716   5.496 -2.2325  2.9683  1.8244
28863SOL     OW91435   2.215   1.755   4.240 -0.1394 -0.5696  0.0361
28863SOL    HW191436   2.232   1.718   4.153 -0.7665  0.9879 -0.7826
28863SOL    HW291437   2.183   1.681   4.292  1.2762 -1.7666 -0.7197
28864SOL     OW91438   5.476   3.932   1.726 -0.1378 -0.5003 -0.0251
28864SOL    HW191439   5.436   3.987   1.794  1.7224 -0.5375  1.2008
28864SOL    HW291440   5.496   3.993   1.655  1.1943  0.3390  1.0039
28865SOL     OW91441   0.767   5.709   2.708 -0.0375  0.4283  0.3211
28865SOL    HW191442   0.693   5.664   2.748  0.4562 -0.4437  0.2814
28865SOL    HW291443   0.832   5.715   2.778  0.9016 -1.2655 -0.3385
28866SOL     OW91444   9.427   4.274   2.009  0.0402  0.3617  0.1553
28866SOL    HW191445   9.499   4.212   2.003 -0.0765  0.2814 -0.5601
28866SOL    HW291446   9.377   4.245   2.085  0.3063 -0.0790  0.1677
28867SOL     OW91447   8.009   7.460   8.908  0.1666  0.0988 -0.3322
28867SOL    HW191448   8.100   7.433   8.897  0.3498  0.0380  1.0643
28867SOL    HW291449   8.014   7.542   8.958 -0.5517 -0.2556  0.3508
28868SOL     OW91450   5.968   3.813   0.019  0.3780 -0.2664 -0.1981
28868SOL    HW191451   6.051   3.768   0.031  0.5734 -0.1071 -0.9542
28868SOL    HW291452   5.956   3.817  -0.075 -0.3393 -0.0122 -0.0995
28869SOL     OW91453   4.372   3.806   5.335 -0.1121 -0.2812 -0.6198
28869SOL    HW191454   4.409   3.718   5.344 -0.5211 -0.3117  0.9914
28869SOL    HW291455   4.308   3.798   5.264  0.7883 -0.9528 -1.3771
28870SOL     OW91456   4.623   2.136   8.010  0.1328  0.6958 -0.3104
28870SOL    HW191457   4.671   2.104   8.087  1.2630  0.4615 -1.0921
28870SOL    HW291458   4.567   2.206   8.045 -0.3513 -0.2865  0.9490
28871SOL     OW91459   2.891   7.398   5.420 -0.1788 -0.0876 -0.2224
28871SOL    HW191460   2.805   7.356   5.421 -0.2607  0.0697  1.3414
28871SOL    HW291461   2.944   7.341   5.365 -1.4800  0.2778 -1.9392
28872SOL     OW91462   6.225   2.080   1.226 -0.4345 -0.0445  0.8026
28872SOL    HW191463   6.157   2.139   1.194  1.3277  1.0897 -1.1131
28872SOL    HW291464   6.307   2.128   1.212  1.1469 -3.0244 -1.3081
28873SOL     OW91465   0.509   7.742   2.160  0.3741 -0.1466 -0.4417
28873SOL    HW191466   0.580   7.744   2.223 -0.5395  0.1553  0.6043
28873SOL    HW291467   0.553   7.744   2.075  1.9056 -5.4656 -0.0977
28874SOL     OW91468   3.797   6.946   3.452 -0.1226  0.4047  0.2395
28874SOL    HW191469   3.834   7.034   3.450  1.2117 -0.0959  1.4842
28874SOL    HW291470   3.871   6.889   3.470 -0.9924 -0.9806 -0.3844
28875SOL     OW91471   7.678   8.009   9.707 -0.0917 -0.2181 -0.1075
28875SOL    HW191472   7.739   8.083   9.703 -0.6102  0.1550 -1.6974
28875SOL    HW291473   7.592   8.050   9.714 -0.1987 -0.7471  2.8096
28876SOL     OW91474   5.880   4.938   6.523 -0.1040 -0.0542  0.3552
28876SOL    HW191475   5.960   4.983   6.494  0.1245 -0.4014  0.4331
28876SOL    HW291476   5.874   4.960   6.616 -1.1057  1.4619 -0.0328
28877SOL     OW91477   7.518   5.106   9.663  0.1575 -0.6786 -0.0935
28877SOL    HW191478   7.466   5.183   9.683 -0.8795 -0.9538 -1.5549
28877SOL    HW291479   7.511   5.096   9.568  1.6262 -1.6235 -0.1356
28878SOL     OW91480   4.050   2.093   7.428  0.2949 -0.5050  0.0114
28878SOL    HW191481   4.020   2.176   7.390  1.5204  0.5975  1.3598
28878SOL    HW291482   3.972   2.058   7.472  0.2066  0.8949  1.0401
28879SOL     OW91483   9.462   7.690   6.215 -0.4312  0.1430  0.1633
28879SOL    HW191484   9.385   7.746   6.215 -1.1190 -0.7768  0.2771
28879SOL    HW291485   9.429   7.604   6.189  0.7226 -0.0589 -0.6833
28880SOL     OW91486   0.403   4.830   8.866 -0.4139  0.1652 -0.1401
28880SOL    HW191487   0.376   4.873   8.947  1.6500  0.8887  0.2344
28880SOL    HW291488   0.437   4.900   8.812  0.7281 -0.6463 -0.5223
28881SOL     OW91489   4.147   6.586   8.670 -0.0568 -0.0153  0.3056
28881SOL    HW191490   4.093   6.515   8.705  0.3657  0.6282  2.4222
28881SOL    HW291491   4.085   6.657   8.654 -0.0044  0.4395  1.9438
28882SOL     OW91492   2.558   3.343   9.352 -0.3867  0.1189  0.1304
28882SOL    HW191493   2.543   3.335   9.446 -0.4066 -1.0927  0.0483
28882SOL    HW291494   2.584   3.255   9.325 -0.0652  0.5316 -0.9439
28883SOL     OW91495   9.354   1.501   2.836  1.1944  0.7921  0.3824
28883SOL    HW191496   9.288   1.441   2.802  1.8711 -0.0452  0.5216
28883SOL    HW291497   9.394   1.455   2.910  1.2443  1.6999  0.9382
28884SOL     OW91498   0.418   1.258   6.007  0.2412  0.4039 -0.8519
28884SOL    HW191499   0.339   1.270   5.955 -0.0763 -3.1643 -1.4218
28884SOL    HW291500   0.435   1.164   6.004  3.0009  0.6859  1.5074
28885SOL     OW91501   2.466   7.133   7.100 -0.2074 -0.0328  0.3246
28885SOL    HW191502   2.536   7.072   7.078 -0.0496 -0.1444  1.0814
28885SOL    HW291503   2.428   7.158   7.016 -0.3422 -1.2565 -0.0082
28886SOL     OW91504   3.978   3.222   4.562  0.4389 -0.4717  0.2214
28886SOL    HW191505   3.911   3.210   4.629  0.6323  0.2493  0.5529
28886SOL    HW291506   4.060   3.195   4.603  0.8590  1.6920  0.9344
28887SOL     OW91507   4.923   9.429   2.180  0.0110  0.1683 -0.3675
28887SOL    HW191508   4.881   9.434   2.094  1.1613 -1.3532 -1.0495
28887SOL    HW291509   4.853   9.400   2.239 -0.5243  0.1792 -0.9889
28888SOL     OW91510   6.549   8.049   7.173 -0.2576 -0.0640  0.0967
28888SOL    HW191511   6.515   8.129   7.132  0.2577 -0.4453 -1.1399
28888SOL    HW291512   6.471   7.995   7.188 -0.4259 -0.1499 -0.9569
28889SOL     OW91513   8.078   9.374   7.964 -0.6345 -0.1166 -0.4531
28889SOL    HW191514   8.077   9.470   7.966 -1.7641 -0.1440  0.6581
28889SOL    HW291515   8.039   9.352   7.879  1.9334  0.3831 -1.8988
28890SOL     OW91516   9.207   6.928   0.569  0.6221 -0.3948 -0.4011
28890SOL    HW191517   9.151   6.967   0.502  1.8612  0.3541 -1.0289
28890SOL    HW291518   9.192   6.982   0.647 -0.3717 -0.9088 -0.2076
28891SOL     OW91519   6.395   4.211   6.317  0.0914 -0.3637 -0.3632
28891SOL    HW191520   6.409   4.141   6.381 -2.7450 -0.5955  0.1155
28891SOL    HW291521   6.353   4.167   6.243 -1.2929  0.7013 -0.2543
28892SOL     OW91522   7.479   1.640   6.348 -0.8452  0.1112  0.0152
28892SOL    HW191523   7.436   1.632   6.433  0.4587  1.8499  0.8948
28892SOL    HW291524   7.474   1.733   6.327  3.5463  0.7318  0.8385
28893SOL     OW91525   3.088   1.160   5.095  0.3431 -0.3461  0.2381
28893SOL    HW191526   3.143   1.208   5.033 -2.7492  2.0103 -0.9415
28893SOL    HW291527   3.130   1.174   5.180  1.7096  1.1118 -0.6310
28894SOL     OW91528   6.937   7.466   5.404 -0.0350 -0.1960 -0.2521
28894SOL    HW191529   6.958   7.499   5.316  0.2655 -0.0939 -0.1423
28894SOL    HW291530   6.869   7.526   5.436  1.2707  0.9913  0.3725
28895SOL     OW91531   1.221   2.950   4.223 -0.3110 -0.5007  0.6537
28895SOL    HW191532   1.308   2.918   4.246 -0.3811  0.1404  1.9648
28895SOL    HW291533   1.208   2.924   4.132  1.2784 -0.5511  0.4102
28896SOL     OW91534   5.578   7.353   8.127  0.0388 -0.0645 -0.2045
28896SOL    HW191535   5.659   7.314   8.096 -0.2980 -2.3896  1.5574
28896SOL    HW291536   5.514   7.334   8.058  0.3131 -0.9738 -0.2141
28897SOL     OW91537   5.135   3.971   0.531 -0.1264 -0.1038  0.0968
28897SOL    HW191538   5.192   3.967   0.454 -0.0495 -0.3264  0.1643
28897SOL    HW291539   5.102   4.061   0.532  1.5643  0.5589  1.0042
28898SOL     OW91540   8.173   7.128   1.103  0.1815  0.4006  0.1691
28898SOL    HW191541   8.109   7.060   1.124  1.4216 -0.4135  1.4648
28898SOL    HW291542   8.131   7.210   1.130 -1.1142  0.1292 -0.9189
28899SOL     OW91543   8.071   2.420   6.706 -0.0933 -0.1928  0.3158
28899SOL    HW191544   8.091   2.503   6.662 -0.4511 -0.1770  0.1780
28899SOL    HW291545   8.013   2.444   6.778  0.8093 -0.1700  1.0546
28900SOL     OW91546   6.662   8.356   6.150  0.2837 -0.4155 -0.3685
28900SOL    HW191547   6.726   8.369   6.220 -0.2815  2.6425 -0.2683
28900SOL    HW291548   6.679   8.427   6.088 -0.8653 -1.5345 -2.0547
28901SOL     OW91549   7.578   7.432   3.388  0.5522 -0.0926 -0.4516
28901SOL    HW191550   7.646   7.493   3.416  0.0035 -0.0518  0.8563
28901SOL    HW291551   7.611   7.396   3.306  1.3028  1.2845 -0.7947
28902SOL     OW91552   1.670   0.571   3.241 -0.3067 -0.4286 -0.2008
28902SOL    HW191553   1.591   0.552   3.292 -0.5349 -2.7238 -1.2323
28902SOL    HW291554   1.637   0.605   3.158 -0.0474  1.1295  0.3106
28903SOL     OW91555   7.714   0.434   7.446 -0.4519 -0.1879  0.3333
28903SOL    HW191556   7.661   0.436   7.366  0.5631  3.6156 -0.4917
28903SOL    HW291557   7.791   0.381   7.422 -0.9534 -0.4986 -0.6335
28904SOL     OW91558   3.077   3.053   2.429 -0.1126  0.0194 -0.0622
28904SOL    HW191559   3.111   3.142   2.428 -1.4644  0.6140  1.3723
28904SOL    HW291560   3.018   3.048   2.354  1.9569 -0.5881 -1.7477
28905SOL     OW91561   5.341   9.537   4.054  0.7083  0.2517  0.4213
28905SOL    HW191562   5.326   9.446   4.026  0.6342 -0.0430  1.3928
28905SOL    HW291563   5.419   9.564   4.005 -0.8877  0.6489 -2.0570
28906SOL     OW91564   7.205   4.311   4.794 -0.0161  0.0340  0.0137
28906SOL    HW191565   7.202   4.391   4.741  0.8427 -0.8405 -1.3977
28906SOL    HW291566   7.290   4.315   4.838  0.0258 -0.1046 -0.0555
28907SOL     OW91567   2.467   0.562   3.051 -0.5066 -0.3644 -0.3915
28907SOL    HW191568   2.475   0.611   3.133 -0.6697  0.2121 -0.7152
28907SOL    HW291569   2.399   0.498   3.068 -2.0963  1.1530 -0.7326
28908SOL     OW91570   0.725   9.723   5.988  0.3723  1.2405 -0.3737
28908SOL    HW191571   0.757   9.634   6.008 -2.8348  0.1290  0.4220
28908SOL    HW291572   0.748   9.736   5.896  2.0646  0.1736 -0.1633
28909SOL     OW91573   4.531   3.123   0.302 -0.4382 -0.7610 -0.2654
28909SOL    HW191574   4.579   3.133   0.219  2.0001  0.5699  1.1840
28909SOL    HW291575   4.509   3.030   0.306 -0.8333 -0.8217 -2.4791
28910SOL     OW91576   1.217   4.136   3.370 -0.0676  0.0357  0.5956
28910SOL    HW191577   1.139   4.187   3.346  0.4451  1.0070  0.9580
28910SOL    HW291578   1.291   4.192   3.347  0.4952  0.0045  2.1916
28911SOL     OW91579   1.605   4.150   3.335 -0.2073 -0.5091 -0.1665
28911SOL    HW191580   1.557   4.083   3.287 -1.0809  0.0753 -0.1279
28911SOL    HW291581   1.555   4.230   3.320  0.9310  0.1838 -0.3786
28912SOL     OW91582   0.293   4.657   0.044 -0.0144 -0.0549  0.2627
28912SOL    HW191583   0.309   4.736  -0.008 -2.0578  0.7030  0.6895
28912SOL    HW291584   0.204   4.631   0.022  1.2555 -3.6274 -1.5805
28913SOL     OW91585   5.157   0.358   2.376 -0.1278 -0.1384 -0.4608
28913SOL    HW191586   5.083   0.392   2.327 -0.1983 -0.6207 -0.6923
28913SOL    HW291587   5.233   0.378   2.322 -0.2124 -0.7293 -0.8016
28914SOL     OW91588   5.323   5.818   8.608 -0.0804  0.5237  0.1935
28914SOL    HW191589   5.252   5.796   8.669 -0.5344  1.0889 -0.1285
28914SOL    HW291590   5.403   5.803   8.659 -0.3909 -0.8702  0.3147
28915SOL     OW91591   3.077   6.022   5.300 -0.3666  0.3526 -0.4042
28915SOL    HW191592   3.005   5.963   5.275 -0.1223  0.6540 -1.8988
28915SOL    HW291593   3.040   6.077   5.369 -1.0753 -0.5365 -0.0527
28916SOL     OW91594   4.163   7.294   6.090  0.3014  0.5422 -0.4427
28916SOL    HW191595   4.106   7.341   6.150 -0.2936 -0.4745 -0.1973
28916SOL    HW291596   4.104   7.244   6.034  0.8833 -2.8083  1.6245
28917SOL     OW91597   1.861   7.390   0.369  0.8510 -0.1173  0.4555
28917SOL    HW191598   1.913   7.470   0.355  0.6345 -0.2787 -1.6021
28917SOL    HW291599   1.771   7.422   0.379  0.5685 -0.1062 -1.6481
28918SOL     OW91600   5.439   6.836   9.276  0.4335 -0.7471 -0.7841
28918SOL    HW191601   5.502   6.764   9.268 -0.3018 -1.5288  0.1572
28918SOL    HW291602   5.489   6.907   9.315  0.8246 -1.2481 -0.3572
28919SOL     OW91603   8.987   0.851   9.451 -0.0253  0.3512 -0.3165
28919SOL    HW191604   8.930   0.881   9.523  1.5734  0.9688  0.7380
28919SOL    HW291605   8.941   0.880   9.372 -1.5250  0.2181  0.4522
28920SOL     OW91606   7.741   6.775   1.073 -0.6213 -0.4918  0.1058
28920SOL    HW191607   7.668   6.835   1.059  0.8869  1.6979  0.8738
28920SOL    HW291608   7.713   6.717   1.143 -1.6826  0.2110  0.2766
28921SOL     OW91609   0.279   2.583   4.185 -0.2979  0.5300  0.2504
28921SOL    HW191610   0.303   2.549   4.271 -0.0346  0.4220  0.1330
28921SOL    HW291611   0.361   2.585   4.135 -0.0178  2.7157  0.7175
28922SOL     OW91612   5.107   7.658   8.847 -0.1243 -0.0238  0.2062
28922SOL    HW191613   5.174   7.685   8.785 -0.6344  0.3622 -0.1884
28922SOL    HW291614   5.069   7.740   8.880  0.4708 -0.2103  1.4087
28923SOL     OW91615   6.975   0.194   2.312  0.1556 -0.2632  0.4550
28923SOL    HW191616   6.971   0.211   2.407  1.0733 -0.1624  0.4882
28923SOL    HW291617   6.973   0.282   2.273  1.1548 -0.2368  0.4505
28924SOL     OW91618   6.862   0.615   9.112 -0.2425 -0.5272 -0.8685
28924SOL    HW191619   6.808   0.670   9.054  0.9257 -2.6038 -4.2173
28924SOL    HW291620   6.870   0.532   9.066  2.4358 -1.7160  1.4390
28925SOL     OW91621   1.998   1.713   7.495 -0.5008  0.2893  0.4391
28925SOL    HW191622   1.903   1.720   7.481 -0.5652 -2.6033 -1.6454
28925SOL    HW291623   2.034   1.793   7.458 -2.0724  1.2030  0.7833
28926SOL     OW91624   4.301   5.609   2.173  0.1292 -0.4669 -0.1821
28926SOL    HW191625   4.368   5.604   2.241 -0.4800  1.7294  0.6666
28926SOL    HW291626   4.286   5.703   2.161 -1.5955 -0.8640 -1.5451
28927SOL     OW91627   3.921   0.333   4.296 -0.5666 -0.5883 -0.3840
28927SOL    HW191628   3.950   0.336   4.387 -0.0142 -0.5520 -0.5633
28927SOL    HW291629   3.884   0.246   4.286 -2.0433 -0.0810  0.3035
28928SOL     OW91630   2.154   9.628   2.050 -0.0626 -0.6273  0.0776
28928SOL    HW191631   2.091   9.671   1.992  0.5470  1.3857  0.8233
28928SOL    HW291632   2.113   9.631   2.137  0.4934 -0.4744  0.3404
28929SOL     OW91633   5.700   3.748   5.036 -0.4750 -0.7842  0.2437
28929SOL    HW191634   5.635   3.712   5.096 -2.0070  0.2123 -0.7302
28929SOL    HW291635   5.650   3.809   4.981  0.8196 -1.6577 -2.0487
28930SOL     OW91636   3.552   7.044   8.478  0.8422 -0.3602 -0.6761
28930SOL    HW191637   3.483   7.051   8.544  1.9074  1.0019  0.3334
28930SOL    HW291638   3.615   7.112   8.501  1.8422 -0.6390 -2.4056
28931SOL     OW91639   4.669   2.370   2.713  0.2413  0.2829 -0.0944
28931SOL    HW191640   4.759   2.376   2.681 -0.3954  0.0564 -2.1278
28931SOL    HW291641   4.621   2.435   2.661 -0.8482  0.1207  0.6696
28932SOL     OW91642   2.998   5.371   2.991 -0.3588 -0.1848 -0.4844
28932SOL    HW191643   3.063   5.329   3.047 -0.4696 -0.4784 -0.5786
28932SOL    HW291644   3.028   5.356   2.902  0.4617  1.3083 -0.4892
28933SOL     OW91645   6.190   0.353   8.375 -0.3075  0.1470  0.2210
28933SOL    HW191646   6.215   0.416   8.308  0.8916 -0.8598 -0.3029
28933SOL    HW291647   6.235   0.272   8.351 -1.6900 -0.8936  0.9547
28934SOL     OW91648   4.655   8.858   7.820  0.5244  0.3216 -0.3608
28934SOL    HW191649   4.585   8.840   7.884  0.2311 -0.2020 -0.8172
28934SOL    HW291650   4.690   8.943   7.846  0.7695 -0.1308  0.8233
28935SOL     OW91651   8.593   2.074   1.672  0.0637 -0.3185  0.5919
28935SOL    HW191652   8.556   2.158   1.647  1.3504  0.2452  0.5180
28935SOL    HW291653   8.518   2.023   1.704 -0.5915  1.1658  1.5094
28936SOL     OW91654   2.076   2.485   6.502  0.2268  0.6900 -0.1259
28936SOL    HW191655   2.040   2.419   6.562 -1.2171  1.4999 -0.0542
28936SOL    HW291656   2.161   2.508   6.540 -0.5425  0.9899  1.5013
28937SOL     OW91657   0.262   1.657   8.163 -0.2576  0.3381  0.4060
28937SOL    HW191658   0.336   1.628   8.217  0.1616 -0.9913 -0.8009
28937SOL    HW291659   0.185   1.647   8.219  0.2092 -0.6144  0.8997
28938SOL     OW91660   6.690   8.464   9.592 -0.5512 -0.4497  0.0054
28938SOL    HW191661   6.626   8.420   9.648 -0.2130  1.1843  1.7956
28938SOL    HW291662   6.773   8.422   9.612 -0.3703  0.3672  1.0699
28939SOL     OW91663   7.483   9.411   2.214  0.4735  0.5275  0.6272
28939SOL    HW191664   7.434   9.486   2.247  1.8721  1.5224  0.5268
28939SOL    HW291665   7.472   9.416   2.119 -0.3948 -0.1000  0.6829
28940SOL     OW91666   9.480   3.208   3.341 -0.4417  0.3401 -0.2996
28940SOL    HW191667   9.517   3.213   3.253  0.0271  1.4482 -0.0526
28940SOL    HW291668   9.512   3.124   3.376 -0.3076  0.0821 -1.0287
28941SOL     OW91669   3.613   9.376   0.562  0.5822 -0.0969 -0.5508
28941SOL    HW191670   3.620   9.460   0.517 -0.6442  0.9274  1.0339
28941SOL    HW291671   3.519   9.362   0.571  0.7868 -1.2373 -0.0719
28942SOL     OW91672   4.985   7.825   4.875 -0.1709 -0.2119 -0.0187
28942SOL    HW191673   5.049   7.854   4.941  0.0567 -0.7829  0.0247
28942SOL    HW291674   5.001   7.881   4.800  0.2271 -0.1900  0.0784
28943SOL     OW91675   8.713   8.121   5.146  0.1412 -0.3095  0.1339
28943SOL    HW191676   8.702   8.151   5.236 -1.8705 -0.9862  0.1598
28943SOL    HW291677   8.806   8.134   5.127  0.1434  2.0509  1.4922
28944SOL     OW91678   2.108   3.339   7.299  0.4374  0.1625 -0.7002
28944SOL    HW191679   2.163   3.261   7.304 -0.3257 -0.3288  0.3119
28944SOL    HW291680   2.018   3.306   7.307  0.0413  1.0593 -1.2250
28945SOL     OW91681   2.485   4.544   9.338 -0.1192  0.5469  0.3601
28945SOL    HW191682   2.573   4.570   9.311  1.4828 -0.4124  4.1365
28945SOL    HW291683   2.483   4.449   9.330 -1.1522  0.6140 -0.4627
28946SOL     OW91684   3.879   8.952   4.813  0.2080  0.1963 -0.8318
28946SOL    HW191685   3.911   8.903   4.889  1.1774  0.8274 -0.8142
28946SOL    HW291686   3.802   9.000   4.845  0.4608  0.2620 -0.3192
28947SOL     OW91687   1.900   7.746   0.141  0.1929 -0.2077  0.4444
28947SOL    HW191688   1.845   7.705   0.208 -1.9081 -1.5774 -1.9314
28947SOL    HW291689   1.954   7.675   0.107  1.1929  0.4562  0.5975
28948SOL     OW91690   3.049   0.501   2.955  0.3481 -0.5534 -0.6102
28948SOL    HW191691   3.067   0.570   2.890  0.0730  0.5760  0.4771
28948SOL    HW291692   3.055   0.546   3.039  1.9049 -2.2474  0.2432
28949SOL     OW91693   9.202   9.401   0.905 -0.1255  0.0279  0.3381
28949SOL    HW191694   9.165   9.436   0.986  0.9805  0.3469  0.7195
28949SOL    HW291695   9.208   9.476   0.846 -0.5266 -0.1187  0.1056
28950SOL     OW91696   2.259   0.037   3.476 -0.6469 -0.1128 -0.0832
28950SOL    HW191697   2.288  -0.023   3.545 -1.1712  0.2190  0.4379
28950SOL    HW291698   2.264   0.123   3.516  0.9058  0.3063 -1.0977
28951SOL     OW91699   1.758   1.529   4.352 -0.7005 -0.8690 -0.6710
28951SOL    HW191700   1.832   1.474   4.325 -0.3973 -2.2921  2.5764
28951SOL    HW291701   1.683   1.491   4.307 -0.0762 -2.2458 -0.6143
28952SOL     OW91702   3.902   6.623   7.558 -0.0323  0.4298  0.2143
28952SOL    HW191703   3.958   6.558   7.601  1.3894  0.1778 -1.8507
28952SOL    HW291704   3.937   6.707   7.586  2.0046  0.2927 -1.6032
28953SOL     OW91705   6.866   3.624   0.819  0.5008 -0.2347 -0.0160
28953SOL    HW191706   6.902   3.618   0.730 -0.4975  0.0358 -0.4599
28953SOL    HW291707   6.804   3.551   0.825  0.5986 -0.2816  0.4779
28954SOL     OW91708   0.575   0.961   2.440  0.3101 -0.1639  0.1932
28954SOL    HW191709   0.657   0.915   2.453  0.0047 -1.0275 -0.8219
28954SOL    HW291710   0.536   0.921   2.363 -0.3267  1.3003 -0.2932
28955SOL     OW91711   5.971   4.972   7.094 -0.0700  0.2498 -0.0141
28955SOL    HW191712   5.943   5.060   7.118  1.4021  0.7806 -0.1271
28955SOL    HW291713   6.023   4.985   7.015  0.3471 -0.7000  0.0924
28956SOL     OW91714   5.670   7.970   1.759  0.2706 -0.4334  0.3305
28956SOL    HW191715   5.681   8.021   1.839  0.4766 -0.5338  0.3675
28956SOL    HW291716   5.726   7.894   1.772  3.0808  1.1872 -1.3381
28957SOL     OW91717   3.310   2.694   3.036 -0.1064  0.2961  0.5218
28957SOL    HW191718   3.276   2.628   3.096  0.1544  0.2091  0.5739
28957SOL    HW291719   3.373   2.647   2.981 -0.9867  0.1677 -0.4159
28958SOL     OW91720   7.179   4.185   2.842  0.4329 -0.1375  0.2819
28958SOL    HW191721   7.160   4.236   2.921  0.2643 -0.5035  0.4744
28958SOL    HW291722   7.262   4.222   2.810 -0.0764  0.7889 -0.0174
28959SOL     OW91723   2.715   5.765   3.072 -0.1351 -0.8734 -0.3149
28959SOL    HW191724   2.789   5.733   3.020  0.2448 -0.7842  0.1623
28959SOL    HW291725   2.672   5.686   3.104 -0.8460 -0.9538 -1.3952
28960SOL     OW91726   0.610   5.280   9.652 -0.0009 -0.1783  0.4406
28960SOL    HW191727   0.683   5.316   9.601  0.2178 -0.3527  0.6316
28960SOL    HW291728   0.533   5.297   9.597 -0.0843  1.6759  1.0537
28961SOL     OW91729   7.474   9.453   1.942  0.5225 -0.1639 -0.2007
28961SOL    HW191730   7.395   9.505   1.926  0.0526  0.4554  3.3400
28961SOL    HW291731   7.546   9.513   1.923  0.0869  0.2461 -0.5817
28962SOL     OW91732   2.282   7.352   0.303  0.4500  0.4277 -0.3808
28962SOL    HW191733   2.227   7.306   0.367  0.0237  0.8782 -0.4224
28962SOL    HW291734   2.313   7.283   0.245 -1.3138  0.3463 -1.2921
28963SOL     OW91735   4.147   6.099   5.842  0.1867  0.1846 -0.1765
28963SOL    HW191736   4.137   6.026   5.780 -1.5911  0.5710 -0.4070
28963SOL    HW291737   4.070   6.092   5.899  0.7672  1.0199  0.7287
28964SOL     OW91738   8.263   9.622   1.246  0.0586  0.1818 -0.4755
28964SOL    HW191739   8.269   9.704   1.295 -1.9696 -0.1513  0.4394
28964SOL    HW291740   8.347   9.614   1.202  0.4076  2.6136 -0.3885
28965SOL     OW91741   6.421   9.259   7.926 -0.0862  0.8987  0.2442
28965SOL    HW191742   6.343   9.311   7.906 -0.7911 -0.7637 -1.7503
28965SOL    HW291743   6.415   9.241   8.020  0.0812  4.0902  0.9799
28966SOL     OW91744   3.552   9.480   7.196 -0.6440 -0.0202 -0.2598
28966SOL    HW191745   3.510   9.424   7.131 -0.0683 -0.0128 -0.6450
28966SOL    HW291746   3.646   9.473   7.177 -0.5075  0.3844  0.2431
28967SOL     OW91747   5.154   8.254   3.721 -0.3284  0.1526 -0.2427
28967SOL    HW191748   5.205   8.281   3.798 -1.7844  0.4346  0.6711
28967SOL    HW291749   5.214   8.266   3.647  2.2049 -3.0453  1.0566
28968SOL     OW91750   2.773   9.518   1.400 -0.4089 -0.0109  0.5283
28968SOL    HW191751   2.766   9.467   1.319  5.0677  0.5481 -0.7077
28968SOL    HW291752   2.737   9.604   1.377  0.4413 -0.0670 -1.2282
28969SOL     OW91753   7.040   1.551   9.321  0.1619  0.1306  0.4388
28969SOL    HW191754   7.024   1.462   9.291  1.0808 -0.5335  1.8310
28969SOL    HW291755   6.961   1.600   9.294 -0.2181 -1.0078 -0.6001
28970SOL     OW91756   0.406   5.398   7.408 -0.1220 -0.0372  0.2131
28970SOL    HW191757   0.485   5.364   7.450  0.8563 -0.6591 -1.9363
28970SOL    HW291758   0.424   5.389   7.314 -2.7898 -0.2481 -0.3539
28971SOL     OW91759   0.307   6.739   8.487 -0.3202  0.0631  0.2856
28971SOL    HW191760   0.252   6.787   8.426  0.4784  1.0666  0.3347
28971SOL    HW291761   0.267   6.652   8.491 -1.3128  0.4630 -0.4271
28972SOL     OW91762   1.478   7.342   3.695 -0.2300 -0.2426  0.4739
28972SOL    HW191763   1.523   7.417   3.657 -0.9615 -0.3310 -0.5922
28972SOL    HW291764   1.536   7.314   3.767  0.5987  0.6367  0.1774
28973SOL     OW91765   6.703   1.278   4.530  0.4533 -0.3280  0.3325
28973SOL    HW191766   6.743   1.328   4.602  1.3600  1.4150 -1.3028
28973SOL    HW291767   6.672   1.344   4.469 -1.1575 -1.7533 -0.4817
28974SOL     OW91768   2.949   6.663   4.288  0.3686  0.4676 -0.3581
28974SOL    HW191769   2.898   6.630   4.362 -1.7384  4.7751  0.4381
28974SOL    HW291770   2.910   6.622   4.211  0.1099 -1.2476  0.6360
28975SOL     OW91771   8.044   6.731   7.510  0.1041  0.0765  0.7845
28975SOL    HW191772   8.007   6.771   7.588  0.7834  0.2504  1.0248
28975SOL    HW291773   8.138   6.745   7.518  0.2910 -0.9556  0.5266
28976SOL     OW91774   5.470   7.079   4.656 -0.1893 -0.0001 -0.5880
28976SOL    HW191775   5.507   7.052   4.572  1.8597  1.0276 -0.0850
28976SOL    HW291776   5.543   7.076   4.717 -1.0919  1.4256  0.6627
28977SOL     OW91777   3.104   6.941   5.305 -0.0271  0.2065 -0.4906
28977SOL    HW191778   3.191   6.955   5.343 -0.8974  0.0996  1.7105
28977SOL    HW291779   3.044   6.947   5.379 -1.8486 -0.4713 -1.8187
28978SOL     OW91780   8.661   5.091   7.287 -0.7020  0.3160  0.3161
28978SOL    HW191781   8.671   5.184   7.268 -0.1332  0.3422  0.7058
28978SOL    HW291782   8.626   5.054   7.206  0.1180  0.6936 -0.2272
28979SOL     OW91783   8.187   3.570   7.855  0.4758 -0.1455  0.4947
28979SOL    HW191784   8.180   3.654   7.810  0.4530 -0.1392  0.5098
28979SOL    HW291785   8.223   3.592   7.941 -0.0077 -0.0897  0.6838
28980SOL     OW91786   5.875   2.839   9.594 -0.2997 -0.2460 -0.1790
28980SOL    HW191787   5.787   2.877   9.601 -0.2904 -0.3612  0.6384
28980SOL    HW291788   5.932   2.914   9.575 -0.3231  0.1302  1.1287
28981SOL     OW91789   6.795   3.866   5.868  0.0383  0.1563 -0.1331
28981SOL    HW191790   6.743   3.812   5.809 -0.0706 -1.3384  1.2539
28981SOL    HW291791   6.733   3.895   5.935  0.3913  0.8195 -0.0865
28982SOL     OW91792   3.829   5.338   3.904 -0.1637  0.2805 -0.1781
28982SOL    HW191793   3.804   5.248   3.882 -2.3460  0.5588  0.8772
28982SOL    HW291794   3.843   5.336   3.999  0.8516  0.8369 -0.3105
28983SOL     OW91795   5.969   0.155   4.182 -0.3141 -0.2326 -0.1321
28983SOL    HW191796   5.998   0.137   4.093 -1.6832  0.1572 -0.6928
28983SOL    HW291797   6.049   0.177   4.230  0.3902  0.0466 -1.3838
28984SOL     OW91798   4.687   2.493   9.442  0.1638 -0.1660 -0.4926
28984SOL    HW191799   4.654   2.406   9.463 -0.0515 -0.3390 -1.5309
28984SOL    HW291800   4.611   2.538   9.404 -0.5075  1.3490  2.3193
28985SOL     OW91801   1.452   0.183   5.564  0.1243 -0.3046  0.5627
28985SOL    HW191802   1.528   0.186   5.621 -0.0070 -0.5542  0.7547
28985SOL    HW291803   1.378   0.170   5.624  0.0996 -1.7690  0.2508
28986SOL     OW91804   9.504   5.631   1.923 -0.2104  0.1771 -0.3502
28986SOL    HW191805   9.433   5.574   1.895  0.7921 -0.7032 -1.2089
28986SOL    HW291806   9.547   5.658   1.842  1.5718 -0.8424  0.2071
28987SOL     OW91807   2.656   7.404   7.611  0.2180  0.1557 -0.3980
28987SOL    HW191808   2.623   7.488   7.643 -2.2793 -0.7886 -0.2068
28987SOL    HW291809   2.708   7.426   7.535 -0.7622  1.8732 -0.6301
28988SOL     OW91810   7.791   4.586   0.557  0.0216  0.1006 -0.0656
28988SOL    HW191811   7.785   4.653   0.626 -0.3577 -0.0634  0.0619
28988SOL    HW291812   7.761   4.506   0.599 -2.3979  0.4325 -1.0255
28989SOL     OW91813   9.206   6.184   9.119 -0.2191 -0.9287  0.2823
28989SOL    HW191814   9.229   6.250   9.184  1.0677 -2.5082  1.5229
28989SOL    HW291815   9.265   6.111   9.137 -0.9524 -2.0658 -1.6307
28990SOL     OW91816   9.029   6.625   0.901  0.2205 -0.2565  0.0396
28990SOL    HW191817   9.104   6.589   0.949  1.4651  2.1577  0.1049
28990SOL    HW291818   9.069   6.677   0.831 -1.2518  2.3401  0.9974
28991SOL     OW91819   3.720   1.649   2.239 -0.0108  0.1382 -0.1893
28991SOL    HW191820   3.674   1.605   2.167 -1.4511 -0.2783  0.9222
28991SOL    HW291821   3.812   1.629   2.224 -0.3055 -0.2673 -1.6915
28992SOL     OW91822   5.895   5.220   8.776 -0.1564  0.2881 -0.1827
28992SOL    HW191823   5.872   5.255   8.690  1.8345  1.1218 -0.4337
28992SOL    HW291824   5.991   5.214   8.775 -0.0571  0.5241  2.0333
28993SOL     OW91825   1.210   7.364   9.735  0.0167 -0.3830 -0.8789
28993SOL    HW191826   1.185   7.274   9.757 -2.9515 -0.2607 -3.2018
28993SOL    HW291827   1.243   7.358   9.645  2.4342  0.5279 -0.1285
28994SOL     OW91828   0.582   2.087   2.686  0.0853  0.3313  0.4745
28994SOL    HW191829   0.577   2.124   2.774 -0.5228 -0.4054  0.7611
28994SOL    HW291830   0.499   2.114   2.645  0.5810  1.1046 -0.0621
28995SOL     OW91831   3.409   7.592   0.064  0.1097  0.2970 -0.4678
28995SOL    HW191832   3.362   7.545  -0.005 -1.3675  0.4390  0.4074
28995SOL    HW291833   3.433   7.676   0.024 -1.6919  0.8281 -0.5332
28996SOL     OW91834   5.749   4.916   4.900 -0.3023  0.2548  0.1729
28996SOL    HW191835   5.800   4.836   4.918  0.0963  0.6310  0.7722
28996SOL    HW291836   5.692   4.892   4.827  1.2511  0.0296 -1.0281
28997SOL     OW91837   5.194   0.797   2.571  0.5504 -0.3309  0.3260
28997SOL    HW191838   5.129   0.729   2.552  1.0274 -0.3825 -1.2298
28997SOL    HW291839   5.211   0.838   2.487  2.5467 -0.3304  0.6862
28998SOL     OW91840   5.890   4.203   0.483 -0.4845 -0.5917  0.0565
28998SOL    HW191841   5.849   4.215   0.568 -0.1123 -0.2337  0.1913
28998SOL    HW291842   5.937   4.119   0.490  3.0485  1.2855  1.7062
28999SOL     OW91843   1.238   0.675   2.594 -0.1771 -0.8508  0.4493
28999SOL    HW191844   1.154   0.643   2.626 -0.2089 -2.0194 -0.7241
28999SOL    HW291845   1.275   0.601   2.545  0.0092  0.7101 -1.9321
29000SOL     OW91846   3.931   8.212   1.144 -0.5003 -0.2997 -0.4123
29000SOL    HW191847   3.986   8.136   1.127  0.3946  0.4623 -1.0377
29000SOL    HW291848   3.968   8.252   1.222  1.0316  1.2334 -1.8463
29001SOL     OW91849   8.181   6.942   6.954  0.6131 -0.6314  1.1924
29001SOL    HW191850   8.245   6.925   6.884 -0.1987  1.0965 -0.0432
29001SOL    HW291851   8.121   7.006   6.916 -0.5710 -0.5471  3.0969
29002SOL     OW91852   6.979   3.347   3.110 -0.6482  0.3218 -0.3067
29002SOL    HW191853   6.966   3.422   3.168  0.6582 -0.2092  0.7208
29002SOL    HW291854   7.007   3.385   3.026  0.0578  0.9963  0.2240
29003SOL     OW91855   2.189   2.930   9.282 -0.1807 -0.0518 -0.3241
29003SOL    HW191856   2.236   3.001   9.325  3.5179 -1.6264 -1.3088
29003SOL    HW291857   2.141   2.972   9.211  0.5330  1.6396  0.1549
29004SOL     OW91858   6.340   6.639   0.718 -0.1574 -0.8060 -0.0174
29004SOL    HW191859   6.397   6.665   0.646  1.0476 -1.5770  0.6250
29004SOL    HW291860   6.389   6.663   0.797 -1.6808  0.5296  0.5852
29005SOL     OW91861   4.696   8.381   6.084  0.4071 -0.0465  0.7575
29005SOL    HW191862   4.643   8.425   6.151 -0.7903 -2.5487  1.5900
29005SOL    HW291863   4.720   8.451   6.023 -1.7885  1.6631  1.6861
29006SOL     OW91864   1.225   5.677   5.750 -0.0560  0.5077  0.4176
29006SOL    HW191865   1.190   5.589   5.741  0.6232  0.3724 -1.3465
29006SOL    HW291866   1.208   5.701   5.841  0.4251 -1.7258  1.1500
29007SOL     OW91867   8.506   8.130   7.589  0.2864  0.1564 -0.7039
29007SOL    HW191868   8.494   8.213   7.636 -0.2413  0.6080 -1.6152
29007SOL    HW291869   8.464   8.144   7.504 -0.3152 -1.2365 -0.6639
29008SOL     OW91870   5.212   7.953   6.129  0.5597 -0.2437 -0.3853
29008SOL    HW191871   5.152   7.931   6.058  0.3229 -1.9222  0.2823
29008SOL    HW291872   5.163   8.012   6.186  0.1045 -0.3451 -0.6733
29009SOL     OW91873   8.621   2.147   6.272  0.1253 -0.2492 -0.0389
29009SOL    HW191874   8.681   2.220   6.290 -0.1819  0.1423 -0.5728
29009SOL    HW291875   8.678   2.076   6.243  0.6360 -0.8597  2.2097
29010SOL     OW91876   2.741   3.229   1.406 -0.7210 -0.1059 -0.1437
29010SOL    HW191877   2.733   3.265   1.494  0.3689 -0.8752  0.3003
29010SOL    HW291878   2.817   3.273   1.369 -0.0202 -1.1475  0.0191
29011SOL     OW91879   4.743   1.425   2.428  0.6159 -0.6461 -0.5389
29011SOL    HW191880   4.801   1.468   2.490  2.2495  0.9776 -3.0010
29011SOL    HW291881   4.655   1.458   2.450  1.3130  0.8603  0.1009
29012SOL     OW91882   8.303   6.873   2.784  0.2794 -0.2666  0.0155
29012SOL    HW191883   8.398   6.873   2.767  0.5386  0.3311  1.3619
29012SOL    HW291884   8.265   6.845   2.701  1.5978  0.1379 -0.7700
29013SOL     OW91885   3.294   2.285   6.807 -0.3163  0.0840 -0.2992
29013SOL    HW191886   3.251   2.213   6.760 -0.5751 -0.0208  0.0980
29013SOL    HW291887   3.266   2.275   6.898  1.4493 -0.6922  0.2002
29014SOL     OW91888   3.700   5.461   8.788  0.3297  0.0717 -0.4228
29014SOL    HW191889   3.650   5.509   8.855  1.2053 -0.3349  0.5424
29014SOL    HW291890   3.649   5.472   8.708 -2.2711 -1.7342  0.8325
29015SOL     OW91891   2.114   0.649   8.688  0.5538  0.1916  0.1443
29015SOL    HW191892   2.169   0.690   8.622  1.0121 -0.8238 -0.1184
29015SOL    HW291893   2.065   0.581   8.640  0.5849 -0.2773  0.7579
29016SOL     OW91894   2.028   9.189   0.023 -0.2484  0.5800  0.9752
29016SOL    HW191895   1.944   9.187  -0.023  0.9427  1.2281 -1.3651
29016SOL    HW291896   2.028   9.273   0.069 -0.9006  0.5305  1.0810
29017SOL     OW91897   5.338   5.863   1.268  0.2876 -0.2609  0.1874
29017SOL    HW191898   5.411   5.802   1.282 -0.2383 -0.7611  0.8277
29017SOL    HW291899   5.379   5.944   1.238  1.2391 -0.1253  1.7438
29018SOL     OW91900   9.624   9.201   9.303  0.8744  0.2011  0.3925
29018SOL    HW191901   9.616   9.111   9.270  0.9465 -0.5203  2.2187
29018SOL    HW291902   9.696   9.239   9.252  0.4018 -0.5347 -0.8776
29019SOL     OW91903   5.915   1.693   8.757  0.6436 -0.2890 -0.0607
29019SOL    HW191904   5.885   1.603   8.755 -0.4500  0.0636 -1.4367
29019SOL    HW291905   5.849   1.739   8.810  0.5094 -0.0853 -0.4016
29020SOL     OW91906   7.869   1.578   3.782 -0.3199  0.0990 -0.1194
29020SOL    HW191907   7.785   1.602   3.820  0.0491  0.1945  0.6461
29020SOL    HW291908   7.885   1.489   3.812  0.3124  0.4350  0.5529
29021SOL     OW91909   2.923   0.062   0.117 -0.0314  0.3058  0.0309
29021SOL    HW191910   2.967   0.004   0.178  0.9015  1.0903  0.1121
29021SOL    HW291911   2.844   0.014   0.091 -0.5289  0.0167  1.9386
29022SOL     OW91912   2.988   5.589   1.269  0.5847 -0.3580  0.2427
29022SOL    HW191913   2.999   5.638   1.187  0.2253 -0.9030 -0.1352
29022SOL    HW291914   2.902   5.616   1.301 -0.1830 -1.6881 -0.6259
29023SOL     OW91915   1.925   8.648   5.031  0.2531 -0.6464 -0.3112
29023SOL    HW191916   1.913   8.656   5.126 -0.7380 -1.2422 -0.3787
29023SOL    HW291917   1.992   8.714   5.010 -0.2554  0.2061  0.6435
29024SOL     OW91918   2.567   4.276   7.225  0.2445 -0.0404 -0.1545
29024SOL    HW191919   2.604   4.237   7.146  2.0579 -0.7167  0.9477
29024SOL    HW291920   2.641   4.318   7.268 -0.5600 -0.1933  1.4681
29025SOL     OW91921   4.792   7.825   1.069  0.2198 -0.6377  0.0871
29025SOL    HW191922   4.707   7.838   1.110 -0.1042 -2.2816  0.0182
29025SOL    HW291923   4.854   7.832   1.142  0.2772  2.3248 -0.1195
29026SOL     OW91924   1.026   1.210   3.796  0.1263 -0.3768 -0.4247
29026SOL    HW191925   0.975   1.276   3.749 -0.2036 -0.0153  0.4086
29026SOL    HW291926   1.112   1.211   3.754 -0.0620  0.1523 -0.8081
29027SOL     OW91927   1.443   7.360   5.472  0.0137  0.4084  0.1963
29027SOL    HW191928   1.468   7.338   5.382 -1.0676  0.9038 -0.2391
29027SOL    HW291929   1.445   7.277   5.518  1.7887  0.3208  0.0322
29028SOL     OW91930   7.830   4.184   4.107  0.5900 -0.1015 -0.5614
29028SOL    HW191931   7.870   4.215   4.026  1.3644 -3.5892 -1.6612
29028SOL    HW291932   7.744   4.150   4.080 -0.1375  0.7664  0.5463
29029SOL     OW91933   7.707   6.579   0.821  0.7547  0.1797  0.2221
29029SOL    HW191934   7.709   6.642   0.893 -1.4608  0.6719 -0.0891
29029SOL    HW291935   7.701   6.494   0.864  1.0302  0.3537  0.6118
29030SOL     OW91936   2.739   6.859   8.217 -0.1060 -0.0898 -0.3195
29030SOL    HW191937   2.708   6.949   8.209  1.8799  0.6146 -0.6239
29030SOL    HW291938   2.735   6.824   8.129  0.2244  0.0974 -0.4105
29031SOL     OW91939   0.721   4.307   2.968  0.0910  0.0602 -0.3871
29031SOL    HW191940   0.755   4.219   2.953 -1.1076 -0.7271  1.1386
29031SOL    HW291941   0.673   4.328   2.888  1.0523 -0.3295 -1.0814
29032SOL     OW91942   9.054   4.143   7.357 -0.2211  0.4504 -0.2112
29032SOL    HW191943   8.960   4.125   7.350  0.1124 -1.8365  0.5460
29032SOL    HW291944   9.091   4.111   7.275  0.0783 -0.0744  0.1237
29033SOL     OW91945   3.801   2.875   0.774  0.7681  0.3227  0.0906
29033SOL    HW191946   3.724   2.826   0.745  2.0608 -0.7099 -1.7875
29033SOL    HW291947   3.859   2.808   0.811  1.7394  0.6911 -0.7194
29034SOL     OW91948   4.756   9.651   4.419 -0.0144  0.0168 -0.2887
29034SOL    HW191949   4.691   9.719   4.399 -0.9140 -0.9111 -0.6449
29034SOL    HW291950   4.824   9.662   4.352  0.1989  0.9869  0.0708
29035SOL     OW91951   5.081   8.558   6.039 -0.2634 -1.0891  0.5628
29035SOL    HW191952   5.061   8.478   5.991  0.0943 -1.9913  1.8447
29035SOL    HW291953   5.175   8.571   6.025 -0.5742 -0.0804 -0.7790
29036SOL     OW91954   5.808   3.299   5.799  0.0977 -0.1468 -0.2709
29036SOL    HW191955   5.768   3.301   5.886 -0.2046  0.4255 -0.4224
29036SOL    HW291956   5.847   3.386   5.788 -0.9799  0.2448 -1.2278
29037SOL     OW91957   5.240   9.553   8.544  0.6562 -0.3653  0.5444
29037SOL    HW191958   5.299   9.617   8.504 -1.3921  0.9969 -0.4625
29037SOL    HW291959   5.266   9.470   8.504  2.4844  0.0063  0.8591
29038SOL     OW91960   4.932   4.791   1.772 -0.5185 -0.7812 -0.1900
29038SOL    HW191961   4.908   4.744   1.852  0.6831 -0.7562  0.1941
29038SOL    HW291962   4.907   4.882   1.790 -0.7388 -0.8661 -0.0570
29039SOL     OW91963   8.531   9.438   2.839 -0.2215  0.7538 -0.3346
29039SOL    HW191964   8.558   9.514   2.892  0.4703  0.9477 -0.9505
29039SOL    HW291965   8.446   9.414   2.874 -0.4506  1.8213 -0.1221
29040SOL     OW91966   7.419   4.318   7.332 -0.3094  0.2465  0.0302
29040SOL    HW191967   7.470   4.250   7.376 -0.6389  0.1208  0.2180
29040SOL    HW291968   7.331   4.282   7.326 -0.8095  1.1859  1.3259
29041SOL     OW91969   6.253   2.074   8.156 -0.2267  0.1708 -0.2528
29041SOL    HW191970   6.277   2.008   8.221 -1.5520 -0.0402  0.0570
29041SOL    HW291971   6.330   2.130   8.148  0.3556 -0.4854  0.6493
29042SOL     OW91972   7.007   6.722   3.593  0.6215  0.0249  0.2912
29042SOL    HW191973   6.977   6.753   3.678  0.3432 -1.2353  0.6693
29042SOL    HW291974   7.096   6.691   3.609  0.9702  0.7615 -0.1303
29043SOL     OW91975   8.078   0.841   4.028  0.2961 -0.3604 -0.9112
29043SOL    HW191976   8.142   0.810   4.092  1.2378 -1.9071 -2.5063
29043SOL    HW291977   8.094   0.787   3.950 -2.5155 -0.3630 -1.5986
29044SOL     OW91978   6.100   5.063   6.846  0.2206  0.1170 -0.2879
29044SOL    HW191979   6.158   5.119   6.898 -0.1004  0.4426 -0.2745
29044SOL    HW291980   6.159   5.012   6.792  0.5663 -0.3103  0.4785
29045SOL     OW91981   7.514   2.830   5.617  0.4444 -0.6837  0.6381
29045SOL    HW191982   7.476   2.820   5.530 -0.3872 -0.3043  0.9451
29045SOL    HW291983   7.439   2.830   5.676  0.7547  1.4805  1.1421
29046SOL     OW91984   3.536   0.383   4.875 -0.2446 -0.3932  0.6260
29046SOL    HW191985   3.491   0.415   4.954 -1.4907 -1.4198  0.3622
29046SOL    HW291986   3.485   0.306   4.848  1.0825 -0.9742 -0.3006
29047SOL     OW91987   6.680   4.768   5.474 -0.0986 -0.4128 -0.0082
29047SOL    HW191988   6.717   4.853   5.495  1.4423 -0.9903 -0.2263
29047SOL    HW291989   6.665   4.770   5.380  0.3091 -0.4974 -0.0796
29048SOL     OW91990   5.570   2.955   7.006 -0.4841  0.0640 -0.0266
29048SOL    HW191991   5.488   2.983   7.047 -1.4842 -1.4768 -0.8830
29048SOL    HW291992   5.599   3.030   6.955 -3.1961 -0.3548 -2.4662
29049SOL     OW91993   8.890   8.224   6.647  0.0953 -0.8643  0.3979
29049SOL    HW191994   8.917   8.279   6.721  0.9088  0.6821 -0.9956
29049SOL    HW291995   8.800   8.249   6.630  0.4551  0.0671 -0.2152
29050SOL     OW91996   2.367   2.959   3.837 -0.0269  0.3667  0.2260
29050SOL    HW191997   2.327   2.871   3.838  0.2897  0.2102  1.4703
29050SOL    HW291998   2.362   2.987   3.746 -0.8855 -0.6062 -0.0466
29051SOL     OW91999   9.279   0.081   3.549  0.0640  0.4256  0.2404
29051SOL    HW192000   9.321   0.111   3.631  0.9406  0.8494 -0.3451
29051SOL    HW292001   9.294  -0.013   3.548  1.4440  0.6219 -0.1705
29052SOL     OW92002   7.267   8.626   7.611  0.1798 -0.0702 -0.3653
29052SOL    HW192003   7.242   8.541   7.575 -1.4946  0.3101 -0.1634
29052SOL    HW292004   7.336   8.605   7.674 -1.3537 -1.5443  0.9465
29053SOL     OW92005   3.921   9.247   0.422 -0.8931  0.1172 -0.7149
29053SOL    HW192006   4.005   9.217   0.388 -1.3759 -1.9822 -0.1590
29053SOL    HW292007   3.942   9.284   0.508 -0.1408  2.5449 -1.8375
29054SOL     OW92008   2.269   7.963   0.856 -0.5447 -0.1194  0.1505
29054SOL    HW192009   2.224   8.047   0.849  2.0445  1.4931  1.3795
29054SOL    HW292010   2.338   7.978   0.920 -0.4400 -3.4511  1.0075
29055SOL     OW92011   7.380   1.654   8.920 -0.2407 -0.0666  0.1309
29055SOL    HW192012   7.312   1.610   8.869 -1.6740  1.3017  0.7946
29055SOL    HW292013   7.334   1.694   8.993  1.2668  1.0309  0.5319
29056SOL     OW92014   2.860   6.433   5.851 -0.2160  0.0694  0.5436
29056SOL    HW192015   2.872   6.374   5.778  0.4414 -0.5131  1.1144
29056SOL    HW292016   2.920   6.506   5.834  0.4636 -0.4082  0.8520
29057SOL     OW92017   7.140   0.161   3.870  0.0197  0.1775  0.4905
29057SOL    HW192018   7.185   0.203   3.796  2.1941 -3.2605 -0.3233
29057SOL    HW292019   7.086   0.093   3.829 -1.6890  0.6165  1.8920
29058SOL     OW92020   1.330   7.003   1.037  0.4314  0.0330  0.0040
29058SOL    HW192021   1.330   6.970   0.947 -2.4639  3.0426 -1.3404
29058SOL    HW292022   1.256   6.959   1.078 -0.1247  0.8219 -0.1153
29059SOL     OW92023   6.645   9.242   4.670 -0.2837  0.1266 -0.7325
29059SOL    HW192024   6.578   9.260   4.603 -0.0432  1.1619 -0.7117
29059SOL    HW292025   6.656   9.326   4.716  0.6885 -0.1572 -0.4285
29060SOL     OW92026   0.512   1.502   9.187  0.4816 -0.3290 -0.2963
29060SOL    HW192027   0.489   1.571   9.125 -0.2085  1.0439  1.3945
29060SOL    HW292028   0.605   1.486   9.172  0.2818 -0.1669 -1.7922
29061SOL     OW92029   8.550   6.189   2.973 -0.2489 -0.8751 -0.5253
29061SOL    HW192030   8.591   6.263   3.019 -4.0424 -0.6193  2.9899
29061SOL    HW292031   8.488   6.229   2.913 -0.2581 -1.2378 -0.7597
29062SOL     OW92032   7.232   6.140   4.508 -0.2999  0.5653  0.5037
29062SOL    HW192033   7.175   6.205   4.551 -1.3599  0.7236 -1.0429
29062SOL    HW292034   7.239   6.069   4.571 -0.7118  1.3456  1.4629
29063SOL     OW92035   8.640   2.757   7.100 -0.0946 -0.0671  0.2843
29063SOL    HW192036   8.622   2.727   7.190  2.6671  1.2509  1.4109
29063SOL    HW292037   8.708   2.698   7.068  0.4627  0.7499 -0.0910
29064SOL     OW92038   2.731   0.161   6.060  0.1088 -0.1005  0.4594
29064SOL    HW192039   2.644   0.201   6.057  0.6155  1.4694  3.2493
29064SOL    HW292040   2.785   0.215   6.003 -0.2770  0.2786  0.4473
29065SOL     OW92041   9.442   2.068   6.191 -0.2560 -0.1205 -0.1120
29065SOL    HW192042   9.479   2.056   6.278  0.5223  0.5066 -0.3398
29065SOL    HW292043   9.480   2.150   6.160  1.1880 -1.3805 -1.8822
29066SOL     OW92044   8.918   4.288   0.334  0.5501  0.7316  0.6758
29066SOL    HW192045   8.890   4.200   0.308  2.4551 -0.0436  1.1042
29066SOL    HW292046   8.843   4.343   0.313 -1.3691 -1.2106  1.9639
29067SOL     OW92047   8.191   4.978   0.909  0.3515  0.2971 -0.1350
29067SOL    HW192048   8.262   4.935   0.861 -0.2947 -2.9212  1.4756
29067SOL    HW292049   8.213   4.965   1.001 -1.1831  1.3385  0.4318
29068SOL     OW92050   1.214   4.816   9.243  0.2986 -0.0375  0.1188
29068SOL    HW192051   1.214   4.814   9.339 -1.8278 -1.7389  0.1668
29068SOL    HW292052   1.304   4.799   9.218  0.3992 -2.6580  1.8819
29069SOL     OW92053   9.491   4.457   9.568  0.1529 -0.1312  0.1176
29069SOL    HW192054   9.493   4.379   9.623 -1.7573 -2.3196 -2.6342
29069SOL    HW292055   9.466   4.528   9.628  0.0032 -1.9738  2.3639
29070SOL     OW92056   0.826   1.729   3.337  0.0480 -0.3520  0.3557
29070SOL    HW192057   0.751   1.780   3.368  0.9644  1.4421 -0.2120
29070SOL    HW292058   0.817   1.644   3.380 -1.8097  0.1158  0.9870
29071SOL     OW92059   9.216   7.908   9.131  0.5460 -0.2396 -0.2437
29071SOL    HW192060   9.148   7.851   9.096 -0.5925  0.5122  0.6871
29071SOL    HW292061   9.185   7.997   9.112  1.9486  0.1061 -1.0462
29072SOL     OW92062   1.132   6.269   3.712  0.6324 -0.2227  0.1391
29072SOL    HW192063   1.056   6.325   3.698  0.3142 -0.7909 -0.4529
29072SOL    HW292064   1.203   6.330   3.731  0.3822  0.4310 -0.8995
29073SOL     OW92065   1.039   3.231   6.691  0.5596 -0.5654 -0.1303
29073SOL    HW192066   0.945   3.219   6.707  0.2249  0.3638 -1.2612
29073SOL    HW292067   1.043   3.280   6.609  1.8829  2.9508  1.8161
29074SOL     OW92068   5.229   1.835   1.270 -0.1376 -0.0572 -0.4160
29074SOL    HW192069   5.291   1.773   1.232  0.1103  0.9967 -1.7727
29074SOL    HW292070   5.244   1.917   1.224 -1.9215  0.4657 -0.1482
29075SOL     OW92071   4.643   9.167   0.062  0.0113 -0.1953  0.7150
29075SOL    HW192072   4.723   9.189   0.109  0.0253 -0.5904  0.8756
29075SOL    HW292073   4.602   9.252   0.043  0.4572  0.0046  0.6479
29076SOL     OW92074   4.516   4.427   8.930 -0.2989  0.3764  0.3466
29076SOL    HW192075   4.556   4.383   8.855 -0.6976 -0.0359  0.3705
29076SOL    HW292076   4.436   4.467   8.896  1.1012  2.9509 -0.1667
29077SOL     OW92077   5.841   2.478   7.739 -0.2921  0.1917  0.1730
29077SOL    HW192078   5.882   2.510   7.819 -1.7266 -0.8079  1.3441
29077SOL    HW292079   5.764   2.429   7.768  0.4785 -2.3331 -1.6573
29078SOL     OW92080   5.407   2.032   5.213 -0.3358 -0.3377 -0.0614
29078SOL    HW192081   5.390   2.123   5.189  0.3061  0.1039  1.0725
29078SOL    HW292082   5.494   2.013   5.177 -0.1306 -0.2396  0.3729
29079SOL     OW92083   0.230   8.672   2.312 -0.1747 -0.3597 -0.1903
29079SOL    HW192084   0.156   8.732   2.309 -0.2864 -0.5080 -0.4329
29079SOL    HW292085   0.274   8.682   2.228  0.3664  0.0792  0.1336
29080SOL     OW92086   7.629   7.769   3.278 -0.1458 -0.3528  0.2768
29080SOL    HW192087   7.637   7.861   3.303  1.0225 -0.1621 -0.7017
29080SOL    HW292088   7.712   7.730   3.304  0.2746 -0.6088 -1.3165
29081SOL     OW92089   8.909   5.601   6.249 -0.0752  0.4902 -0.1506
29081SOL    HW192090   8.911   5.636   6.160 -0.6722  1.1456  0.0912
29081SOL    HW292091   8.956   5.517   6.242  1.6400  1.4356 -0.6832
29082SOL     OW92092   1.992   6.699   4.593 -0.0743 -0.4895 -0.2685
29082SOL    HW192093   1.980   6.608   4.621  0.6765 -0.2248  1.0096
29082SOL    HW292094   1.907   6.725   4.557 -0.1011 -1.9027 -1.3009
29083SOL     OW92095   1.578   1.955   8.551  0.3645  1.3768  0.7935
29083SOL    HW192096   1.671   1.975   8.538  0.1024  1.8209 -0.6370
29083SOL    HW292097   1.533   2.028   8.509 -0.6263 -0.4359 -1.5348
29084SOL     OW92098   5.195   4.993   4.199 -0.1755  0.0168 -0.0097
29084SOL    HW192099   5.190   4.919   4.259  0.5346 -0.1456 -0.1367
29084SOL    HW292100   5.108   4.999   4.160 -1.0503  0.9610  1.9881
29085SOL     OW92101   8.733   8.044   3.411 -0.3909  0.6872 -0.5516
29085SOL    HW192102   8.805   8.031   3.473 -1.3698  0.1012  0.4866
29085SOL    HW292103   8.754   7.984   3.338 -0.5387 -0.5504  0.3883
29086SOL     OW92104   2.051   1.037   6.862 -0.4883  0.1345  0.4823
29086SOL    HW192105   2.013   0.967   6.915 -0.2326  1.6789  2.8839
29086SOL    HW292106   1.976   1.080   6.821 -0.6135 -1.7913 -1.5195
29087SOL     OW92107   1.075   3.817   0.013 -0.1922  0.1345  0.1231
29087SOL    HW192108   1.024   3.778  -0.058  1.9092 -0.2914 -1.2457
29087SOL    HW292109   1.077   3.749   0.080 -0.2862 -0.3791 -0.3768
29088SOL     OW92110   3.775   7.343   7.880  0.1117  0.0036  1.0514
29088SOL    HW192111   3.727   7.421   7.852  0.5712  0.2772  1.0148
29088SOL    HW292112   3.752   7.275   7.817  1.9995  0.8916 -0.7220
29089SOL     OW92113   6.140   7.745   1.407 -0.5230 -0.3049  0.7035
29089SOL    HW192114   6.172   7.781   1.324 -1.4476  0.2306  0.5682
29089SOL    HW292115   6.188   7.663   1.418  0.4118  0.1633  0.1874
29090SOL     OW92116   0.220   8.934   8.136  0.1424 -0.0402  0.2040
29090SOL    HW192117   0.260   8.971   8.057  0.2909  1.6612  1.0282
29090SOL    HW292118   0.138   8.982   8.145  0.9311  1.0688  2.0066
29091SOL     OW92119   3.457   5.948   9.675 -0.3280  0.0455  0.2163
29091SOL    HW192120   3.538   5.998   9.687  0.2927 -0.7608 -0.4584
29091SOL    HW292121   3.388   6.014   9.676  0.0481  0.5435  3.2009
29092SOL     OW92122   4.741   7.114   3.202  0.5957  0.5086 -0.2523
29092SOL    HW192123   4.670   7.081   3.147  1.0917 -1.2254  0.1043
29092SOL    HW292124   4.708   7.198   3.235 -1.7519 -0.7078  0.7593
29093SOL     OW92125   1.523   4.983   9.398  0.1416 -0.4445  0.2713
29093SOL    HW192126   1.558   4.910   9.449 -1.1524 -1.2157  0.0886
29093SOL    HW292127   1.459   5.024   9.455  0.3622  0.1225  0.1158
29094SOL     OW92128   0.293   1.677   7.314  0.5155  0.2125  0.0921
29094SOL    HW192129   0.352   1.610   7.279 -0.5747  0.0461 -1.5389
29094SOL    HW292130   0.341   1.715   7.388  3.0205  0.6212 -1.6052
29095SOL     OW92131   9.531   3.413   5.786  0.1415 -0.3127  0.1033
29095SOL    HW192132   9.522   3.330   5.739 -0.7687 -0.7757  1.0758
29095SOL    HW292133   9.624   3.416   5.811  0.0701 -1.3163  0.5483
29096SOL     OW92134   6.601   0.333   5.010 -0.4074 -0.2530 -0.1928
29096SOL    HW192135   6.543   0.326   5.086  0.7175 -1.0801  0.6274
29096SOL    HW292136   6.623   0.426   5.006  0.3774 -0.3497  1.1801
29097SOL     OW92137   3.322   7.560   0.935 -0.2743  0.0632  0.8776
29097SOL    HW192138   3.332   7.466   0.916 -2.0082 -0.0723  0.4714
29097SOL    HW292139   3.377   7.575   1.012  1.4343 -0.8852 -0.1040
29098SOL     OW92140   0.105   6.106   2.027  0.0638  0.0390 -0.3460
29098SOL    HW192141   0.046   6.105   1.952  0.0393 -1.6292 -0.3552
29098SOL    HW292142   0.165   6.178   2.011 -0.9185  0.6836 -1.1789
29099SOL     OW92143   2.282   4.654   0.946  0.6839 -0.5010 -0.5084
29099SOL    HW192144   2.359   4.707   0.930 -0.5980  2.0450  1.1021
29099SOL    HW292145   2.311   4.586   1.006  2.1904 -1.2761 -2.0174
29100SOL     OW92146   4.652   0.387   5.515 -0.2756  0.0041 -0.5178
29100SOL    HW192147   4.742   0.413   5.496 -0.9456  1.1760 -2.3253
29100SOL    HW292148   4.661   0.308   5.569  1.8297 -0.0790 -0.8996
29101SOL     OW92149   9.485   8.194   0.864  0.0073  0.6102 -0.1736
29101SOL    HW192150   9.532   8.277   0.869 -1.0345  1.1834  0.5135
29101SOL    HW292151   9.435   8.190   0.945  1.6627 -1.7251  0.8342
29102SOL     OW92152   5.334   2.817   7.441 -1.0470 -0.4334  0.1114
29102SOL    HW192153   5.365   2.728   7.459  0.3895  0.3829  2.0056
29102SOL    HW292154   5.288   2.810   7.358  0.7615 -2.5631 -0.8085
29103SOL     OW92155   1.902   6.861   8.849 -0.3274 -0.0749 -0.0249
29103SOL    HW192156   1.860   6.947   8.861  0.1589  0.2317 -0.4827
29103SOL    HW292157   1.877   6.812   8.927 -0.8414  0.3868  0.1146
29104SOL     OW92158   8.352   8.521   2.472  0.3152  0.3131 -0.2911
29104SOL    HW192159   8.445   8.496   2.474  0.4334  0.5505 -1.6390
29104SOL    HW292160   8.307   8.441   2.446  0.3285  0.5802 -1.1874
29105SOL     OW92161   7.611   1.578   3.866  0.1661  0.8082 -0.1831
29105SOL    HW192162   7.526   1.558   3.827  0.5548 -1.3440 -0.0427
29105SOL    HW292163   7.612   1.528   3.947  1.7176  0.4652 -0.3911
29106SOL     OW92164   9.427   7.444   7.618 -0.1878 -0.3164 -0.1591
29106SOL    HW192165   9.482   7.505   7.568  1.9357 -0.6199  1.6617
29106SOL    HW292166   9.339   7.482   7.614  0.4873  1.2255 -1.5869
29107SOL     OW92167   1.856   8.442   5.893 -0.0316  0.2717  0.0645
29107SOL    HW192168   1.936   8.426   5.943 -0.7406 -0.9759  0.8670
29107SOL    HW292169   1.865   8.389   5.814  0.4745  1.1488 -0.4884
29108SOL     OW92170   1.733   9.495   4.415 -0.5176 -0.3395 -0.0274
29108SOL    HW192171   1.790   9.424   4.385 -2.5743 -1.9610 -0.2916
29108SOL    HW292172   1.712   9.544   4.336  1.1298  0.8425  0.1930
29109SOL     OW92173   0.269   8.719   4.851  0.2537 -0.0950  0.0558
29109SOL    HW192174   0.287   8.773   4.774 -0.0142 -1.0361 -0.6864
29109SOL    HW292175   0.356   8.702   4.888  0.2428  2.3434  1.3984
29110SOL     OW92176   0.154   1.154   0.549  0.4399 -0.4781 -0.1292
29110SOL    HW192177   0.118   1.144   0.460 -1.0160  1.6150  0.1515
29110SOL    HW292178   0.078   1.174   0.603  1.4216 -0.9441  1.4638
29111SOL     OW92179   9.591   6.430   6.450  0.5159 -0.1074 -0.1365
29111SOL    HW192180   9.607   6.344   6.488  2.1470  1.2874  2.6706
29111SOL    HW292181   9.640   6.429   6.368  0.5663 -1.8015 -0.1288
29112SOL     OW92182   4.990   3.557   5.194  0.2829  0.9762 -0.3194
29112SOL    HW192183   4.982   3.620   5.122 -1.5499  1.6781  0.4264
29112SOL    HW292184   5.082   3.562   5.221  1.9728 -1.6976 -4.6095
29113SOL     OW92185   1.913   5.226   2.356  0.5144 -0.4780  0.1309
29113SOL    HW192186   2.000   5.186   2.361 -0.4042 -2.4944  1.6615
29113SOL    HW292187   1.895   5.257   2.444 -0.1748  0.2463 -0.2521
29114SOL     OW92188   9.302   4.701   7.095  1.0077 -0.4069 -0.0011
29114SOL    HW192189   9.228   4.645   7.119  0.4051  0.8053  1.0710
29114SOL    HW292190   9.367   4.640   7.059 -1.3431 -1.2540 -3.1870
29115SOL     OW92191   9.405   6.813   8.740 -0.5670  0.1942  0.5758
29115SOL    HW192192   9.365   6.744   8.793 -1.5980 -0.8912 -1.4741
29115SOL    HW292193   9.403   6.778   8.651  0.0895  2.3634 -0.3495
29116SOL     OW92194   0.685   6.944   8.097 -0.3686 -0.0170 -0.1915
29116SOL    HW192195   0.594   6.923   8.116 -1.2309  0.2329 -3.3583
29116SOL    HW292196   0.722   6.862   8.065  0.9511 -0.4139  2.1360
29117SOL     OW92197   0.570   2.466   7.250 -0.0387  0.0079  0.3414
29117SOL    HW192198   0.485   2.473   7.206 -0.7758  0.5675  1.7818
29117SOL    HW292199   0.562   2.521   7.328  0.9755 -1.4055  1.5233
29118SOL     OW92200   1.433   7.818   3.546  0.3396 -0.3266  0.0145
29118SOL    HW192201   1.374   7.872   3.494 -1.4764 -0.9851  1.3009
29118SOL    HW292202   1.505   7.877   3.569 -0.9110  1.1565  0.2617
29119SOL     OW92203   5.816   9.740   6.096 -0.5012 -0.2893  0.0565
29119SOL    HW192204   5.758   9.742   6.172 -0.5623 -0.9369  0.0282
29119SOL    HW292205   5.888   9.682   6.122  0.6453  1.2430  0.4510
29120SOL     OW92206   7.392   6.860   1.460  0.1853 -0.5119  0.7609
29120SOL    HW192207   7.458   6.914   1.504  0.3288 -0.3450  0.3488
29120SOL    HW292208   7.316   6.864   1.517 -0.1049  0.8577  0.3130
29121SOL     OW92209   8.991   0.587   8.544 -0.0467 -0.6284 -0.0168
29121SOL    HW192210   9.062   0.646   8.517 -1.1288  1.4958  1.4653
29121SOL    HW292211   8.954   0.557   8.461  2.2662 -1.4976 -0.8297
29122SOL     OW92212   6.677   4.631   5.925  0.3588 -0.4787 -0.5196
29122SOL    HW192213   6.653   4.645   6.017 -0.5928  1.5704 -1.0183
29122SOL    HW292214   6.593   4.616   5.881  0.5427  0.8250 -1.3750
29123SOL     OW92215   8.998   4.440   1.820 -0.2373 -0.3672  0.3540
29123SOL    HW192216   9.081   4.395   1.828 -0.4052 -1.4921 -2.7917
29123SOL    HW292217   9.020   4.533   1.821  1.0608 -0.6556 -0.3364
29124SOL     OW92218   2.995   8.091   2.878 -0.8582  0.1736 -0.0965
29124SOL    HW192219   2.967   8.000   2.875  2.0983 -0.8428  0.0529
29124SOL    HW292220   2.946   8.129   2.952 -0.9135 -1.7576  0.9243
29125SOL     OW92221   1.215   8.009   4.160 -0.1776 -0.1414 -0.0186
29125SOL    HW192222   1.190   8.056   4.080  1.1974  0.8817  0.1089
29125SOL    HW292223   1.135   8.009   4.213 -0.1637  2.4664  0.1347
29126SOL     OW92224   4.347   0.600   2.706  0.0987 -0.2581  0.0108
29126SOL    HW192225   4.299   0.658   2.648 -0.7146 -2.4497 -1.6712
29126SOL    HW292226   4.291   0.590   2.782 -2.3251 -2.7481 -1.9011
29127SOL     OW92227   7.735   0.733   0.796 -0.6418  0.4484 -0.5081
29127SOL    HW192228   7.696   0.669   0.736 -1.7487 -0.6621  1.2938
29127SOL    HW292229   7.778   0.796   0.739 -1.8748 -0.3823 -2.4720
29128SOL     OW92230   7.641   8.375   4.521  0.1903 -0.6784 -0.4048
29128SOL    HW192231   7.727   8.401   4.554 -0.3368  0.4871  0.0967
29128SOL    HW292232   7.650   8.281   4.503  1.5478 -0.5896 -0.3224
29129SOL     OW92233   9.571   1.808   3.972 -0.3854  0.1603 -0.0019
29129SOL    HW192234   9.564   1.827   4.066  0.9288 -0.7420  0.2983
29129SOL    HW292235   9.521   1.728   3.960 -1.9786  1.1717 -0.4123
29130SOL     OW92236   7.819   2.470   0.255  0.2480  0.0667  0.7244
29130SOL    HW192237   7.819   2.451   0.161  1.7479  1.4642  0.3934
29130SOL    HW292238   7.825   2.565   0.260 -1.3936  0.1484  2.2781
29131SOL     OW92239   4.881   9.248   3.616  0.2448 -0.0221 -0.1396
29131SOL    HW192240   4.915   9.160   3.632 -0.2922 -0.1173  0.5240
29131SOL    HW292241   4.916   9.301   3.687 -1.8225 -0.3578  1.1955
29132SOL     OW92242   7.560   3.511   4.959 -0.1661 -0.7795 -0.6761
29132SOL    HW192243   7.618   3.441   4.931  0.5553 -0.0938 -0.9235
29132SOL    HW292244   7.473   3.482   4.932 -0.4381 -3.1703  2.1886
29133SOL     OW92245   8.800   7.079   3.966 -0.1501  0.1978  0.8432
29133SOL    HW192246   8.896   7.071   3.965 -0.1465  0.0440  1.7410
29133SOL    HW292247   8.776   7.083   3.873  0.5335 -2.0572  0.5173
29134SOL     OW92248   4.438   8.700   9.700  0.3096 -0.4653  0.3752
29134SOL    HW192249   4.470   8.770   9.757  0.7909 -0.7550  0.4582
29134SOL    HW292250   4.500   8.629   9.712 -0.0608 -0.8329  0.1256
29135SOL     OW92251   5.264   2.266   6.954 -0.4775  0.2801 -0.3454
29135SOL    HW192252   5.359   2.266   6.956 -0.4660  1.3107  0.1429
29135SOL    HW292253   5.239   2.174   6.952  0.5133 -0.0427  0.8538
29136SOL     OW92254   0.808   2.645   7.317  0.5526 -0.9140 -0.3426
29136SOL    HW192255   0.717   2.618   7.319  0.6065 -1.1276 -0.6671
29136SOL    HW292256   0.814   2.706   7.243  0.3337  0.3557  0.6593
29137SOL     OW92257   2.559   9.621   6.338 -0.2589 -0.2393 -0.3672
29137SOL    HW192258   2.646   9.599   6.371  0.4100  1.4282 -0.9324
29137SOL    HW292259   2.517   9.669   6.409 -0.2547  0.0139 -0.5329
29138SOL     OW92260   5.492   9.006   9.180  0.0449  0.1480 -0.2736
29138SOL    HW192261   5.572   9.059   9.180  0.3924 -0.3775 -0.0068
29138SOL    HW292262   5.504   8.943   9.251 -0.8180  0.3749  0.0871
29139SOL     OW92263   5.088   5.567   5.515 -0.4695 -0.8125 -0.1594
29139SOL    HW192264   5.085   5.479   5.479  0.3859 -1.8617  2.1395
29139SOL    HW292265   5.005   5.578   5.561 -0.7214 -0.2721 -0.7345
29140SOL     OW92266   6.963   0.780   0.675  0.4992  0.5120  0.2375
29140SOL    HW192267   6.906   0.807   0.746 -1.1964 -0.8480 -0.5532
29140SOL    HW292268   6.908   0.782   0.597  1.8076  0.1536 -0.7349
29141SOL     OW92269   1.089   3.511   8.198 -0.0232  0.6219  0.5483
29141SOL    HW192270   1.134   3.591   8.168 -2.6284  2.7111  1.7449
29141SOL    HW292271   1.065   3.466   8.118 -0.8302  2.5022 -0.3426
29142SOL     OW92272   0.062   9.102   0.642 -0.2567  0.7915 -0.5622
29142SOL    HW192273   0.154   9.082   0.660 -1.0576 -1.4727  1.5172
29142SOL    HW292274   0.051   9.192   0.674  0.9713  0.6846  0.2355
29143SOL     OW92275   5.725   7.460   0.182  0.0828  0.2886  0.2014
29143SOL    HW192276   5.641   7.500   0.203 -0.8681 -0.4489 -1.9591
29143SOL    HW292277   5.704   7.381   0.133  2.0154 -0.9869  1.2836
29144SOL     OW92278   0.745   8.265   7.798 -1.1305  0.2121  0.6622
29144SOL    HW192279   0.790   8.194   7.752 -0.4087  1.0475  0.0570
29144SOL    HW292280   0.652   8.241   7.793 -0.8193 -1.3658  1.6402
29145SOL     OW92281   3.148   6.819   6.204  0.2065  0.1230  0.2736
29145SOL    HW192282   3.180   6.852   6.120  0.2166  0.7072  0.4951
29145SOL    HW292283   3.181   6.883   6.268 -0.4610  0.1215  0.6325
29146SOL     OW92284   7.617   4.582   5.600 -0.0282 -0.2517  0.4783
29146SOL    HW192285   7.657   4.554   5.683  0.2017 -0.3296  0.3439
29146SOL    HW292286   7.678   4.646   5.564 -0.7767  0.7682  0.9970
29147SOL     OW92287   7.357   5.241   0.517 -0.0816 -0.2955  0.3941
29147SOL    HW192288   7.313   5.167   0.558  1.2374 -0.6905  1.1800
29147SOL    HW292289   7.447   5.237   0.551  0.5670  0.4623 -1.1349
29148SOL     OW92290   5.070   6.567   3.872 -0.3427 -0.3342 -0.0480
29148SOL    HW192291   5.016   6.550   3.949 -0.1415 -1.1703 -0.0806
29148SOL    HW292292   5.009   6.599   3.806 -0.7392 -0.8915  0.0443
29149SOL     OW92293   6.368   5.025   2.908  0.3661  0.2282  0.1819
29149SOL    HW192294   6.374   5.118   2.886  1.2961  0.2366  0.4364
29149SOL    HW292295   6.292   5.019   2.965  0.7716  0.9709  0.8181
29150SOL     OW92296   3.479   9.422   5.359 -0.2683 -0.4165  0.7382
29150SOL    HW192297   3.483   9.329   5.336 -0.9781 -0.1731 -0.4816
29150SOL    HW292298   3.430   9.425   5.441 -1.4001 -1.0364  0.1081
29151SOL     OW92299   0.160   8.631   6.062  0.1260  0.2841 -0.1848
29151SOL    HW192300   0.175   8.540   6.088 -1.0625 -0.2221 -1.1290
29151SOL    HW292301   0.186   8.683   6.138 -0.6441 -0.9532  0.9755
29152SOL     OW92302   3.879   4.830   1.640 -0.2458 -0.1220  0.5891
29152SOL    HW192303   3.826   4.907   1.620 -0.7820 -0.0882  2.0355
29152SOL    HW292304   3.833   4.786   1.711  0.3539 -1.4837  0.1757
29153SOL     OW92305   6.917   9.132   4.682  0.0134 -0.0257 -0.4227
29153SOL    HW192306   6.919   9.086   4.766 -0.3381 -0.7881 -0.8283
29153SOL    HW292307   6.837   9.185   4.686 -0.4811 -0.7305 -0.6111
29154SOL     OW92308   6.325   4.627   0.960 -0.6795  0.0167 -0.2934
29154SOL    HW192309   6.257   4.564   0.983  0.0463 -0.3159  1.0331
29154SOL    HW292310   6.285   4.713   0.975 -0.3755 -0.1723  2.0159
29155SOL     OW92311   8.271   6.157   6.897  0.1008  0.1050  0.1867
29155SOL    HW192312   8.345   6.211   6.868 -1.5539  0.8636 -3.0125
29155SOL    HW292313   8.305   6.067   6.893  1.1318  0.4927 -0.2999
29156SOL     OW92314   6.851   4.996   0.619  0.1156  0.3772 -0.3186
29156SOL    HW192315   6.811   5.070   0.665 -1.0940 -0.3647 -0.1206
29156SOL    HW292316   6.841   4.922   0.679 -2.4173 -0.8570 -2.0638
29157SOL     OW92317   7.215   7.725   7.672 -0.1181  0.0683 -0.0012
29157SOL    HW192318   7.169   7.808   7.666 -3.3233 -1.6303 -1.3558
29157SOL    HW292319   7.245   7.720   7.763 -1.7982  1.7367  0.6994
29158SOL     OW92320   9.299   9.331   2.861  0.4431  0.2558  0.1084
29158SOL    HW192321   9.325   9.417   2.893  1.6799 -0.0924  0.1214
29158SOL    HW292322   9.356   9.316   2.785 -1.4300  0.4547 -1.4228
29159SOL     OW92323   0.882   3.157   3.830 -0.6419  0.6284  0.6246
29159SOL    HW192324   0.882   3.251   3.851 -1.2656  0.6428  0.5624
29159SOL    HW292325   0.956   3.123   3.880 -0.7703  1.0527  1.1225
29160SOL     OW92326   6.624   2.708   2.247 -0.2599 -0.0730 -0.3097
29160SOL    HW192327   6.706   2.744   2.213  0.2573 -1.2430 -0.3721
29160SOL    HW292328   6.639   2.613   2.248 -1.3286 -0.2457  0.4337
29161SOL     OW92329   5.868   4.475   2.709 -0.0292 -0.0901  0.3607
29161SOL    HW192330   5.920   4.464   2.629 -0.2849  1.5176 -0.0679
29161SOL    HW292331   5.808   4.400   2.709 -0.0666 -0.0986 -1.0034
29162SOL     OW92332   4.583   1.724   1.967 -0.6162 -0.1387 -0.0780
29162SOL    HW192333   4.612   1.641   1.930 -4.1154 -1.5720  0.0418
29162SOL    HW292334   4.609   1.720   2.059  0.8567 -0.2483 -0.4835
29163SOL     OW92335   1.446   1.008   2.743 -0.6738  0.0996 -0.0102
29163SOL    HW192336   1.503   1.064   2.690 -0.8995 -0.6925 -1.1244
29163SOL    HW292337   1.364   1.004   2.694 -0.9720 -0.4626  0.5183
29164SOL     OW92338   3.729   6.178   9.369 -0.3878  0.4587  0.2977
29164SOL    HW192339   3.692   6.105   9.319  0.5237 -0.1413  0.4756
29164SOL    HW292340   3.722   6.150   9.460  0.2626  0.4475  0.3469
29165SOL     OW92341   0.263   4.415   3.668 -0.8580  0.6836 -0.4737
29165SOL    HW192342   0.189   4.388   3.613 -1.1405  1.5505 -0.5429
29165SOL    HW292343   0.229   4.488   3.720  0.0611  1.3979 -0.8294
29166SOL     OW92344   5.269   7.094   1.121 -0.5035 -0.7138 -0.2246
29166SOL    HW192345   5.272   6.998   1.122 -3.4399 -0.9907  2.9941
29166SOL    HW292346   5.177   7.115   1.141  0.3572  2.7761  0.7320
29167SOL     OW92347   8.334   1.324   4.514  0.1751  0.0346  0.2759
29167SOL    HW192348   8.315   1.304   4.606 -0.6110  1.8329  0.5678
29167SOL    HW292349   8.426   1.351   4.514  0.4039 -0.7257  0.3816
29168SOL     OW92350   4.261   8.339   1.929 -0.0416 -0.4958 -0.1145
29168SOL    HW192351   4.232   8.358   1.840 -0.9459 -2.8647 -0.3995
29168SOL    HW292352   4.347   8.297   1.918  0.2735  0.0388  0.2232
29169SOL     OW92353   8.225   1.138   9.528 -0.4286  0.0446  0.1296
29169SOL    HW192354   8.252   1.226   9.499 -1.4261 -0.1732 -1.6294
29169SOL    HW292355   8.302   1.104   9.574  0.0730  1.7255  0.6227
29170SOL     OW92356   5.692   5.071   0.245  0.3905 -0.3090 -0.1199
29170SOL    HW192357   5.681   4.978   0.262 -0.0377 -0.1097  0.7595
29170SOL    HW292358   5.603   5.103   0.228  0.5343 -0.0662 -0.4135
29171SOL     OW92359   7.881   6.930   3.778 -0.1060  0.6138 -0.2747
29171SOL    HW192360   7.813   6.997   3.763 -1.0183 -0.2577 -0.1569
29171SOL    HW292361   7.854   6.886   3.858  0.1206 -0.3162 -0.6890
29172SOL     OW92362   4.858   1.005   2.752  0.9256  0.5628  0.0136
29172SOL    HW192363   4.823   1.020   2.840 -0.7627 -0.5965 -0.4051
29172SOL    HW292364   4.820   1.074   2.698 -1.6205 -1.1834 -0.6173
29173SOL     OW92365   1.031   4.096   0.268  0.0607 -0.7118 -0.1252
29173SOL    HW192366   0.960   4.126   0.212  1.1167 -2.0151 -2.3233
29173SOL    HW292367   1.030   4.001   0.259 -0.1194 -1.0368  2.6665
29174SOL     OW92368   0.424   6.545   4.393  0.0740  0.0950  0.3260
29174SOL    HW192369   0.498   6.520   4.338  1.7386  0.8221  2.1091
29174SOL    HW292370   0.395   6.629   4.357  0.3886  0.0069 -0.1334
29175SOL     OW92371   3.937   0.349   5.333 -0.3833 -0.3241  0.1064
29175SOL    HW192372   3.993   0.372   5.259 -1.9136 -0.0036 -0.9943
29175SOL    HW292373   3.884   0.427   5.348 -0.7132 -0.7013  0.9663
29176SOL     OW92374   6.957   9.631   4.015 -0.2624  0.0132 -0.7187
29176SOL    HW192375   6.863   9.620   4.010 -0.1728 -0.9316 -0.5383
29176SOL    HW292376   6.981   9.673   3.933 -0.8229  0.1110 -0.8321
29177SOL     OW92377   2.415   5.371   9.740 -0.4734 -0.0310  0.0462
29177SOL    HW192378   2.499   5.404   9.774 -1.3256  2.0762  0.2971
29177SOL    HW292379   2.426   5.371   9.645  0.2144 -0.9763  0.1183
29178SOL     OW92380   2.626   6.977   6.568 -0.2288 -0.0918 -0.4426
29178SOL    HW192381   2.668   6.899   6.533  1.2415  0.5112 -0.1138
29178SOL    HW292382   2.672   7.050   6.527 -1.1870  0.6048 -0.3113
29179SOL     OW92383   1.001   1.544   4.749 -0.4375  0.0974 -0.2929
29179SOL    HW192384   0.935   1.502   4.804 -0.6974  0.1578 -0.5575
29179SOL    HW292385   1.021   1.626   4.795  0.9312 -0.8296  0.8454
29180SOL     OW92386   1.138   1.011   9.452  0.0346  0.0527 -0.2875
29180SOL    HW192387   1.052   1.052   9.460 -0.6633 -1.5387  0.8902
29180SOL    HW292388   1.173   1.011   9.541  0.7437 -0.3538 -0.5574
29181SOL     OW92389   5.524   6.470   3.133  0.6143 -0.3597  0.1744
29181SOL    HW192390   5.566   6.531   3.072 -1.8878  2.7156  1.2145
29181SOL    HW292391   5.563   6.491   3.218 -2.0088  1.8767  0.9868
29182SOL     OW92392   4.934   5.384   0.856  0.1301 -0.4564  0.4641
29182SOL    HW192393   4.912   5.291   0.867 -0.1928 -0.6556 -1.4334
29182SOL    HW292394   5.024   5.391   0.887  1.2582 -2.1310 -2.0547
29183SOL     OW92395   4.628   5.636   1.383  0.3158  0.6150 -0.1506
29183SOL    HW192396   4.689   5.639   1.457 -2.0595  2.2222  1.9209
29183SOL    HW292397   4.642   5.719   1.337  1.8900 -0.4445 -1.6945
29184SOL     OW92398   0.931   5.072   1.443  0.1276  0.1986  0.6125
29184SOL    HW192399   0.962   4.992   1.400  3.2746 -0.1331  3.0999
29184SOL    HW292400   0.839   5.053   1.464 -0.0849 -1.5109 -1.4414
29185SOL     OW92401   6.670   9.475   8.111 -0.2283 -0.5947 -0.0834
29185SOL    HW192402   6.751   9.488   8.062  0.4994  0.4197  1.3226
29185SOL    HW292403   6.606   9.451   8.045  1.1657 -1.2202 -1.2596
29186SOL     OW92404   4.456   7.456   0.247  0.1852 -0.3980 -0.1098
29186SOL    HW192405   4.492   7.385   0.193 -0.4496 -0.2279 -0.7672
29186SOL    HW292406   4.409   7.512   0.186  1.1540  0.9206  0.3086
29187SOL     OW92407   9.174   0.410   2.115 -0.2265  0.4164  0.1605
29187SOL    HW192408   9.215   0.351   2.052  0.3818  1.5465 -0.5309
29187SOL    HW292409   9.104   0.358   2.155  0.9696 -1.0982  0.3525
29188SOL     OW92410   7.180   3.397   6.216 -0.5045  0.6107  0.3634
29188SOL    HW192411   7.226   3.470   6.256  1.9016 -0.1479 -0.8146
29188SOL    HW292412   7.188   3.325   6.279 -0.5617  0.6391  0.4027
29189SOL     OW92413   2.560   8.329   1.958  0.4874 -0.0490  0.3753
29189SOL    HW192414   2.518   8.269   1.897 -0.6283  1.6460 -0.6053
29189SOL    HW292415   2.490   8.386   1.988  1.4883  0.7188  1.3235
29190SOL     OW92416   2.714   5.346   4.575  0.3147  0.1323 -0.1112
29190SOL    HW192417   2.725   5.384   4.488  0.3870 -0.6159 -0.4360
29190SOL    HW292418   2.780   5.277   4.579 -1.0480 -1.2286 -0.2713
29191SOL     OW92419   0.343   2.501   6.436  0.0014 -0.4964  0.5571
29191SOL    HW192420   0.402   2.427   6.451 -0.3326 -0.5923  1.4933
29191SOL    HW292421   0.376   2.569   6.495  1.4467  0.7984 -1.6318
29192SOL     OW92422   1.725   5.247   1.006  0.6117  0.0934 -0.3532
29192SOL    HW192423   1.723   5.332   1.050  1.5045 -0.4336  0.7668
29192SOL    HW292424   1.776   5.191   1.065 -0.9971 -1.5626 -0.4345
29193SOL     OW92425   8.076   6.515   2.582  0.0535 -0.5067  0.1367
29193SOL    HW192426   8.002   6.569   2.610  0.0888 -1.6743  2.8464
29193SOL    HW292427   8.039   6.455   2.518 -0.8616  0.2162 -0.0396
29194SOL     OW92428   8.661   7.901   2.544 -0.4551  0.3834  0.0076
29194SOL    HW192429   8.752   7.876   2.525 -0.5905  0.2231 -0.4606
29194SOL    HW292430   8.610   7.857   2.476 -1.1549 -1.4520  1.6292
29195SOL     OW92431   0.277   6.565   1.790  0.4657  0.3643 -0.2465
29195SOL    HW192432   0.293   6.480   1.830  1.2257 -0.3523 -1.9692
29195SOL    HW292433   0.206   6.549   1.727  2.3481  0.3002 -2.5036
29196SOL     OW92434   6.375   0.418   5.629 -0.1976  0.8179 -0.5845
29196SOL    HW192435   6.430   0.482   5.674  0.0326  0.9564 -1.0590
29196SOL    HW292436   6.436   0.361   5.583 -0.4082  0.3031 -0.2295
29197SOL     OW92437   8.955   5.382   4.156  0.1152  0.1676 -0.0272
29197SOL    HW192438   9.008   5.426   4.090 -1.0579  0.8152 -0.5623
29197SOL    HW292439   8.931   5.452   4.217  0.3048 -0.2236  0.5040
29198SOL     OW92440   3.818   1.779   5.446 -0.0335 -0.3706 -0.4791
29198SOL    HW192441   3.724   1.797   5.458  0.1275 -0.0466  0.3586
29198SOL    HW292442   3.823   1.732   5.363 -0.7203  1.5439 -1.6777
29199SOL     OW92443   2.547   1.884   4.096  0.4790 -0.4604 -0.2931
29199SOL    HW192444   2.574   1.916   4.182  1.0281 -0.6340 -0.3977
29199SOL    HW292445   2.586   1.797   4.090 -0.2151 -0.7790 -0.3961
29200SOL     OW92446   3.426   6.806   3.366  0.0254 -1.0761 -0.2612
29200SOL    HW192447   3.496   6.847   3.315  0.1115  0.6880  1.2025
29200SOL    HW292448   3.471   6.768   3.441 -0.6277  0.9897  1.2505
29201SOL     OW92449   1.916   6.140   0.012 -0.0595 -0.1345 -0.2470
29201SOL    HW192450   2.003   6.167   0.043  0.2297 -0.6271 -0.6083
29201SOL    HW292451   1.932   6.106  -0.076 -0.1064 -3.0031  0.7222
29202SOL     OW92452   3.684   1.993   6.274 -0.0877 -0.1896  0.3219
29202SOL    HW192453   3.616   2.059   6.280  0.2143  0.2203 -0.5548
29202SOL    HW292454   3.759   2.039   6.235 -0.5814 -1.5227 -2.4753
29203SOL     OW92455   5.143   0.169   4.601  0.0876  0.2428 -0.1654
29203SOL    HW192456   5.076   0.115   4.642 -0.0627 -0.8741 -1.7920
29203SOL    HW292457   5.136   0.254   4.645 -0.7666 -0.5590  1.3267
29204SOL     OW92458   2.353   2.329   7.407  0.3114 -0.2637  0.2780
29204SOL    HW192459   2.377   2.340   7.499  0.1280  3.6943  0.0132
29204SOL    HW292460   2.404   2.254   7.377 -0.1246 -2.1122  3.6992
29205SOL     OW92461   7.534   0.310   8.469 -0.0022 -0.0536  0.9364
29205SOL    HW192462   7.574   0.287   8.553 -0.4718 -0.5446  1.0358
29205SOL    HW292463   7.569   0.396   8.448  2.7009 -1.2814  0.0011
29206SOL     OW92464   3.109   8.708   4.472 -0.5180 -0.3846 -0.2989
29206SOL    HW192465   3.148   8.794   4.454 -0.7326 -0.3242 -0.4846
29206SOL    HW292466   3.181   8.646   4.458 -0.0994 -0.1722  0.7569
29207SOL     OW92467   2.266   4.833   3.064 -0.0511  0.1267 -0.0377
29207SOL    HW192468   2.195   4.853   3.125 -3.1171  0.3862 -3.3531
29207SOL    HW292469   2.321   4.911   3.065 -1.2720  1.0238  0.8258
29208SOL     OW92470   3.410   6.056   3.145 -0.9566  0.4292 -0.0753
29208SOL    HW192471   3.482   6.117   3.160 -1.5243  1.4246 -1.2616
29208SOL    HW292472   3.340   6.109   3.108 -1.1327 -1.1074 -2.1112
29209SOL     OW92473   7.366   6.521   1.775  0.7832 -0.5856 -0.0466
29209SOL    HW192474   7.348   6.437   1.817 -1.7536 -0.8021 -1.3536
29209SOL    HW292475   7.362   6.502   1.681 -1.0988  1.1330 -0.3838
29210SOL     OW92476   6.885   2.350   6.852 -0.3613 -1.0061  0.2521
29210SOL    HW192477   6.893   2.255   6.852 -1.5916 -1.1248  0.2380
29210SOL    HW292478   6.800   2.367   6.811  0.3449  0.1486 -0.8480
29211SOL     OW92479   7.431   3.498   6.030 -0.0272  0.2676  0.0275
29211SOL    HW192480   7.478   3.572   6.070 -2.5278  2.1384 -0.2738
29211SOL    HW292481   7.432   3.518   5.937  0.3821 -0.8201 -0.2177
29212SOL     OW92482   3.977   2.862   4.350  0.3846 -0.1347  0.1963
29212SOL    HW192483   3.998   2.798   4.282  4.5331  0.1621  0.9630
29212SOL    HW292484   3.994   2.947   4.309 -1.6585  0.3568  0.2652
29213SOL     OW92485   5.155   8.841   4.645  0.1735 -0.2030 -0.9287
29213SOL    HW192486   5.194   8.787   4.576  0.1234 -0.7745 -0.5161
29213SOL    HW292487   5.118   8.916   4.598  3.2239  1.2903 -1.1956
29214SOL     OW92488   3.105   1.659   9.443 -0.5093 -0.0677  0.0463
29214SOL    HW192489   3.010   1.657   9.428 -0.3082  0.1449 -1.3749
29214SOL    HW292490   3.138   1.725   9.382  0.5429 -0.0505  0.6116
29215SOL     OW92491   8.026   0.164   1.343  0.3250 -0.4599  0.1311
29215SOL    HW192492   8.120   0.163   1.364  0.4275  0.8004 -0.1882
29215SOL    HW292493   8.022   0.199   1.255 -0.4202 -1.2155 -0.1490
29216SOL     OW92494   2.334   1.481   6.897  0.1082  0.2985 -0.5086
29216SOL    HW192495   2.264   1.542   6.921  0.3123  0.4356 -0.2513
29216SOL    HW292496   2.288   1.401   6.872 -0.1072 -0.0713  0.9545
29217SOL     OW92497   6.566   5.557   6.408 -0.6014  0.3476 -0.1425
29217SOL    HW192498   6.520   5.640   6.415 -2.7883 -0.9019  1.4314
29217SOL    HW292499   6.620   5.552   6.486 -2.1483 -0.5809  0.9317
29218SOL     OW92500   1.598   3.445   5.313 -0.1186 -0.4139  0.1953
29218SOL    HW192501   1.644   3.381   5.367  0.3874 -0.8212 -0.6857
29218SOL    HW292502   1.611   3.528   5.359  1.0829 -0.6008  0.2443
29219SOL     OW92503   7.560   4.602   0.229  1.0761 -0.3240 -0.1910
29219SOL    HW192504   7.510   4.668   0.277 -3.9958 -2.5332 -1.7347
29219SOL    HW292505   7.575   4.532   0.292 -0.3244 -0.7652 -0.3171
29220SOL     OW92506   5.222   6.523   0.943 -0.0406  0.3556  0.0730
29220SOL    HW192507   5.303   6.567   0.918  1.8699 -1.8292  1.8702
29220SOL    HW292508   5.231   6.434   0.907 -0.4117 -0.6843  2.3673
29221SOL     OW92509   9.689   8.732   7.169 -0.0468 -0.2665  0.6998
29221SOL    HW192510   9.594   8.723   7.162 -0.2179  1.5440  0.1956
29221SOL    HW292511   9.720   8.732   7.078  0.6834 -2.6366  0.8837
29222SOL     OW92512   1.332   2.303   3.987  0.5278 -0.6084  0.3492
29222SOL    HW192513   1.338   2.212   3.959 -2.2301 -0.7151 -0.0930
29222SOL    HW292514   1.257   2.306   4.046  1.2844  1.1826  1.3076
29223SOL     OW92515   3.539   0.919   4.971 -0.0162  0.4669 -0.3325
29223SOL    HW192516   3.464   0.968   4.936 -0.3791 -0.6447 -1.1778
29223SOL    HW292517   3.522   0.828   4.944  0.4780 -0.1904  1.4485
29224SOL     OW92518   2.256   5.495   2.558 -0.4635  0.5798 -0.5077
29224SOL    HW192519   2.289   5.583   2.537 -1.6464  0.9971 -0.7158
29224SOL    HW292520   2.221   5.463   2.475 -1.7218  0.6802 -0.0369
29225SOL     OW92521   8.881   9.179   3.391  0.3612  0.1360 -0.7145
29225SOL    HW192522   8.910   9.238   3.460  0.8114  0.6229 -1.3076
29225SOL    HW292523   8.959   9.164   3.337  0.1655 -0.7071 -0.7861
29226SOL     OW92524   7.612   5.683   0.662 -0.4019  0.1863  0.5796
29226SOL    HW192525   7.632   5.660   0.753  1.0954 -0.0633  0.2204
29226SOL    HW292526   7.623   5.601   0.614  1.6788  0.8687 -0.2245
29227SOL     OW92527   3.917   1.324   0.778  0.2658 -0.1801 -0.2087
29227SOL    HW192528   3.992   1.265   0.769  0.7215  0.0107  1.8675
29227SOL    HW292529   3.909   1.339   0.872 -3.2407 -1.3101 -0.1485
29228SOL     OW92530   8.474   2.279   4.076 -0.5304 -0.2308 -0.4415
29228SOL    HW192531   8.397   2.337   4.075 -0.5785 -0.2942 -1.4401
29228SOL    HW292532   8.547   2.337   4.054 -0.3085 -0.2098  0.3211
29229SOL     OW92533   4.765   2.461   7.375  0.1232 -0.3795 -0.7137
29229SOL    HW192534   4.716   2.516   7.436  0.2600 -0.7635 -0.2482
29229SOL    HW292535   4.698   2.415   7.325  0.0089  0.1445 -1.0573
29230SOL     OW92536   7.353   1.736   2.645 -0.3375  0.2832 -0.5966
29230SOL    HW192537   7.426   1.678   2.622  0.4074  1.0099 -0.1215
29230SOL    HW292538   7.284   1.677   2.673  0.8023 -0.3602  1.0208
29231SOL     OW92539   3.737   4.878   7.124 -0.2160  0.0144 -0.1158
29231SOL    HW192540   3.830   4.899   7.132 -0.7872  2.3110  1.5391
29231SOL    HW292541   3.726   4.796   7.172  0.8782  0.0009  0.1283
29232SOL     OW92542   7.646   8.428   2.488  0.0826 -0.7511 -0.3405
29232SOL    HW192543   7.704   8.364   2.448  1.7478  1.1443 -1.1493
29232SOL    HW292544   7.569   8.378   2.515  1.2239 -3.0146 -1.0664
29233SOL     OW92545   4.605   9.059   2.394  0.0948  0.0529  0.3585
29233SOL    HW192546   4.641   8.975   2.368  1.8457  0.8489  0.1240
29233SOL    HW292547   4.530   9.036   2.449  0.8559 -1.6614  0.7426
29234SOL     OW92548   9.437   2.084   2.021  0.2095  0.4832  0.3679
29234SOL    HW192549   9.442   2.088   2.116  1.2980 -3.1529  0.6461
29234SOL    HW292550   9.345   2.096   2.001  0.1826  3.1237  1.6183
29235SOL     OW92551   0.500   0.561   1.592  0.5907  0.1294  0.1166
29235SOL    HW192552   0.549   0.576   1.511  1.1301  1.2482  0.6268
29235SOL    HW292553   0.489   0.648   1.630 -0.2382 -0.3071  0.9206
29236SOL     OW92554   1.684   1.341   8.335 -0.7112  0.3696 -0.0787
29236SOL    HW192555   1.771   1.380   8.349 -0.4919  0.7740 -2.1734
29236SOL    HW292556   1.683   1.264   8.392  0.1347  1.6037  1.6746
29237SOL     OW92557   5.142   3.035   8.890 -0.4203 -0.4691 -0.2633
29237SOL    HW192558   5.105   2.947   8.895 -0.9773 -0.2120  0.2846
29237SOL    HW292559   5.093   3.085   8.955 -2.3197  1.0660 -2.6857
29238SOL     OW92560   6.787   2.135   3.739 -0.2197 -0.2166 -0.4820
29238SOL    HW192561   6.788   2.088   3.656 -2.8533 -1.5871  0.1621
29238SOL    HW292562   6.762   2.225   3.715  1.1621 -0.0273 -1.3325
29239SOL     OW92563   5.095   1.730   3.783 -1.0195 -0.3492  0.3267
29239SOL    HW192564   5.189   1.714   3.778 -1.4919 -3.5441 -0.8928
29239SOL    HW292565   5.077   1.739   3.876  0.3489 -0.9433  0.6794
29240SOL     OW92566   6.417   2.586   2.640  0.5319  0.1154 -0.3182
29240SOL    HW192567   6.437   2.592   2.733  1.4772 -0.2632 -0.4850
29240SOL    HW292568   6.399   2.493   2.626  0.4999  0.1540 -0.5340
29241SOL     OW92569   6.027   0.231   0.031 -0.2778 -0.2792 -0.5122
29241SOL    HW192570   6.079   0.263   0.104 -1.2791 -0.0445  0.1092
29241SOL    HW292571   5.939   0.219   0.066 -0.7462 -0.3104 -1.6342
29242SOL     OW92572   2.437   5.986   9.404  0.0794 -0.1240  0.2190
29242SOL    HW192573   2.362   5.980   9.464  1.0318 -1.1648  1.3453
29242SOL    HW292574   2.492   6.055   9.440  1.2995 -1.6293  1.3337
29243SOL     OW92575   6.792   7.144   4.214 -0.3333 -0.3407 -0.0814
29243SOL    HW192576   6.705   7.111   4.194 -0.9340  1.0856  0.1012
29243SOL    HW292577   6.825   7.084   4.281 -0.8708 -1.3038 -0.6506
29244SOL     OW92578   0.200   6.523   2.583  0.0471 -0.6143 -0.2572
29244SOL    HW192579   0.118   6.497   2.625 -0.0703 -1.3934 -0.9491
29244SOL    HW292580   0.187   6.615   2.561 -0.9359 -0.9093 -1.0028
29245SOL     OW92581   7.120   9.442   2.366 -0.2841 -0.4481 -0.1185
29245SOL    HW192582   7.097   9.469   2.277  0.8979 -0.3960 -0.4162
29245SOL    HW292583   7.085   9.512   2.422 -0.9929 -0.4588 -0.5381
29246SOL     OW92584   5.583   4.377   9.487 -0.3196 -0.3183 -0.1521
29246SOL    HW192585   5.593   4.340   9.575  1.2927  0.6075  0.0879
29246SOL    HW292586   5.543   4.463   9.502 -0.6665 -0.4360 -0.3901
29247SOL     OW92587   1.962   7.802   8.747 -0.5623  0.0398 -0.3660
29247SOL    HW192588   1.961   7.846   8.832  0.8578  0.0955 -0.3667
29247SOL    HW292589   2.054   7.793   8.725 -0.7841 -2.3790 -0.6527
29248SOL     OW92590   3.193   0.958   8.023  0.0441  0.1569 -0.0355
29248SOL    HW192591   3.194   1.025   7.955  0.9632  1.4490  1.2088
29248SOL    HW292592   3.272   0.973   8.073 -1.9017  1.0812  3.0292
29249SOL     OW92593   4.216   5.430   0.246 -0.1874  0.0024  0.6733
29249SOL    HW192594   4.254   5.362   0.191 -1.2944  0.5319 -0.8062
29249SOL    HW292595   4.272   5.432   0.323  1.1825 -1.0482 -0.2411
29250SOL     OW92596   6.416   6.927   6.179 -0.6026  0.9080  0.4834
29250SOL    HW192597   6.485   6.907   6.242 -0.3227  1.8399  0.4824
29250SOL    HW292598   6.339   6.945   6.233 -1.2241 -1.3823  0.4564
29251SOL     OW92599   9.235   9.308   0.450  0.0187 -0.3682  0.0197
29251SOL    HW192600   9.294   9.383   0.455 -0.1368 -0.3154  1.5412
29251SOL    HW292601   9.285   9.235   0.485 -1.1336 -0.0729  2.5068
29252SOL     OW92602   2.881   1.517   1.381  0.1434  0.7599 -0.3062
29252SOL    HW192603   2.913   1.480   1.299 -2.2042  0.1443 -1.0251
29252SOL    HW292604   2.870   1.441   1.439  0.5869  1.0475  0.1698
29253SOL     OW92605   7.542   7.118   8.467  0.6384  0.1074  0.0028
29253SOL    HW192606   7.564   7.143   8.377 -1.6855  2.6343  0.0216
29253SOL    HW292607   7.590   7.181   8.521 -0.4763  0.6987  0.3376
29254SOL     OW92608   6.757   5.534   4.421  0.2244 -0.0625 -0.6080
29254SOL    HW192609   6.806   5.601   4.470 -4.6093  1.3210  3.0788
29254SOL    HW292610   6.783   5.451   4.461  0.4156  0.4950  0.4583
29255SOL     OW92611   7.223   2.758   4.618 -0.6181  0.0036  0.3612
29255SOL    HW192612   7.184   2.677   4.650  1.7038 -0.8375  1.2169
29255SOL    HW292613   7.316   2.739   4.611 -0.2062  2.1640 -0.8537
29256SOL     OW92614   1.677   2.958   4.410  0.1295 -0.2378  0.4984
29256SOL    HW192615   1.658   3.049   4.388  0.4589 -0.8367 -2.9285
29256SOL    HW292616   1.770   2.948   4.391 -0.2404 -1.6213 -0.7786
29257SOL     OW92617   0.373   4.890   2.605  0.4042 -0.2088 -0.0430
29257SOL    HW192618   0.286   4.855   2.589 -0.3672  1.4237  0.3666
29257SOL    HW292619   0.403   4.845   2.684 -0.6617  0.2134  0.6218
29258SOL     OW92620   5.317   0.284   1.582  0.1820  0.0220  0.1311
29258SOL    HW192621   5.285   0.235   1.659  2.5935  1.3924  2.1278
29258SOL    HW292622   5.358   0.217   1.528 -0.2899 -0.7721  0.7124
29259SOL     OW92623   6.901   0.346   3.753 -0.5037 -0.2471  0.1280
29259SOL    HW192624   6.849   0.426   3.746 -0.0913 -0.0343 -0.6183
29259SOL    HW292625   6.947   0.355   3.837 -0.6347  0.1980  0.1535
29260SOL     OW92626   9.487   2.707   5.194 -0.4623 -0.1426 -0.1124
29260SOL    HW192627   9.576   2.673   5.184 -0.2591  0.5851 -0.9270
29260SOL    HW292628   9.477   2.721   5.288 -0.0651 -1.1200  0.0925
29261SOL     OW92629   5.815   5.147   3.501 -0.2016 -0.9399 -0.2109
29261SOL    HW192630   5.873   5.213   3.465 -0.9241 -2.3688 -4.5836
29261SOL    HW292631   5.733   5.194   3.520  0.4170 -0.0040  0.2087
29262SOL     OW92632   6.226   6.025   5.898  0.1996 -0.2497 -0.1197
29262SOL    HW192633   6.207   5.932   5.889 -0.8135 -0.1234  0.5806
29262SOL    HW292634   6.197   6.064   5.815  0.8630 -0.5775 -0.5167
29263SOL     OW92635   7.857   7.631   1.806 -0.1600  0.4338 -0.0759
29263SOL    HW192636   7.899   7.679   1.735  0.0740  2.1628  1.1705
29263SOL    HW292637   7.870   7.538   1.783  1.0770  0.9313 -1.5830
29264SOL     OW92638   2.230   4.851   7.403  0.4962  0.2470  0.4577
29264SOL    HW192639   2.157   4.835   7.463  1.6499 -0.3491  1.7587
29264SOL    HW292640   2.239   4.770   7.353  0.1766  0.3752  0.1910
29265SOL     OW92641   4.548   3.305   4.735  0.9798  0.2454  0.0060
29265SOL    HW192642   4.588   3.281   4.818  1.9789  1.3781 -0.1390
29265SOL    HW292643   4.621   3.322   4.676  0.3131 -1.1271 -1.3246
29266SOL     OW92644   9.697   1.374   0.135 -0.0359  0.5560  0.6326
29266SOL    HW192645   9.703   1.351   0.228 -0.6103  1.7157  0.9799
29266SOL    HW292646   9.783   1.352   0.099  0.4235  0.7042  1.5969
29267SOL     OW92647   9.270   1.478   7.057  0.3256 -0.1382  0.7324
29267SOL    HW192648   9.190   1.466   7.108 -0.1185 -0.5260 -0.0302
29267SOL    HW292649   9.321   1.399   7.073 -0.9242 -1.4743 -1.3251
29268SOL     OW92650   6.790   9.007   8.260 -0.3346 -0.4142 -0.3471
29268SOL    HW192651   6.742   9.037   8.337  0.4705  0.3472 -0.1176
29268SOL    HW292652   6.855   9.076   8.245  0.5826 -1.3335 -0.7217
29269SOL     OW92653   2.395   1.496   0.051  0.2078 -0.2673  0.5510
29269SOL    HW192654   2.312   1.449   0.058 -1.0143  1.8995  1.6115
29269SOL    HW292655   2.452   1.455   0.116 -1.1336  0.2293  2.1075
29270SOL     OW92656   9.237   5.249   5.661 -0.1152 -0.2298  0.2075
29270SOL    HW192657   9.193   5.301   5.594 -2.9714 -0.6625  1.6191
29270SOL    HW292658   9.225   5.158   5.634 -0.7719 -0.3822  0.9750
29271SOL     OW92659   6.183   6.669   9.486  0.0727  0.1303  0.1282
29271SOL    HW192660   6.238   6.738   9.449 -1.2810  0.5460 -1.2223
29271SOL    HW292661   6.094   6.691   9.456 -0.4865 -1.8121  0.2313
29272SOL     OW92662   1.689   6.603   1.809  0.1149 -0.0559 -0.4708
29272SOL    HW192663   1.772   6.558   1.822  0.6593  1.1422  0.4105
29272SOL    HW292664   1.659   6.575   1.722  1.1604 -0.9193 -0.5674
29273SOL     OW92665   4.445   4.697   7.076  0.0675  0.5051  0.7201
29273SOL    HW192666   4.503   4.645   7.132 -0.2679  2.4406  3.0421
29273SOL    HW292667   4.358   4.685   7.115 -1.0017 -1.2241 -1.8640
29274SOL     OW92668   8.524   2.441   5.261  0.4997 -0.0561 -0.0395
29274SOL    HW192669   8.462   2.511   5.240 -1.8420 -1.4914  1.5291
29274SOL    HW292670   8.595   2.484   5.309 -0.8762  1.2779  0.8801
29275SOL     OW92671   5.164   9.017   2.891  0.1344  0.6932 -1.2472
29275SOL    HW192672   5.136   8.990   2.803  0.2963 -0.8911 -0.8334
29275SOL    HW292673   5.251   8.981   2.901 -0.9886 -1.7725  0.6390
29276SOL     OW92674   9.446   0.702   1.439  0.2557 -0.1650 -0.2307
29276SOL    HW192675   9.398   0.778   1.471  0.0900  0.2443 -1.4124
29276SOL    HW292676   9.383   0.652   1.388  0.2243 -1.3945  0.9371
29277SOL     OW92677   4.219   8.267   3.883  0.3921  0.0504 -0.2265
29277SOL    HW192678   4.289   8.269   3.818 -0.8244 -0.2711 -1.6177
29277SOL    HW292679   4.180   8.355   3.879 -0.5263 -0.3698 -0.9363
29278SOL     OW92680   3.769   9.351   0.231 -0.6384 -0.3397 -0.2088
29278SOL    HW192681   3.813   9.304   0.302 -0.5080 -1.4157 -0.9788
29278SOL    HW292682   3.696   9.294   0.206 -1.6941  0.8031  0.1602
29279SOL     OW92683   9.078   1.272   9.391 -0.5729 -0.5252  0.1074
29279SOL    HW192684   9.081   1.359   9.350 -1.7626 -0.6269 -0.2322
29279SOL    HW292685   8.993   1.268   9.433 -0.0521 -1.0946  1.1491
29280SOL     OW92686   3.865   3.713   0.693 -0.5632  0.0012 -0.1555
29280SOL    HW192687   3.824   3.629   0.711  0.1699 -0.2413  0.4140
29280SOL    HW292688   3.848   3.765   0.772  0.0029 -0.0144 -0.0200
29281SOL     OW92689   7.223   4.273   7.566 -0.2541  0.7327 -0.3236
29281SOL    HW192690   7.207   4.179   7.554  0.4191  0.4788  0.6173
29281SOL    HW292691   7.136   4.312   7.565 -0.6841 -0.1186  0.8392
29282SOL     OW92692   1.995   4.204   7.596  0.0917  0.1784 -0.1913
29282SOL    HW192693   1.923   4.158   7.640 -0.5929  0.2130 -1.2386
29282SOL    HW292694   1.986   4.181   7.504  0.2203  1.7455 -0.6355
29283SOL     OW92695   1.105   8.566   5.821  0.1343  0.4017  0.2006
29283SOL    HW192696   1.081   8.489   5.769  1.6312  0.4117 -0.5493
29283SOL    HW292697   1.057   8.638   5.780  1.1064  0.3656 -1.0503
29284SOL     OW92698   1.905   2.480   2.441 -0.3142  0.3354 -0.0793
29284SOL    HW192699   1.924   2.561   2.488 -0.0699 -0.3522  1.0406
29284SOL    HW292700   1.987   2.431   2.442 -0.2865  0.3369 -1.3042
29285SOL     OW92701   4.878   8.855   1.737 -0.4021  0.2977 -0.1912
29285SOL    HW192702   4.904   8.913   1.809 -0.2248 -0.1424  0.0994
29285SOL    HW292703   4.890   8.767   1.771  1.8929  0.0299 -1.4831
29286SOL     OW92704   5.796   6.721   3.160  0.0538  0.1442 -0.4502
29286SOL    HW192705   5.758   6.685   3.080  1.2691  0.6513 -1.2816
29286SOL    HW292706   5.783   6.652   3.225  0.9179 -1.1640 -1.6137
29287SOL     OW92707   8.295   5.772   0.269 -0.2406  0.2248 -0.2670
29287SOL    HW192708   8.289   5.816   0.185  0.7519  1.1001  0.1020
29287SOL    HW292709   8.336   5.836   0.327  1.2716 -1.1638  0.2714
29288SOL     OW92710   2.653   1.679   2.017  0.4523 -0.0935  0.8210
29288SOL    HW192711   2.560   1.657   2.020  0.2167  0.8666  0.9539
29288SOL    HW292712   2.695   1.600   1.982 -0.3818 -0.6056  0.9322
29289SOL     OW92713   2.522   2.578   7.750 -0.1411  0.0649 -0.3503
29289SOL    HW192714   2.511   2.647   7.683 -1.6767 -0.8064 -1.0506
29289SOL    HW292715   2.433   2.554   7.774  0.3150 -2.4196 -0.9059
29290SOL     OW92716   6.762   6.585   2.336  0.5063 -0.7004 -0.1332
29290SOL    HW192717   6.814   6.562   2.413  0.3273 -2.8843 -0.5748
29290SOL    HW292718   6.826   6.585   2.264  0.4606  0.0417 -0.1736
29291SOL     OW92719   2.776   3.269   3.764  0.1319  0.0698  0.7972
29291SOL    HW192720   2.825   3.273   3.847 -1.4867 -0.5872  1.8181
29291SOL    HW292721   2.704   3.210   3.782 -0.9189  0.8444 -0.7432
29292SOL     OW92722   2.769   7.523   5.734 -0.0712  0.2635 -0.0675
29292SOL    HW192723   2.701   7.571   5.782 -0.6492  0.1258 -0.7369
29292SOL    HW292724   2.827   7.489   5.802 -1.6666 -1.1533  0.6409
29293SOL     OW92725   1.060   6.939   5.624  0.3012 -0.3797 -0.1944
29293SOL    HW192726   1.092   7.025   5.650 -0.5303  0.5350 -1.9878
29293SOL    HW292727   0.968   6.939   5.650 -0.0187 -0.2223 -1.2709
29294SOL     OW92728   2.364   5.083   5.112  0.3978 -0.1338  0.4161
29294SOL    HW192729   2.272   5.058   5.110  0.4024 -0.3766  1.9077
29294SOL    HW292730   2.377   5.118   5.200  1.6916  0.0673  0.1661
29295SOL     OW92731   0.194   0.757   3.419  0.1166 -0.3244 -0.1681
29295SOL    HW192732   0.140   0.700   3.473 -2.8675  0.3884 -2.1261
29295SOL    HW292733   0.194   0.841   3.465 -1.9192  0.1162 -0.8345
29296SOL     OW92734   0.400   8.684   4.173  0.4803  0.1550 -0.3477
29296SOL    HW192735   0.361   8.598   4.155 -0.5564  0.3528  0.7901
29296SOL    HW292736   0.334   8.747   4.145  0.6047  0.5320  0.1888
29297SOL     OW92737   8.659   7.161   4.593 -0.2406 -0.0653  0.2226
29297SOL    HW192738   8.671   7.068   4.614  0.0525 -0.2006 -0.4971
29297SOL    HW292739   8.743   7.188   4.556 -1.0299 -0.1529 -1.7629
29298SOL     OW92740   0.872   0.366   0.134  0.1298 -0.5534 -0.3375
29298SOL    HW192741   0.883   0.460   0.120 -2.1139 -0.2808 -0.7264
29298SOL    HW292742   0.955   0.337   0.171 -0.1632  2.2113  2.9737
29299SOL     OW92743   3.299   0.655   5.895  0.2361  0.0907  0.1699
29299SOL    HW192744   3.280   0.600   5.819 -2.1025  0.0276  0.7309
29299SOL    HW292745   3.384   0.695   5.875  0.6327 -1.4689 -1.5464
29300SOL     OW92746   8.632   5.652   0.631 -0.4807 -0.3798  0.2793
29300SOL    HW192747   8.647   5.564   0.595 -1.0305  0.1920 -1.4164
29300SOL    HW292748   8.550   5.644   0.680 -1.8347 -0.2792 -1.8850
29301SOL     OW92749   4.648   5.074   9.605 -0.1288  0.0376  0.4090
29301SOL    HW192750   4.731   5.114   9.630  0.8996 -0.6017 -1.8070
29301SOL    HW292751   4.636   5.097   9.513 -0.8502 -2.4170 -0.1937
29302SOL     OW92752   0.408   6.347   4.021 -0.0948 -0.0685  0.1768
29302SOL    HW192753   0.463   6.273   4.046 -1.2460 -0.8642  0.4451
29302SOL    HW292754   0.387   6.332   3.929 -1.8805 -1.1470  0.7114
29303SOL     OW92755   1.529   3.781   8.902  0.1992  0.2814 -0.1053
29303SOL    HW192756   1.560   3.751   8.817  3.4066  1.3899  0.5511
29303SOL    HW292757   1.590   3.744   8.966 -0.4634  1.6914  1.4499
29304SOL     OW92758   8.353   8.021   7.786 -0.2134  0.0808  0.3596
29304SOL    HW192759   8.406   8.050   7.713  0.2398 -1.6313 -0.0463
29304SOL    HW292760   8.324   8.101   7.829 -1.0140  1.1674 -2.0455
29305SOL     OW92761   5.326   1.085   3.531 -0.3208 -0.0716  0.4133
29305SOL    HW192762   5.381   1.037   3.470 -0.8364  0.5548 -0.5715
29305SOL    HW292763   5.285   1.154   3.478 -1.2789  0.0920  1.3236
29306SOL     OW92764   4.498   6.627   3.818 -0.2986 -0.2911  0.2564
29306SOL    HW192765   4.508   6.548   3.872 -2.7418  0.1044  1.4498
29306SOL    HW292766   4.482   6.594   3.730  0.0373 -1.0647  0.4709
29307SOL     OW92767   3.389   3.705   9.561 -0.2049 -0.6379 -0.3430
29307SOL    HW192768   3.398   3.694   9.656 -3.2142 -0.0125  0.1044
29307SOL    HW292769   3.463   3.656   9.525  0.7467 -1.3378  2.2915
29308SOL     OW92770   0.155   1.186   8.806  0.2715  0.5371 -0.7709
29308SOL    HW192771   0.201   1.184   8.890  1.0755  1.5414 -1.1655
29308SOL    HW292772   0.157   1.095   8.775  1.2429  0.4086 -0.3665
29309SOL     OW92773   1.349   3.250   8.375  0.5151 -0.0618 -0.3222
29309SOL    HW192774   1.268   3.228   8.329  0.7864 -0.2422 -0.7081
29309SOL    HW292775   1.325   3.245   8.468 -0.3981  1.6306 -0.4135
29310SOL     OW92776   6.377   4.174   3.113  0.2046 -0.0853 -0.1868
29310SOL    HW192777   6.358   4.255   3.066  0.2624  0.0699  0.0614
29310SOL    HW292778   6.359   4.194   3.204 -0.6935 -0.6247 -0.2278
29311SOL     OW92779   9.647   3.983   4.899 -0.3808 -0.2869 -0.4559
29311SOL    HW192780   9.667   4.074   4.922  0.0087 -0.6184  0.5882
29311SOL    HW292781   9.726   3.935   4.922  0.5957 -0.5254 -3.7802
29312SOL     OW92782   4.595   1.932   8.849  0.1489 -0.1850  1.1529
29312SOL    HW192783   4.549   1.905   8.770 -1.0223 -0.1532  1.8070
29312SOL    HW292784   4.678   1.968   8.818  0.0453 -0.9041  0.0013
29313SOL     OW92785   0.933   7.274   0.775  0.3183  0.1152 -0.0314
29313SOL    HW192786   0.953   7.199   0.832  0.0633  0.7325  0.8965
29313SOL    HW292787   0.845   7.257   0.743  0.3570 -0.1076 -0.0225
29314SOL     OW92788   8.555   1.402   1.145  0.2705  0.1641  0.2968
29314SOL    HW192789   8.565   1.434   1.235  0.0611 -0.5291  0.5755
29314SOL    HW292790   8.595   1.315   1.146  0.9572  0.4602 -0.4782
29315SOL     OW92791   7.800   6.009   6.784 -0.6610 -0.9953  0.0663
29315SOL    HW192792   7.802   6.102   6.762  2.4104 -0.7087  1.0486
29315SOL    HW292793   7.802   5.964   6.700 -0.7427 -0.1602 -0.3939
29316SOL     OW92794   9.434   9.320   6.070 -0.3200 -0.1019 -0.5429
29316SOL    HW192795   9.438   9.300   6.163  0.6745  2.7701  0.1437
29316SOL    HW292796   9.519   9.290   6.035  1.5639  3.2575  0.6534
29317SOL     OW92797   4.595   5.664   7.404  0.0121 -0.0272  0.6967
29317SOL    HW192798   4.620   5.667   7.496 -2.1774  0.8767  1.3096
29317SOL    HW292799   4.514   5.714   7.399  0.5101  0.6791 -1.8867
29318SOL     OW92800   4.424   7.914   6.000 -0.2864 -0.1183  0.4251
29318SOL    HW192801   4.502   7.866   5.972 -0.2425  0.3993 -0.3926
29318SOL    HW292802   4.452   8.005   6.003 -0.8605  0.0756  0.0871
29319SOL     OW92803   5.846   7.423   1.269  0.1062 -0.1408 -0.1092
29319SOL    HW192804   5.806   7.403   1.354  0.0235 -0.0522 -0.1265
29319SOL    HW292805   5.796   7.371   1.206 -0.4686  0.5250 -0.2220
29320SOL     OW92806   8.873   2.299   0.492 -0.2847  0.1364  0.3272
29320SOL    HW192807   8.818   2.377   0.502 -0.1933  0.0197  2.0928
29320SOL    HW292808   8.924   2.296   0.573 -0.1283 -1.6536  0.1968
29321SOL     OW92809   4.700   8.462   0.356 -0.3352 -0.1289  0.0978
29321SOL    HW192810   4.738   8.461   0.268  0.5202  0.9286  0.4393
29321SOL    HW292811   4.774   8.446   0.414 -0.9690 -1.2407  0.6160
29322SOL     OW92812   2.905   3.494   0.367 -0.9565 -0.1567 -0.0408
29322SOL    HW192813   2.950   3.543   0.298  0.3498 -0.5864  0.4718
29322SOL    HW292814   2.874   3.415   0.323  2.5559 -1.9789  0.3462
29323SOL     OW92815   1.542   7.072   1.946 -0.5904  0.1561 -0.1222
29323SOL    HW192816   1.527   7.151   1.894 -1.0703  0.5274  0.5632
29323SOL    HW292817   1.582   7.010   1.884  0.0458  1.0183 -0.5961
29324SOL     OW92818   2.791   1.018   4.930 -0.0322  0.2484  0.7872
29324SOL    HW192819   2.865   1.061   4.888  0.4654 -0.4394  0.9450
29324SOL    HW292820   2.777   1.066   5.011  0.2928  0.3300  0.7944
29325SOL     OW92821   3.638   2.760   3.416 -0.0874 -0.6534  0.2365
29325SOL    HW192822   3.587   2.679   3.407  0.1630 -0.8032  0.1557
29325SOL    HW292823   3.727   2.730   3.433 -0.0519 -0.3907  0.5257
29326SOL     OW92824   4.691   5.400   7.994 -0.2810 -0.3482  1.2262
29326SOL    HW192825   4.604   5.422   7.961 -0.2782 -1.3054  0.5277
29326SOL    HW292826   4.748   5.407   7.918  0.2364  0.1499  1.6536
29327SOL     OW92827   5.299   0.263   5.396  0.5681  0.3997  0.0666
29327SOL    HW192828   5.266   0.277   5.485 -0.4100  3.0320 -0.6310
29327SOL    HW292829   5.272   0.174   5.375  1.6959 -0.6873  2.7133
29328SOL     OW92830   4.793   5.788   9.103  0.1231 -0.6131  0.4808
29328SOL    HW192831   4.773   5.754   9.191 -0.2282 -0.8286  0.3195
29328SOL    HW292832   4.719   5.846   9.082 -0.2524 -1.2753 -0.0479
29329SOL     OW92833   9.521   6.876   5.857  0.0894 -0.5042 -0.0080
29329SOL    HW192834   9.445   6.934   5.868  1.2175  0.7064  2.0194
29329SOL    HW292835   9.544   6.851   5.946  0.1761 -3.4595 -0.7783
29330SOL     OW92836   0.263   1.911   0.991  0.3802  0.2944  0.0862
29330SOL    HW192837   0.224   1.833   0.950 -0.3648  1.6808 -2.0065
29330SOL    HW292838   0.197   1.941   1.054  1.0379 -1.1982  1.5631
29331SOL     OW92839   0.918   2.882   3.105 -0.2271 -0.0998 -0.2134
29331SOL    HW192840   0.916   2.911   3.014 -0.6417  0.7716  0.0646
29331SOL    HW292841   0.990   2.819   3.108  0.8907  1.0908 -0.7936
29332SOL     OW92842   0.008   1.217   9.131  0.6279 -0.1272 -0.0540
29332SOL    HW192843  -0.030   1.203   9.044  0.3114  0.8190 -0.0758
29332SOL    HW292844   0.070   1.289   9.119  2.1766 -1.3719  0.0675
29333SOL     OW92845   1.841   2.219   8.835 -0.4282 -0.5003  0.2349
29333SOL    HW192846   1.906   2.191   8.899  2.0590  0.8485 -1.5231
29333SOL    HW292847   1.796   2.139   8.809  3.2579 -2.2963 -1.2852
29334SOL     OW92848   4.607   7.582   8.880  0.0445  0.4239  0.0382
29334SOL    HW192849   4.697   7.550   8.881  0.2964  1.1096  1.4818
29334SOL    HW292850   4.565   7.537   8.953 -0.3978  1.1492  0.2388
29335SOL     OW92851   7.541   4.511   9.156 -0.1490  0.1449  0.1736
29335SOL    HW192852   7.597   4.561   9.216  0.6152  0.0823 -0.4630
29335SOL    HW292853   7.522   4.573   9.085 -0.4861  0.0083  0.1449
29336SOL     OW92854   9.452   7.994   7.967 -0.2567 -0.7758 -0.2199
29336SOL    HW192855   9.490   7.958   8.048  1.0653  1.1964  0.0919
29336SOL    HW292856   9.479   7.932   7.899  1.3675 -0.8051  0.3957
29337SOL     OW92857   8.723   1.332   8.448  0.7893 -0.4942  0.0369
29337SOL    HW192858   8.718   1.302   8.539 -1.6723 -2.0092 -0.4929
29337SOL    HW292859   8.665   1.408   8.445 -0.7483 -1.6283 -0.5983
29338SOL     OW92860   4.632   8.139   0.094 -0.5225 -0.4176 -0.4919
29338SOL    HW192861   4.577   8.150   0.171 -1.8305 -2.8350 -0.9860
29338SOL    HW292862   4.714   8.104   0.128 -0.5673 -0.1153 -0.0649
29339SOL     OW92863   7.729   8.559   3.621 -0.3475  0.1778  0.6894
29339SOL    HW192864   7.780   8.479   3.616  0.4573  0.6954  0.2996
29339SOL    HW292865   7.671   8.556   3.544  1.6836  1.2598 -1.0009
29340SOL     OW92866   7.018   6.323   7.860  0.2523  0.2399  0.2366
29340SOL    HW192867   6.957   6.347   7.790  1.5001 -0.7241 -1.2272
29340SOL    HW292868   7.104   6.348   7.828  0.9770 -1.1731  0.9604
29341SOL     OW92869   8.824   2.773   0.588  0.1195 -0.0579  1.0251
29341SOL    HW192870   8.892   2.830   0.623 -0.3552  1.2201 -0.0221
29341SOL    HW292871   8.871   2.711   0.532  0.5732 -0.2747  1.6346
29342SOL     OW92872   6.632   2.071   6.807  0.0749 -0.2275  0.8296
29342SOL    HW192873   6.636   1.983   6.769  2.2248 -0.3053  1.1069
29342SOL    HW292874   6.650   2.129   6.733 -0.0735 -0.1124  0.8854
29343SOL     OW92875   5.879   6.515   0.883  0.0491  0.7481  0.6703
29343SOL    HW192876   5.805   6.528   0.824 -0.0235  0.9018  0.7963
29343SOL    HW292877   5.935   6.592   0.870 -1.0024  1.8680  2.3404
29344SOL     OW92878   4.449   5.059   3.188 -0.2611 -0.5462 -0.2514
29344SOL    HW192879   4.368   5.009   3.193 -0.4757 -0.2533 -0.6804
29344SOL    HW292880   4.470   5.061   3.095  0.3736 -0.8245 -0.1196
29345SOL     OW92881   7.151   8.995   7.360 -0.0514  0.0028 -0.0892
29345SOL    HW192882   7.157   9.043   7.277  0.8492  3.7216  1.9308
29345SOL    HW292883   7.234   8.948   7.366  0.7350  1.2974 -0.4505
29346SOL     OW92884   5.712   2.277   5.362  0.5109  0.2058 -0.1906
29346SOL    HW192885   5.690   2.185   5.348 -0.1454  0.3016  0.1448
29346SOL    HW292886   5.678   2.297   5.449 -0.4600  1.0673 -0.7307
29347SOL     OW92887   5.528   5.581   9.085  0.0779 -0.0433 -0.4918
29347SOL    HW192888   5.505   5.593   8.993 -0.6697 -0.3963 -0.3547
29347SOL    HW292889   5.446   5.592   9.132  0.6626  1.2577  0.2469
29348SOL     OW92890   0.560   3.426   1.917 -0.3515  0.7025 -0.1180
29348SOL    HW192891   0.535   3.506   1.872 -1.2352  1.0346  0.9188
29348SOL    HW292892   0.488   3.365   1.899  0.0435  0.3229 -0.4361
29349SOL     OW92893   7.721   0.170   2.336 -0.9342  0.0534 -0.6196
29349SOL    HW192894   7.661   0.181   2.410 -1.1374 -0.9099 -0.6345
29349SOL    HW292895   7.664   0.149   2.262 -0.6113 -0.5393 -0.7082
29350SOL     OW92896   7.508   5.851   2.429 -0.9031  0.2987  0.2329
29350SOL    HW192897   7.591   5.897   2.441 -1.4109  0.8806  1.7835
29350SOL    HW292898   7.450   5.914   2.387 -0.5147 -0.1978 -1.1084
29351SOL     OW92899   4.058   3.260   5.972  0.2968  0.2002 -0.0345
29351SOL    HW192900   4.025   3.192   6.030 -0.6111 -0.4019 -1.2177
29351SOL    HW292901   4.153   3.259   5.984  0.3337 -1.4768 -0.2290
29352SOL     OW92902   6.740   0.467   6.536 -0.0257  0.6645  0.6891
29352SOL    HW192903   6.828   0.441   6.565 -0.6439 -4.6154 -1.1440
29352SOL    HW292904   6.683   0.446   6.609 -0.0869  1.6822  0.9516
29353SOL     OW92905   1.444   2.229   4.682  0.2124  0.1512  0.4693
29353SOL    HW192906   1.436   2.244   4.776  2.3539 -1.1498  0.9082
29353SOL    HW292907   1.537   2.241   4.662  0.2639 -2.0919 -0.9911
29354SOL     OW92908   2.190   0.267   1.458  0.0810  0.0458  0.1924
29354SOL    HW192909   2.220   0.322   1.386 -0.2853 -0.1721 -0.1336
29354SOL    HW292910   2.230   0.305   1.536  0.0525  0.6047 -0.0614
29355SOL     OW92911   4.553   8.120   0.739  0.1601  0.1886 -0.5727
29355SOL    HW192912   4.468   8.107   0.697 -0.3253 -4.3322  1.2350
29355SOL    HW292913   4.617   8.087   0.675 -0.0074 -1.0326 -0.1450
29356SOL     OW92914   7.363   7.024   9.191 -0.1906 -0.8428  0.6082
29356SOL    HW192915   7.340   7.072   9.270  0.6784 -0.5332  0.6853
29356SOL    HW292916   7.362   7.090   9.122 -0.3785 -0.9930  0.4683
29357SOL     OW92917   6.239   5.973   5.122  0.3841 -0.1489  0.3071
29357SOL    HW192918   6.275   5.929   5.046 -0.4098 -0.1696 -0.0708
29357SOL    HW292919   6.144   5.962   5.114  0.0844  2.1966 -0.1815
29358SOL     OW92920   5.010   3.900   0.125 -0.3558 -0.3629 -0.1707
29358SOL    HW192921   5.088   3.895   0.181  2.9703 -0.0259 -4.2029
29358SOL    HW292922   5.002   3.993   0.103 -1.6663 -0.4608 -0.1867
29359SOL     OW92923   5.647   0.598   3.958 -0.5179  0.1916 -0.0191
29359SOL    HW192924   5.600   0.560   3.884 -0.0951  0.9931 -0.7146
29359SOL    HW292925   5.616   0.688   3.964 -1.5711 -0.2429  1.6699
29360SOL     OW92926   6.634   0.164   1.966  0.1252  0.2610  1.2255
29360SOL    HW192927   6.587   0.191   1.887  2.5552  0.5245 -0.2369
29360SOL    HW292928   6.646   0.070   1.957  0.8079  0.3628  1.0437
29361SOL     OW92929   1.165   7.541   7.537 -0.0555 -0.4276  0.4502
29361SOL    HW192930   1.153   7.517   7.629  0.5553 -1.9264  0.1609
29361SOL    HW292931   1.168   7.457   7.491  0.7373  0.2730 -0.8016
29362SOL     OW92932   8.338   4.278   1.785 -0.2689  1.0461  0.1663
29362SOL    HW192933   8.375   4.246   1.702  1.7541  1.0962  0.9971
29362SOL    HW292934   8.337   4.201   1.842 -1.6404  1.0169  0.1495
29363SOL     OW92935   8.895   4.635   4.188  0.3874  0.2292  0.2301
29363SOL    HW192936   8.952   4.649   4.263  0.5785 -2.4052  0.6634
29363SOL    HW292937   8.807   4.646   4.223  0.4538 -1.4186  1.0165
29364SOL     OW92938   7.215   4.616   1.687  0.1605 -0.2529 -0.1463
29364SOL    HW192939   7.183   4.664   1.763  0.8616 -1.6785  1.1079
29364SOL    HW292940   7.155   4.640   1.617 -0.6685  0.9166  0.9085
29365SOL     OW92941   8.913   7.944   5.785  0.1570 -0.2101  0.1831
29365SOL    HW192942   8.861   7.991   5.851 -0.7977  0.6764 -1.1423
29365SOL    HW292943   8.954   8.013   5.733  1.7675 -0.9055  0.4896
29366SOL     OW92944   5.690   5.725   4.580 -0.0747  0.2335  0.0999
29366SOL    HW192945   5.646   5.693   4.659  2.8622 -0.6457  1.5185
29366SOL    HW292946   5.699   5.820   4.594 -0.0585  0.1663  0.5600
29367SOL     OW92947   4.044   8.732   2.489 -0.2762  0.0872 -0.1297
29367SOL    HW192948   3.984   8.689   2.550  0.8532 -0.9452  0.2871
29367SOL    HW292949   3.990   8.753   2.412 -1.6675  1.2259  1.1044
29368SOL     OW92950   7.575   6.741   8.413 -0.1274 -0.0291  0.1345
29368SOL    HW192951   7.656   6.717   8.367 -0.4985 -2.7595  0.7742
29368SOL    HW292952   7.603   6.809   8.475  1.0970  1.0108 -1.4682
29369SOL     OW92953   5.746   8.764   4.559  0.0513  0.3125 -0.4844
29369SOL    HW192954   5.764   8.810   4.641 -0.6518  0.2017 -0.2683
29369SOL    HW292955   5.818   8.701   4.551  1.6078  2.0917 -1.2831
29370SOL     OW92956   9.723   1.711   5.391 -0.2323  0.2448 -0.5572
29370SOL    HW192957   9.677   1.728   5.309 -1.7960  1.6495  0.5278
29370SOL    HW292958   9.700   1.621   5.413  0.7063 -0.3637 -1.9196
29371SOL     OW92959   7.881   2.076   9.019  0.2307  0.3592 -0.3515
29371SOL    HW192960   7.936   2.008   8.980  0.7736  0.1537  0.7441
29371SOL    HW292961   7.908   2.157   8.975 -0.4621 -0.1141 -1.7032
29372SOL     OW92962   0.336   5.900   5.734  0.1745 -0.5982 -0.1334
29372SOL    HW192963   0.341   5.957   5.657  0.0318  0.0065  0.2912
29372SOL    HW292964   0.287   5.824   5.705  0.1530 -0.3933 -0.6492
29373SOL     OW92965   0.584   5.211   7.233  0.5382  0.3961 -0.3090
29373SOL    HW192966   0.636   5.154   7.289 -0.1048  1.1659  1.1430
29373SOL    HW292967   0.526   5.152   7.185  0.9724 -0.2799 -0.0188
29374SOL     OW92968   8.970   9.505   0.592 -0.2125  0.2528 -0.4156
29374SOL    HW192969   8.940   9.479   0.679  1.0999  2.2321  0.7379
29374SOL    HW292970   9.006   9.425   0.553 -2.0604 -0.9665  0.2566
29375SOL     OW92971   9.748   2.477   9.433 -0.0668 -0.3343 -0.3436
29375SOL    HW192972   9.680   2.409   9.440  0.4564 -0.9710 -1.2107
29375SOL    HW292973   9.828   2.434   9.464  0.3376 -0.2255 -1.2257
29376SOL     OW92974   2.616   2.136   5.736  0.2367 -0.3595 -0.1436
29376SOL    HW192975   2.672   2.089   5.675 -0.8118  0.1792 -1.5797
29376SOL    HW292976   2.674   2.198   5.780  1.3094 -1.8178  0.5819
29377SOL     OW92977   4.107   2.878   7.723  0.2547 -0.1848 -0.0959
29377SOL    HW192978   4.012   2.866   7.735  0.0385  1.6084  0.3812
29377SOL    HW292979   4.136   2.799   7.678 -1.7214 -0.1802 -1.5334
29378SOL     OW92980   1.895   0.691   3.342 -0.0313 -0.2263  0.5841
29378SOL    HW192981   1.939   0.709   3.259 -1.2912 -0.3803 -0.1458
29378SOL    HW292982   1.817   0.642   3.318 -1.0144  0.6944  1.7406
29379SOL     OW92983   6.499   5.958   8.101  0.0767  0.7133 -0.0896
29379SOL    HW192984   6.420   5.942   8.153  0.8620  0.0641  0.9554
29379SOL    HW292985   6.512   6.052   8.106 -0.9799  0.9078 -0.8084
29380SOL     OW92986   5.050   0.332   9.596 -0.1168 -0.4437 -0.0379
29380SOL    HW192987   5.135   0.357   9.560 -0.8016 -0.2687 -1.6082
29380SOL    HW292988   4.993   0.407   9.578 -1.2378 -1.5619 -1.4084
29381SOL     OW92989   7.832   6.471   3.668  0.0035  0.5011 -0.4549
29381SOL    HW192990   7.855   6.554   3.626 -0.4169 -0.1667 -2.1215
29381SOL    HW292991   7.739   6.480   3.689  0.1478  0.7344  0.0956
29382SOL     OW92992   6.021   1.725   0.308 -0.6207  0.3279  0.7394
29382SOL    HW192993   5.963   1.679   0.248 -1.5439  2.6232 -0.2337
29382SOL    HW292994   6.102   1.739   0.258 -1.2948  2.0031  0.0261
29383SOL     OW92995   3.070   9.713   2.812  0.1857 -0.0247 -0.0430
29383SOL    HW192996   3.062   9.789   2.869  1.0269 -1.6165  2.3432
29383SOL    HW292997   3.025   9.643   2.859  0.6626 -1.3705 -1.4907
29384SOL     OW92998   4.611   3.310   3.940  0.1982  0.5938  0.3829
29384SOL    HW192999   4.680   3.342   3.998  0.9092  0.2307 -0.2482
29384SOL    HW293000   4.657   3.267   3.869 -0.5690  2.4051 -1.3232
29385SOL     OW93001   0.319   8.694   5.855  0.3425  0.5077 -0.2354
29385SOL    HW193002   0.265   8.678   5.933  1.0858  2.1504  0.6563
29385SOL    HW293003   0.260   8.675   5.782 -1.5657  2.3957  0.6961
29386SOL     OW93004   1.263   1.787   3.331  0.1176 -0.0554 -0.0288
29386SOL    HW193005   1.312   1.869   3.322  1.3760 -0.6807  0.8849
29386SOL    HW293006   1.274   1.762   3.422  1.9796 -2.5697 -0.8435
29387SOL     OW93007   0.644   6.489   6.657 -0.0422 -0.2040 -1.0693
29387SOL    HW193008   0.640   6.551   6.585 -1.9547 -0.6990 -1.4605
29387SOL    HW293009   0.568   6.432   6.644 -2.2484  1.4355  2.8809
29388SOL     OW93010   8.609   8.879   1.168 -0.5239 -0.2110 -0.0952
29388SOL    HW193011   8.569   8.846   1.087 -1.8211  1.3804 -0.1690
29388SOL    HW293012   8.534   8.894   1.227  0.1584  0.8234  0.5525
29389SOL     OW93013   3.161   3.057   5.328 -0.5080  0.3957 -0.0849
29389SOL    HW193014   3.159   2.992   5.259  1.1811 -0.0022  0.1869
29389SOL    HW293015   3.219   3.020   5.394 -0.6528  1.5509  0.7260
29390SOL     OW93016   3.810   9.263   2.729  0.2251 -0.3117 -0.8822
29390SOL    HW193017   3.823   9.337   2.670 -1.7626  1.0974  0.3151
29390SOL    HW293018   3.887   9.263   2.786  1.5071 -0.8579 -2.5476
29391SOL     OW93019   9.244   5.598   5.964  0.0566 -0.6138  0.3711
29391SOL    HW193020   9.259   5.504   5.967  0.8614 -0.4932  0.2973
29391SOL    HW293021   9.170   5.613   6.023  0.5572 -1.1701  1.1493
29392SOL     OW93022   6.476   7.461   7.408 -0.0376 -0.1694 -0.0275
29392SOL    HW193023   6.566   7.494   7.411  0.3570 -0.9042 -2.2134
29392SOL    HW293024   6.424   7.536   7.379 -0.2770  0.4107  1.7497
29393SOL     OW93025   3.475   5.483   4.635  0.2115  0.0723  0.1958
29393SOL    HW193026   3.517   5.450   4.714  1.5296 -0.0776 -0.5439
29393SOL    HW293027   3.530   5.555   4.606  2.2609 -2.4455 -2.8550
29394SOL     OW93028   9.628   4.033   8.380  0.1976 -0.0399  0.0899
29394SOL    HW193029   9.578   4.063   8.304 -2.7561 -1.3404  1.3253
29394SOL    HW293030   9.697   4.098   8.391 -1.9096  2.5978 -1.1407
29395SOL     OW93031   5.429   7.767   6.148  0.0554  0.1938  0.1552
29395SOL    HW193032   5.410   7.736   6.236 -1.6007  2.2597  0.5992
29395SOL    HW293033   5.358   7.828   6.128  0.6055  0.0839 -2.4663
29396SOL     OW93034   0.547   1.419   9.632  0.2213  0.1527  0.0363
29396SOL    HW193035   0.615   1.359   9.663 -0.9076 -0.6350  1.0600
29396SOL    HW293036   0.536   1.396   9.539  1.2361  0.1927 -0.1025
29397SOL     OW93037   4.930   3.473   8.910 -0.5332  0.1316 -0.4137
29397SOL    HW193038   4.982   3.397   8.935  0.5508  1.2728  0.9934
29397SOL    HW293039   4.928   3.471   8.814  3.2880  0.7286 -0.6434
29398SOL     OW93040   3.805   3.542   0.947  0.3166 -0.5791 -0.4196
29398SOL    HW193041   3.736   3.539   0.881  0.2237 -0.4119 -0.3324
29398SOL    HW293042   3.819   3.636   0.962  0.6505 -0.6118 -0.5293
29399SOL     OW93043   5.579   2.722   5.996 -0.3468  0.0215  0.3219
29399SOL    HW193044   5.508   2.727   6.060 -0.5298  1.8586  0.0194
29399SOL    HW293045   5.658   2.709   6.049 -0.7362 -0.7358  0.7428
29400SOL     OW93046   8.066   8.639   5.412  0.2949  0.5100  0.2599
29400SOL    HW193047   8.077   8.636   5.507  0.5036  0.8983  0.2494
29400SOL    HW293048   8.124   8.709   5.383  0.7640 -0.0743 -0.2326
29401SOL     OW93049   6.156   3.985   1.510 -1.0825 -0.0241  0.7024
29401SOL    HW193050   6.095   3.917   1.483 -1.4929 -0.2367  2.0786
29401SOL    HW293051   6.123   4.065   1.470 -2.0071 -0.2213  1.0472
29402SOL     OW93052   3.731   8.355   5.835 -0.1160 -0.2946  0.0039
29402SOL    HW193053   3.817   8.350   5.793 -0.5497  2.2337 -1.4105
29402SOL    HW293054   3.744   8.416   5.908 -0.7709  0.4251 -0.4671
29403SOL     OW93055   5.284   1.205   0.725  0.3605 -0.6657 -0.7996
29403SOL    HW193056   5.249   1.248   0.803  0.9988 -3.0537  0.9045
29403SOL    HW293057   5.208   1.162   0.685  0.0456  0.5074 -1.5196
29404SOL     OW93058   1.041   3.723   1.517  0.1333 -0.3048  0.0063
29404SOL    HW193059   1.034   3.793   1.582 -2.7456 -1.9303  1.6574
29404SOL    HW293060   0.980   3.749   1.447  0.0260 -0.5399  0.0110
29405SOL     OW93061   6.184   4.846   0.998 -0.6659  0.3951  0.6604
29405SOL    HW193062   6.211   4.932   0.967  0.1557 -0.5239 -1.3220
29405SOL    HW293063   6.089   4.853   1.008 -0.4542  1.9366  2.0161
29406SOL     OW93064   3.733   1.242   6.272  0.0156  0.5782  0.2843
29406SOL    HW193065   3.724   1.251   6.177 -1.4022  1.2704  0.4473
29406SOL    HW293066   3.735   1.148   6.288  0.0700  0.4566 -0.4187
29407SOL     OW93067   8.894   6.508   2.223 -0.5697 -0.2254  0.6633
29407SOL    HW193068   8.933   6.554   2.149 -2.2655 -0.3194 -0.3467
29407SOL    HW293069   8.870   6.578   2.285 -0.5956  0.0034  0.3944
29408SOL     OW93070   4.781   5.863   5.718  0.3785 -0.1711  0.3179
29408SOL    HW193071   4.779   5.940   5.774 -1.5179 -0.2322  0.3859
29408SOL    HW293072   4.771   5.897   5.629 -1.7028 -0.3616  0.4339
29409SOL     OW93073   5.595   8.315   0.298 -0.3454  0.1091  0.0087
29409SOL    HW193074   5.596   8.221   0.316  1.4525 -0.6603 -3.2977
29409SOL    HW293075   5.685   8.336   0.273 -0.7459  2.7046  0.3770
29410SOL     OW93076   9.271   6.050   2.513 -0.0660 -0.4470 -0.1302
29410SOL    HW193077   9.258   6.122   2.575  1.4675 -0.4504  0.2473
29410SOL    HW293078   9.183   6.027   2.483 -0.6316  1.1826  0.1931
29411SOL     OW93079   0.994   6.463   7.841  0.3683  0.2977 -0.2170
29411SOL    HW193080   1.081   6.498   7.820 -0.0452  2.3944  1.2557
29411SOL    HW293081   1.000   6.440   7.934 -0.2338 -1.0092 -0.4803
29412SOL     OW93082   5.970   1.332   8.082 -0.2896  0.3194  0.0697
29412SOL    HW193083   5.912   1.399   8.046 -1.0491 -0.6439 -0.5636
29412SOL    HW293084   5.914   1.281   8.140  0.0030 -0.4064 -0.2687
29413SOL     OW93085   6.835   7.551   0.667  0.1825  0.3059  0.1398
29413SOL    HW193086   6.876   7.553   0.581 -0.0203 -1.9239 -0.0672
29413SOL    HW293087   6.760   7.491   0.657 -0.3787  0.7104  1.6357
29414SOL     OW93088   6.462   6.300   4.647  0.0351  0.1512 -0.3010
29414SOL    HW193089   6.494   6.212   4.626 -0.7026 -0.6420  1.6147
29414SOL    HW293090   6.368   6.295   4.633 -0.0785  0.4581  0.3119
29415SOL     OW93091   1.703   8.999   4.156 -0.0973  0.6025  0.2446
29415SOL    HW193092   1.742   9.086   4.151  1.8566 -0.2051  0.4393
29415SOL    HW293093   1.739   8.961   4.236  0.7568 -1.1235 -0.9030
29416SOL     OW93094   6.187   5.308   1.671  0.3780 -0.4603 -0.5141
29416SOL    HW193095   6.168   5.243   1.603 -0.8137  0.3214 -0.9502
29416SOL    HW293096   6.119   5.373   1.662  1.7681  1.0869 -0.3334
29417SOL     OW93097   8.584   8.388   0.853 -0.6090  0.4454  0.2044
29417SOL    HW193098   8.517   8.408   0.919 -1.0710  0.6631 -0.3167
29417SOL    HW293099   8.566   8.450   0.782 -1.2870 -0.9939 -0.9287
29418SOL     OW93100   0.316   2.130   9.702 -0.4514  0.2095  0.2275
29418SOL    HW193101   0.279   2.198   9.644 -1.4497  1.5198  2.2852
29418SOL    HW293102   0.240   2.088   9.741  0.1557  0.9290  2.2949
29419SOL     OW93103   8.830   0.645   1.105 -0.4842 -0.2085  0.2105
29419SOL    HW193104   8.800   0.628   1.194  0.7720 -0.8155  0.5423
29419SOL    HW293105   8.904   0.586   1.093 -0.0183  0.5654 -0.8960
29420SOL     OW93106   0.616   2.788   9.335 -0.3532 -0.1627  0.1133
29420SOL    HW193107   0.666   2.792   9.416  0.1900 -1.7738 -0.0921
29420SOL    HW293108   0.679   2.760   9.268 -1.5773 -3.2523  0.0344
29421SOL     OW93109   0.267   6.429   8.111 -0.7490  0.2307 -0.2741
29421SOL    HW193110   0.266   6.439   8.206 -1.1717 -0.4690 -0.1999
29421SOL    HW293111   0.234   6.513   8.077  0.7028  1.0010  0.1340
29422SOL     OW93112   9.497   7.912   9.148  0.3562  0.4061 -0.1565
29422SOL    HW193113   9.543   7.850   9.092  0.3693  0.4395 -0.1820
29422SOL    HW293114   9.413   7.871   9.166  0.1739  0.5946 -0.5636
29423SOL     OW93115   8.661   6.857   4.077 -0.1281 -0.7548 -0.4227
29423SOL    HW193116   8.685   6.947   4.056 -0.1884 -0.3076  1.3110
29423SOL    HW293117   8.627   6.822   3.995 -0.6516  0.9851 -0.9854
29424SOL     OW93118   2.610   3.212   8.061 -0.2613 -0.4364  0.2701
29424SOL    HW193119   2.679   3.227   8.126 -2.2771 -0.4038  2.5492
29424SOL    HW293120   2.547   3.283   8.076 -1.3428 -1.1072 -0.9327
29425SOL     OW93121   4.927   2.183   6.920 -0.3241 -1.0826 -0.6847
29425SOL    HW193122   4.997   2.118   6.915  0.5473 -0.2728  0.3958
29425SOL    HW293123   4.862   2.154   6.856  0.2880 -2.7049 -0.6115
29426SOL     OW93124   3.192   2.132   0.947 -0.3449 -0.4366 -0.2738
29426SOL    HW193125   3.124   2.166   0.889 -1.3675 -0.5287  0.8389
29426SOL    HW293126   3.268   2.186   0.929 -1.1638  0.6890 -0.4618
29427SOL     OW93127   8.495   3.878   8.419 -0.8212 -0.2806  0.0468
29427SOL    HW193128   8.464   3.817   8.352 -0.3658  0.9928 -1.3856
29427SOL    HW293129   8.583   3.847   8.440 -0.0544  0.5755 -1.6612
29428SOL     OW93130   5.636   6.675   1.484 -0.2287 -0.1731  0.0114
29428SOL    HW193131   5.657   6.584   1.464  1.1365  0.0041  0.5362
29428SOL    HW293132   5.663   6.687   1.575 -0.3021  0.7741 -0.0755
29429SOL     OW93133   9.278   9.064   3.956 -0.2051  0.2815  0.0126
29429SOL    HW193134   9.231   9.015   4.024 -1.1826  1.2804  0.0885
29429SOL    HW293135   9.369   9.064   3.985 -0.4139 -0.2901  0.7173
29430SOL     OW93136   5.042   7.240   0.285 -0.4957  0.0591 -0.2169
29430SOL    HW193137   5.039   7.283   0.200 -0.0992  0.3569 -0.0829
29430SOL    HW293138   5.117   7.279   0.329  1.4597 -2.5459 -1.0230
29431SOL     OW93139   9.529   3.190   3.066  0.0467 -0.4109  0.3924
29431SOL    HW193140   9.575   3.132   3.006 -0.4060  0.0782 -0.4359
29431SOL    HW293141   9.441   3.152   3.074 -0.4999  0.5544 -0.7542
29432SOL     OW93142   3.626   2.497   8.195  0.3863  0.2527  0.1071
29432SOL    HW193143   3.564   2.430   8.167  0.3590  0.7115 -0.9513
29432SOL    HW293144   3.712   2.460   8.175  0.4441 -0.0656  0.8832
29433SOL     OW93145   7.154   8.394   3.352  0.3949  0.0592 -0.2852
29433SOL    HW193146   7.135   8.358   3.439  0.2724  2.3032  0.6896
29433SOL    HW293147   7.081   8.453   3.334  2.7664  3.5321  0.4311
29434SOL     OW93148   0.455   3.642   3.214  0.7364  0.3539 -1.2612
29434SOL    HW193149   0.454   3.547   3.198  2.2893 -0.3788  2.1973
29434SOL    HW293150   0.363   3.666   3.219  0.2869 -1.3641 -0.4624
29435SOL     OW93151   9.743   6.788   2.710  0.0590  0.5747 -0.1585
29435SOL    HW193152   9.774   6.707   2.750 -0.1249  0.8949  0.6518
29435SOL    HW293153   9.798   6.856   2.748 -2.3728  1.3475  2.3879
29436SOL     OW93154   7.959   7.432   7.607  0.6634 -0.2261  0.7045
29436SOL    HW193155   8.037   7.473   7.569  0.9716 -1.4018  0.0346
29436SOL    HW293156   7.986   7.404   7.694  1.6262 -2.3892 -0.2311
29437SOL     OW93157   3.677   3.130   0.843  0.1411  0.1132 -0.5011
29437SOL    HW193158   3.584   3.109   0.856  0.5192 -0.5555  1.6053
29437SOL    HW293159   3.719   3.045   0.834  0.7167  0.3207  0.1326
29438SOL     OW93160   6.703   9.687   5.073  0.4729  0.0233 -0.6643
29438SOL    HW193161   6.690   9.712   4.982  1.7591  0.1151 -0.8488
29438SOL    HW293162   6.617   9.696   5.113  0.1793  1.4508 -1.5258
29439SOL     OW93163   1.678   9.580   9.297 -0.3593  0.2497  0.1674
29439SOL    HW193164   1.592   9.621   9.311 -0.4434 -0.2039  1.0427
29439SOL    HW293165   1.684   9.570   9.202 -0.3858  2.1655 -0.0725
29440SOL     OW93166   4.424   9.013   1.889  0.0021 -0.5917 -0.0492
29440SOL    HW193167   4.466   9.014   1.976 -1.5600 -0.2947  0.7336
29440SOL    HW293168   4.489   8.971   1.832  1.3451 -0.1674  1.1055
29441SOL     OW93169   4.376   2.986   3.879 -1.0170  0.1886 -0.1266
29441SOL    HW193170   4.342   3.073   3.901  1.0131  0.8070  0.8082
29441SOL    HW293171   4.345   2.930   3.951 -1.5117  0.3282 -0.2217
29442SOL     OW93172   1.279   9.528   3.161 -0.2330 -0.8186 -0.4812
29442SOL    HW193173   1.283   9.447   3.212  0.7178  0.6203  1.8914
29442SOL    HW293174   1.359   9.575   3.185  0.2989 -0.0433 -3.4320
29443SOL     OW93175   0.095   1.716   8.673  0.3683  0.4417  0.1444
29443SOL    HW193176   0.008   1.743   8.704  0.1922 -0.6273  0.6038
29443SOL    HW293177   0.077   1.673   8.589 -0.0995 -3.2970  1.9699
29444SOL     OW93178   1.123   6.050   6.747 -0.4332  0.2919  0.2730
29444SOL    HW193179   1.031   6.066   6.769 -0.2625 -0.5133  1.6718
29444SOL    HW293180   1.141   5.963   6.780  0.7652  0.3153 -0.2715
29445SOL     OW93181   8.657   2.955   3.977  0.4227  0.6140 -0.3678
29445SOL    HW193182   8.634   2.862   3.972 -1.8487  1.0911  0.1696
29445SOL    HW293183   8.688   2.967   4.067 -2.0531  0.8858  0.5107
29446SOL     OW93184   2.472   3.445   7.523  0.1797  0.0927 -0.2643
29446SOL    HW193185   2.537   3.449   7.593  1.7980  0.7590 -1.7334
29446SOL    HW293186   2.485   3.359   7.483 -1.5751 -0.8003  0.9422
29447SOL     OW93187   4.781   5.613   4.081  0.7364  0.7252  0.2881
29447SOL    HW193188   4.722   5.680   4.116  2.7446  1.9245  1.6128
29447SOL    HW293189   4.726   5.560   4.023 -1.4158  2.2340  0.8223
29448SOL     OW93190   6.048   1.270   9.476  0.2141 -0.3420 -0.4391
29448SOL    HW193191   6.024   1.204   9.411 -0.2281 -1.9676  1.2601
29448SOL    HW293192   6.028   1.229   9.560  0.8524  1.6172  0.7535
29449SOL     OW93193   3.829   4.627   7.269 -0.7687  0.0797 -0.0517
29449SOL    HW193194   3.898   4.562   7.280 -0.8100 -0.1041 -0.8108
29449SOL    HW293195   3.755   4.593   7.320  0.6423  1.8285  3.4989
29450SOL     OW93196   3.715   5.012   5.551 -0.0074 -0.2772  0.1186
29450SOL    HW193197   3.683   5.088   5.599  2.2682  2.1677 -1.9206
29450SOL    HW293198   3.750   4.954   5.619 -2.3178  0.1214  1.7744
29451SOL     OW93199   3.321   2.038   3.380  0.3651  0.6215  0.4089
29451SOL    HW193200   3.242   2.087   3.361  0.8304  0.9586 -0.7535
29451SOL    HW293201   3.298   1.947   3.362  1.1750  1.0158 -3.6052
29452SOL     OW93202   8.297   6.422   9.055 -0.3006 -0.4857  0.3456
29452SOL    HW193203   8.217   6.472   9.041  0.5210  0.9342  0.5084
29452SOL    HW293204   8.358   6.456   8.990  0.4387 -0.9205  0.7946
29453SOL     OW93205   3.230   3.373   3.985 -0.1810 -0.1016  0.4018
29453SOL    HW193206   3.234   3.379   3.890  1.0529  0.7760  0.4768
29453SOL    HW293207   3.161   3.434   4.010 -0.7847 -0.6338  0.0559
29454SOL     OW93208   3.832   8.408   0.933  0.1737  0.1028 -0.8959
29454SOL    HW193209   3.862   8.410   1.024  0.0060 -1.7492 -0.7598
29454SOL    HW293210   3.747   8.363   0.938  0.9159 -1.5163 -2.1266
29455SOL     OW93211   9.352   9.236   9.343  0.5325  0.2851  0.0310
29455SOL    HW193212   9.346   9.214   9.436  2.4892  0.4960  0.2463
29455SOL    HW293213   9.444   9.221   9.321  0.2021  0.6919 -1.7667
29456SOL     OW93214   6.499   8.700   0.609 -0.3294  0.5213 -0.4465
29456SOL    HW193215   6.500   8.738   0.521 -1.7382  0.4882 -0.5137
29456SOL    HW293216   6.544   8.617   0.601 -2.6318 -0.7097 -1.7987
29457SOL     OW93217   6.883   6.412   4.965  0.5048 -0.0992  0.5389
29457SOL    HW193218   6.973   6.438   4.946  0.2101  1.3176  0.9932
29457SOL    HW293219   6.834   6.435   4.886  0.2581  0.7048  0.9111
29458SOL     OW93220   8.737   7.736   0.318 -0.4001 -0.2667 -0.0857
29458SOL    HW193221   8.745   7.762   0.410 -0.5917 -0.0354 -0.1335
29458SOL    HW293222   8.746   7.641   0.319  2.4329 -0.1027 -0.1173
29459SOL     OW93223   2.789   6.260   8.598  0.2823  0.2994 -0.0133
29459SOL    HW193224   2.812   6.213   8.678 -0.5449  0.5106  0.3562
29459SOL    HW293225   2.868   6.255   8.545  1.2894  1.2110  1.3135
29460SOL     OW93226   2.732   4.327   0.228 -0.4301  0.1280  0.4953
29460SOL    HW193227   2.751   4.368   0.312  1.1711 -0.8403  0.6410
29460SOL    HW293228   2.698   4.240   0.250 -1.9518  0.6024  0.1493
29461SOL     OW93229   8.892   9.542   6.396 -0.7612 -0.4384 -0.3426
29461SOL    HW193230   8.833   9.615   6.414 -0.1899  0.3120 -1.3493
29461SOL    HW293231   8.976   9.584   6.376 -0.4117 -1.3767 -0.9179
29462SOL     OW93232   8.307   9.469   6.930 -0.6159  0.8285  0.3637
29462SOL    HW193233   8.344   9.540   6.984 -0.9591  1.6569 -0.4595
29462SOL    HW293234   8.293   9.397   6.991 -0.1789  1.4431  1.2107
29463SOL     OW93235   7.275   4.482   6.189 -0.5633  0.5182  0.1533
29463SOL    HW193236   7.268   4.476   6.093 -0.4269  1.1324  0.1011
29463SOL    HW293237   7.222   4.409   6.221  1.3009 -1.2019 -0.4195
29464SOL     OW93238   8.373   5.313   7.187  0.0801 -0.0226 -0.6644
29464SOL    HW193239   8.455   5.356   7.211  0.0925  0.2313 -1.1496
29464SOL    HW293240   8.374   5.311   7.092  0.2967 -1.5096 -0.6556
29465SOL     OW93241   0.359   8.388   8.048  0.0398 -0.5313  0.2943
29465SOL    HW193242   0.451   8.365   8.031 -0.1362 -0.2341 -1.1876
29465SOL    HW293243   0.309   8.315   8.012 -0.3299 -0.5383  0.8074
29466SOL     OW93244   6.046   0.801   5.624 -0.4493  0.4091 -0.2591
29466SOL    HW193245   6.002   0.873   5.668 -2.8050 -1.0429 -0.0234
29466SOL    HW293246   6.066   0.834   5.536 -0.2816  1.7318  0.2614
29467SOL     OW93247   1.861   6.324   4.923  0.5458  0.0782  0.0085
29467SOL    HW193248   1.873   6.341   5.016 -0.1260 -1.2075  0.3583
29467SOL    HW293249   1.931   6.372   4.880  1.6972 -0.3957  1.2890
29468SOL     OW93250   9.409   4.663   5.158  0.0658  0.0435 -0.1704
29468SOL    HW193251   9.370   4.649   5.072 -0.8354 -2.0023  0.4848
29468SOL    HW293252   9.491   4.612   5.156 -1.2995 -2.4077  0.9782
29469SOL     OW93253   7.782   3.995   8.474 -0.2481 -0.1569  0.7080
29469SOL    HW193254   7.768   4.081   8.513  0.0507 -0.5781  1.7937
29469SOL    HW293255   7.807   4.013   8.383 -2.1585  0.8084  0.3361
29470SOL     OW93256   0.484   1.512   7.079  0.8494 -0.3790  0.0604
29470SOL    HW193257   0.535   1.592   7.063 -0.9819  1.6055  3.1830
29470SOL    HW293258   0.420   1.510   7.008  2.3332 -0.4169 -1.3459
29471SOL     OW93259   9.042   1.582   0.018 -0.0558 -0.3553 -0.3202
29471SOL    HW193260   9.114   1.520   0.009  0.1456 -0.4394  1.5650
29471SOL    HW293261   8.964   1.532  -0.009 -0.0467 -1.8314  2.1001
29472SOL     OW93262   7.542   2.867   6.740  0.5106 -0.0691 -0.0269
29472SOL    HW193263   7.523   2.960   6.747  0.8732 -0.0295  0.4714
29472SOL    HW293264   7.534   2.834   6.830  0.3516 -0.5221 -0.2043
29473SOL     OW93265   7.036   9.621   5.044 -0.3674  0.0597  0.1111
29473SOL    HW193266   7.130   9.607   5.055 -0.3670  0.4326  0.6736
29473SOL    HW293267   6.995   9.539   5.072 -0.2482  0.2205  0.7706
29474SOL     OW93268   6.000   3.676   4.402 -0.5922 -0.2696  0.0744
29474SOL    HW193269   6.022   3.631   4.321  0.2698 -0.4853  0.4170
29474SOL    HW293270   5.959   3.609   4.457 -1.0671 -0.1520 -0.1280
29475SOL     OW93271   8.628   9.322   7.318  0.1664 -0.0545  0.2689
29475SOL    HW193272   8.610   9.329   7.225  0.7459 -0.7585  0.0957
29475SOL    HW293273   8.681   9.399   7.338  1.8852 -0.9969 -0.4598
29476SOL     OW93274   2.276   4.623   8.705 -0.3477 -0.6199  0.6379
29476SOL    HW193275   2.258   4.538   8.745 -2.1096 -1.0174 -0.8924
29476SOL    HW293276   2.327   4.603   8.627 -0.5252 -0.2481  0.4218
29477SOL     OW93277   6.465   3.383   6.817  0.3998  0.0946  0.5171
29477SOL    HW193278   6.533   3.395   6.751  0.7983  0.4957  0.9868
29477SOL    HW293279   6.436   3.292   6.806 -1.2257  0.8170 -1.7583
29478SOL     OW93280   6.393   4.802   9.445  0.0405  0.0181 -0.0607
29478SOL    HW193281   6.306   4.833   9.419  0.0335 -0.3804 -0.5314
29478SOL    HW293282   6.420   4.745   9.373  0.9341  0.5845 -0.1938
29479SOL     OW93283   0.137   4.753   8.796  0.3759  0.7934 -0.1905
29479SOL    HW193284   0.231   4.759   8.814  0.5335 -2.9508  0.9665
29479SOL    HW293285   0.096   4.796   8.872  1.1616  0.5294  0.4022
29480SOL     OW93286   1.293   6.120   9.464 -0.0276 -0.4831 -0.4759
29480SOL    HW193287   1.356   6.074   9.520  0.3796 -0.0093 -0.5387
29480SOL    HW293288   1.237   6.050   9.429 -0.2698 -0.7931  0.4892
29481SOL     OW93289   4.564   3.166   6.580  0.2938 -0.1597  0.3455
29481SOL    HW193290   4.569   3.120   6.496  1.4368  2.3533 -1.0874
29481SOL    HW293291   4.597   3.254   6.561  0.9714  0.4009  3.5368
29482SOL     OW93292   3.526   4.753   6.419 -0.1441 -0.7139 -0.2011
29482SOL    HW193293   3.559   4.825   6.473 -1.9500 -0.0877  0.1268
29482SOL    HW293294   3.543   4.674   6.471  0.8248 -0.4321 -0.0654
29483SOL     OW93295   4.194   5.615   0.926 -0.1683 -0.6434  0.3953
29483SOL    HW193296   4.123   5.642   0.867  1.2288  0.3450 -0.8871
29483SOL    HW293297   4.233   5.539   0.883  1.2142  0.4195 -0.2831
29484SOL     OW93298   9.408   7.800   4.208  0.7380 -0.2746 -0.0229
29484SOL    HW193299   9.358   7.795   4.290  0.5132 -0.8269 -0.1893
29484SOL    HW293300   9.345   7.776   4.140  1.1279 -0.5858 -0.2789
29485SOL     OW93301   2.301   2.525   2.138  0.3449 -0.3150 -0.2036
29485SOL    HW193302   2.267   2.605   2.099 -1.4212 -1.3765 -0.9713
29485SOL    HW293303   2.255   2.518   2.222 -0.5635 -1.1802 -0.7453
29486SOL     OW93304   0.083   5.137   0.308  0.0894  0.2171 -0.0097
29486SOL    HW193305   0.062   5.110   0.219 -0.0954 -0.5925  0.2695
29486SOL    HW293306   0.098   5.055   0.356 -2.7498  0.4088  1.4237
29487SOL     OW93307   2.200   1.217   4.431  0.4694  0.0656  0.0618
29487SOL    HW193308   2.180   1.126   4.450 -1.0267  0.0957 -1.1538
29487SOL    HW293309   2.218   1.219   4.337  1.5738  0.8592  0.2679
29488SOL     OW93310   5.104   9.008   1.182 -0.0760  0.1483  0.4462
29488SOL    HW193311   5.152   9.065   1.241 -0.9773  0.7456  0.6307
29488SOL    HW293312   5.170   8.950   1.144  0.7596  0.9055  0.7317
29489SOL     OW93313   5.769   1.682   9.183  0.3150  0.1536 -0.2500
29489SOL    HW193314   5.828   1.608   9.165 -0.0282  0.0729 -1.1112
29489SOL    HW293315   5.704   1.647   9.243  0.8561  0.1024  0.3123
29490SOL     OW93316   8.775   3.106   8.335  0.9479  0.5560  0.1821
29490SOL    HW193317   8.769   3.107   8.431 -0.8108  0.8585  0.0896
29490SOL    HW293318   8.747   3.194   8.308 -3.3667 -0.8751 -0.7723
29491SOL     OW93319   2.092   1.031   5.326  0.3563 -0.6349  0.3896
29491SOL    HW193320   2.045   1.066   5.401  2.4210 -1.0378  1.9637
29491SOL    HW293321   2.184   1.028   5.354  0.9278 -2.7738 -1.3806
29492SOL     OW93322   0.930   6.754   1.848 -0.1862 -0.2041  0.1902
29492SOL    HW193323   0.865   6.742   1.779  1.2216 -1.8297 -0.9439
29492SOL    HW293324   0.994   6.815   1.812 -0.2642  0.1778  0.6840
29493SOL     OW93325   1.378   0.818   3.252  0.3450  0.0476 -0.3848
29493SOL    HW193326   1.386   0.896   3.306 -0.5106 -1.0983  1.5242
29493SOL    HW293327   1.405   0.746   3.310  3.5119 -0.9175 -2.8075
29494SOL     OW93328   5.351   6.191   8.725  0.3275  0.4409 -0.0587
29494SOL    HW193329   5.420   6.159   8.667  0.6510  1.2273 -0.1208
29494SOL    HW293330   5.381   6.169   8.813 -0.6775 -1.7650 -0.1789
29495SOL     OW93331   4.951   7.096   8.078 -0.5190  0.0505  0.0344
29495SOL    HW193332   4.942   7.020   8.020 -1.8809 -0.0373  0.3196
29495SOL    HW293333   5.007   7.157   8.030  2.5859 -2.0162  0.7286
29496SOL     OW93334   4.384   7.659   2.298  0.5374 -0.2549  0.0376
29496SOL    HW193335   4.319   7.670   2.228  1.0828 -0.8225 -0.5572
29496SOL    HW293336   4.332   7.661   2.379 -0.7112 -3.9271 -0.5104
29497SOL     OW93337   7.584   8.353   2.182 -0.4255 -0.3038 -0.5884
29497SOL    HW193338   7.606   8.262   2.202  0.8044  0.4938  2.3129
29497SOL    HW293339   7.655   8.383   2.125 -0.1583 -0.8578 -0.5487
29498SOL     OW93340   5.798   1.595   4.122 -0.2145  0.0676  0.5666
29498SOL    HW193341   5.755   1.554   4.046  1.2655  1.1157 -0.9165
29498SOL    HW293342   5.789   1.531   4.192  1.5696 -2.6796 -1.4991
29499SOL     OW93343   5.638   6.200   0.013 -0.5301  0.5237 -0.2696
29499SOL    HW193344   5.560   6.149   0.034 -0.6526  0.5574 -0.6415
29499SOL    HW293345   5.711   6.150   0.050 -0.4712 -0.7688 -2.0043
29500SOL     OW93346   6.062   7.813   1.114 -0.1801 -0.0723 -0.3808
29500SOL    HW193347   6.003   7.852   1.179  1.4271  1.0780  0.4418
29500SOL    HW293348   6.083   7.727   1.151  1.8808  1.1195  1.4814
29501SOL     OW93349   1.585   7.333   9.584  0.4134  0.0471  0.5494
29501SOL    HW193350   1.622   7.249   9.556 -1.1238  0.3267 -2.8452
29501SOL    HW293351   1.493   7.329   9.558  0.6693  3.3877 -1.4596
29502SOL     OW93352   5.027   0.166   8.537 -0.0464 -0.3286 -0.4773
29502SOL    HW193353   5.083   0.173   8.614  0.0934  1.4090 -0.7090
29502SOL    HW293354   5.087   0.178   8.463 -0.4143 -0.5280 -0.8103
29503SOL     OW93355   4.508   1.089   3.974 -0.1160 -0.1322 -0.3572
29503SOL    HW193356   4.437   1.029   3.995  0.6220 -0.8718  0.0952
29503SOL    HW293357   4.509   1.151   4.047  0.7852 -1.1509  0.5300
29504SOL     OW93358   3.501   1.128   2.254 -0.5082 -0.1002 -0.1425
29504SOL    HW193359   3.519   1.035   2.240 -0.8775 -0.2211  0.1815
29504SOL    HW293360   3.490   1.164   2.165 -2.0365 -0.7038 -0.2268
29505SOL     OW93361   3.853   0.709   5.057  0.1407 -0.6186  0.8055
29505SOL    HW193362   3.827   0.627   5.015 -0.8915 -0.1326  0.4532
29505SOL    HW293363   3.947   0.699   5.073  1.1001 -0.1392 -3.3382
29506SOL     OW93364   3.826   0.668   2.702 -0.3601 -0.5088 -0.4050
29506SOL    HW193365   3.844   0.706   2.787 -1.6068 -1.5990  0.3887
29506SOL    HW293366   3.841   0.739   2.640  1.5133  0.0422  0.6029
29507SOL     OW93367   3.533   8.304   0.308 -0.0387 -0.1780  0.3495
29507SOL    HW193368   3.553   8.393   0.281  0.4604 -0.4553 -0.2496
29507SOL    HW293369   3.489   8.265   0.232 -1.4146 -0.0721  1.0618
29508SOL     OW93370   3.405   2.462   2.875  0.6761  0.1898 -0.2103
29508SOL    HW193371   3.494   2.440   2.904  0.4195 -1.4488 -0.5984
29508SOL    HW293372   3.377   2.387   2.823 -0.9992  0.6320  0.0040
29509SOL     OW93373   4.538   3.787   3.732  0.0004 -0.2505 -0.1818
29509SOL    HW193374   4.528   3.735   3.652  0.8530 -0.0456 -0.4246
29509SOL    HW293375   4.562   3.874   3.701  0.3644 -0.1771  0.3044
29510SOL     OW93376   2.649   3.126   3.972 -0.1735  0.2874 -0.4323
29510SOL    HW193377   2.743   3.120   3.989  0.0974  1.0529 -1.5132
29510SOL    HW293378   2.608   3.082   4.046  1.0328  0.0266  0.1059
29511SOL     OW93379   1.591   4.122   8.231  0.1482 -0.4653 -0.4967
29511SOL    HW193380   1.574   4.060   8.160  1.2447  0.5253 -1.6603
29511SOL    HW293381   1.638   4.194   8.190  1.4902 -0.1898  1.3550
29512SOL     OW93382   6.580   0.210   6.169 -0.4995 -0.2680 -0.9779
29512SOL    HW193383   6.536   0.125   6.166  0.1874 -0.7761  1.2563
29512SOL    HW293384   6.626   0.210   6.253 -0.4222  2.3005 -0.9472
29513SOL     OW93385   0.621   2.018   6.230 -0.6429  0.0832 -0.5617
29513SOL    HW193386   0.586   1.935   6.201 -0.4352 -1.1706  2.4058
29513SOL    HW293387   0.544   2.069   6.256 -0.6622 -0.0159 -0.4216
29514SOL     OW93388   6.456   7.690   0.176  0.0902  0.1234  0.0200
29514SOL    HW193389   6.425   7.610   0.218 -0.3489  1.0851  1.6417
29514SOL    HW293390   6.387   7.713   0.114 -0.8767  0.4169  1.1583
29515SOL     OW93391   1.280   1.573   3.825  0.2348 -0.1111  0.3703
29515SOL    HW193392   1.188   1.569   3.799 -0.3918 -0.7698  2.5226
29515SOL    HW293393   1.309   1.482   3.825  0.6679  0.0259  0.4200
29516SOL     OW93394   1.388   0.653   0.259 -0.3337 -0.4755 -0.1454
29516SOL    HW193395   1.347   0.568   0.240 -0.3151 -0.4338 -0.3800
29516SOL    HW293396   1.327   0.696   0.319 -0.5003 -0.5249 -0.2770
29517SOL     OW93397   5.190   8.160   7.231  0.0674 -0.2629 -0.0990
29517SOL    HW193398   5.127   8.194   7.295 -2.4151 -1.3841 -1.7626
29517SOL    HW293399   5.170   8.208   7.150  1.8215 -0.2273 -0.5563
29518SOL     OW93400   4.553   3.628   4.207 -0.4791 -0.2095  0.4213
29518SOL    HW193401   4.645   3.654   4.206 -0.5790  0.1872 -0.7313
29518SOL    HW293402   4.520   3.656   4.122 -1.6626 -0.3735  0.8091
29519SOL     OW93403   3.566   6.253   4.804  0.5682  0.2249 -0.3626
29519SOL    HW193404   3.557   6.348   4.804  1.2586  0.3701  2.1705
29519SOL    HW293405   3.659   6.238   4.820  0.1410 -0.8261  1.3094
29520SOL     OW93406   2.326   5.804   3.624  0.0152 -0.4597  0.3058
29520SOL    HW193407   2.261   5.778   3.689 -1.6767 -0.5927 -1.3355
29520SOL    HW293408   2.299   5.892   3.597  2.0190  0.5440  1.3345
29521SOL     OW93409   2.955   1.373   9.408  0.1638 -0.1996 -0.1722
29521SOL    HW193410   2.982   1.405   9.494  1.9535 -0.3687 -0.6312
29521SOL    HW293411   2.864   1.401   9.399  0.5434  1.5313  0.9628
29522SOL     OW93412   5.645   1.948   6.655  0.1828  0.0711 -0.0864
29522SOL    HW193413   5.558   1.987   6.641  0.6073  1.3947  0.7825
29522SOL    HW293414   5.704   2.023   6.658  1.2437 -0.7580  0.2291
29523SOL     OW93415   4.091   8.508   0.921 -0.3892 -0.4404 -0.1121
29523SOL    HW193416   4.017   8.484   0.976  0.6132  0.1085  1.5569
29523SOL    HW293417   4.073   8.598   0.894 -1.4185 -1.0758 -1.6698
29524SOL     OW93418   4.228   0.055   9.029  0.3096  0.2501  0.0387
29524SOL    HW193419   4.235   0.132   9.085 -1.0584 -1.0512  2.1311
29524SOL    HW293420   4.137   0.052   9.002  0.8023  0.4810 -1.8184
29525SOL     OW93421   1.736   3.032   7.040 -0.2748 -0.1281  0.2434
29525SOL    HW193422   1.801   3.024   6.970 -0.4891  1.1713 -0.1365
29525SOL    HW293423   1.662   3.077   6.999 -0.6169  0.1936  1.1831
29526SOL     OW93424   5.322   8.893   7.044 -0.1424  0.0867  0.0426
29526SOL    HW193425   5.308   8.979   7.006  2.0987  0.5881  0.2691
29526SOL    HW293426   5.343   8.910   7.136 -1.7005 -0.8760  0.6362
29527SOL     OW93427   9.129   7.078   0.171  0.8362  0.0943 -0.1013
29527SOL    HW193428   9.119   7.165   0.133 -0.8915  0.0487  0.1727
29527SOL    HW293429   9.104   7.090   0.263  1.0787 -0.5997  0.0563
29528SOL     OW93430   6.818   4.003   9.734 -0.1815 -0.0901 -1.1540
29528SOL    HW193431   6.759   4.033   9.804 -0.1882 -1.0217 -0.7504
29528SOL    HW293432   6.760   3.970   9.666 -0.1656  0.5745 -1.5017
29529SOL     OW93433   2.487   6.459   6.690  0.0936 -0.4880 -0.1749
29529SOL    HW193434   2.433   6.534   6.662 -0.0761 -0.9931 -1.2387
29529SOL    HW293435   2.423   6.390   6.709  0.3040 -0.6604 -0.0974
29530SOL     OW93436   7.599   1.496   5.904  0.6488 -0.2389  0.9717
29530SOL    HW193437   7.587   1.410   5.862  3.7876 -1.5132  2.3696
29530SOL    HW293438   7.538   1.495   5.977  1.2801 -1.7397  1.5210
29531SOL     OW93439   0.045   4.563   9.746 -0.3727 -0.7701 -0.0529
29531SOL    HW193440   0.054   4.484   9.800 -0.2111 -0.4996  0.3164
29531SOL    HW293441   0.049   4.530   9.656  0.9810 -1.0662  0.0820
29532SOL     OW93442   1.288   0.548   4.030  0.4914 -0.1714 -0.3079
29532SOL    HW193443   1.222   0.569   4.097  1.3948 -1.2968  0.9996
29532SOL    HW293444   1.369   0.538   4.080  1.8060  1.6597 -1.9189
29533SOL     OW93445   9.531   3.444   2.290 -0.2376 -0.6938  0.2711
29533SOL    HW193446   9.575   3.382   2.347  2.4908  0.9628  0.1400
29533SOL    HW293447   9.577   3.436   2.206  0.2519  1.4482  0.2636
29534SOL     OW93448   3.461   9.509   0.990 -0.0959  0.6731  0.5154
29534SOL    HW193449   3.538   9.552   1.026 -0.9394  2.1063  0.7042
29534SOL    HW293450   3.444   9.554   0.908  0.1992 -0.7301 -0.3382
29535SOL     OW93451   4.818   1.435   9.430  0.1988  0.4966  0.1994
29535SOL    HW193452   4.830   1.456   9.337  1.5196  0.9294  0.4408
29535SOL    HW293453   4.907   1.419   9.462 -0.4344 -2.3414  0.8117
29536SOL     OW93454   9.179   6.004   6.481 -0.3290  0.2884  0.5390
29536SOL    HW193455   9.090   6.013   6.513 -0.4328 -2.3252  1.1975
29536SOL    HW293456   9.179   5.923   6.430  1.7808 -0.0705  0.9947
29537SOL     OW93457   3.743   8.176   8.169 -0.2558 -0.1218  0.5020
29537SOL    HW193458   3.699   8.261   8.155 -1.2992 -0.3960  1.9237
29537SOL    HW293459   3.690   8.133   8.236  0.1963 -1.9626 -0.2825
29538SOL     OW93460   2.305   4.339   5.041  0.0315 -0.5124 -0.1533
29538SOL    HW193461   2.216   4.371   5.023  0.4252  0.0445 -1.2279
29538SOL    HW293462   2.316   4.350   5.136 -0.0426  2.1630 -0.3765
29539SOL     OW93463   3.842   3.031   4.064  0.4932  0.3070  0.9405
29539SOL    HW193464   3.845   2.945   4.022 -1.0494  0.8635 -0.3967
29539SOL    HW293465   3.931   3.065   4.053  1.1168 -1.0514  1.4414
29540SOL     OW93466   5.480   6.478   6.943 -0.0227 -0.0271 -0.3155
29540SOL    HW193467   5.528   6.532   7.006  0.5243  1.2344 -1.7397
29540SOL    HW293468   5.497   6.388   6.970  2.8690  0.3559 -0.5173
29541SOL     OW93469   6.646   1.573   3.601  0.1980 -0.5714  0.3996
29541SOL    HW193470   6.573   1.562   3.662 -0.2881  0.2583 -0.0213
29541SOL    HW293471   6.720   1.530   3.645 -0.9100 -3.0601  0.0280
29542SOL     OW93472   0.452   1.516   2.996  0.0511  0.3901 -0.4624
29542SOL    HW193473   0.356   1.514   2.998 -0.1004  1.1425 -3.2315
29542SOL    HW293474   0.477   1.520   3.089 -2.6046  1.2968  0.3285
29543SOL     OW93475   6.999   8.413   0.919 -0.0235 -0.7226  0.4100
29543SOL    HW193476   7.081   8.365   0.932 -0.0573 -1.6670 -2.2340
29543SOL    HW293477   6.987   8.415   0.824 -2.0177  1.2397  0.6065
29544SOL     OW93478   1.704   1.952   8.808  0.1499 -0.5580 -0.0306
29544SOL    HW193479   1.642   1.971   8.737  0.2653 -0.2494 -0.0496
29544SOL    HW293480   1.649   1.936   8.885  0.0707  0.4147  0.1184
29545SOL     OW93481   8.385   5.657   9.647 -0.1421 -0.1150 -0.0736
29545SOL    HW193482   8.340   5.729   9.691 -1.2075 -1.1528  0.5705
29545SOL    HW293483   8.324   5.629   9.579  0.4430 -0.1585 -0.5903
29546SOL     OW93484   3.199   2.246   8.034 -0.1833  0.0589 -0.4271
29546SOL    HW193485   3.141   2.198   8.092  1.4371 -1.0223  0.3555
29546SOL    HW293486   3.266   2.183   8.008 -1.2098  0.2316 -4.1320
29547SOL     OW93487   5.020   7.569   3.164 -0.0869  0.1236  0.2713
29547SOL    HW193488   5.097   7.581   3.221  0.7121 -2.0304 -0.2663
29547SOL    HW293489   4.946   7.571   3.224  0.6993 -1.5899  1.3720
29548SOL     OW93490   2.254   1.016   7.787  0.0325 -0.1995 -0.3120
29548SOL    HW193491   2.325   0.993   7.728 -0.8364 -0.8951 -1.1169
29548SOL    HW293492   2.295   1.070   7.854  1.1437  0.1628 -1.2548
29549SOL     OW93493   5.837   1.119   6.008 -0.2150 -0.5213  0.0752
29549SOL    HW193494   5.904   1.097   5.943  0.0939 -1.4100  0.6770
29549SOL    HW293495   5.884   1.120   6.092 -0.8193 -0.4845  0.4161
29550SOL     OW93496   4.497   4.001   5.126  0.6327 -0.3635 -0.6099
29550SOL    HW193497   4.531   3.967   5.043  0.5273 -0.8681 -0.4486
29550SOL    HW293498   4.470   3.924   5.174  1.6943 -0.1692  0.3497
29551SOL     OW93499   6.137   8.027   0.631  0.3536  0.1651  0.3911
29551SOL    HW193500   6.223   8.014   0.671  0.9800 -0.8652 -1.1824
29551SOL    HW293501   6.152   8.091   0.561 -0.0038 -0.5368 -0.3395
29552SOL     OW93502   4.547   9.611   2.026 -0.8363 -0.6404 -0.2223
29552SOL    HW193503   4.541   9.696   2.068  3.5391  0.1398 -0.7107
29552SOL    HW293504   4.509   9.550   2.089 -1.0320  1.2764  1.6248
29553SOL     OW93505   9.300   5.074   3.851 -0.2604  0.5686 -0.4197
29553SOL    HW193506   9.373   5.131   3.829  1.5657 -2.3080 -2.5669
29553SOL    HW293507   9.222   5.122   3.823  1.1547  2.0316 -2.0815
29554SOL     OW93508   3.901   8.087   0.171 -0.1185  0.0799  0.1596
29554SOL    HW193509   3.964   8.107   0.102  0.1139  0.6446  0.5264
29554SOL    HW293510   3.839   8.160   0.169 -2.0419 -1.4959 -1.6089
29555SOL     OW93511   7.022   9.274   3.808 -0.0605  0.3214  0.1680
29555SOL    HW193512   6.989   9.324   3.734 -0.9807  0.2021  0.4840
29555SOL    HW293513   6.963   9.199   3.815  0.6784 -0.2603  0.3473
29556SOL     OW93514   0.731   5.621   0.056 -0.2283 -0.0745 -0.0819
29556SOL    HW193515   0.666   5.623  -0.014  0.9569 -1.4550 -1.2712
29556SOL    HW293516   0.694   5.677   0.124 -2.8901 -1.1517 -0.5098
29557SOL     OW93517   7.250   2.416   3.782  0.5935  0.5190  0.2875
29557SOL    HW193518   7.272   2.455   3.868  1.8902 -3.4230  1.9603
29557SOL    HW293519   7.335   2.408   3.738  0.0217  1.7696 -1.1389
29558SOL     OW93520   1.304   2.918   0.605 -0.5665 -0.1025 -0.2556
29558SOL    HW193521   1.218   2.960   0.600 -0.7530 -0.6473 -3.2207
29558SOL    HW293522   1.305   2.877   0.691 -3.7217 -0.9823 -0.4993
29559SOL     OW93523   8.321   3.492   6.801 -0.3621  0.2936 -0.8123
29559SOL    HW193524   8.284   3.580   6.787 -0.8925  0.1833 -0.1591
29559SOL    HW293525   8.288   3.441   6.727  0.0320  0.6666 -1.2527
29560SOL     OW93526   9.543   1.022   2.499 -0.0965  0.1772 -0.6401
29560SOL    HW193527   9.550   0.929   2.522  0.5615 -0.0200 -1.5593
29560SOL    HW293528   9.609   1.065   2.552  0.0421  0.0186 -0.6818
29561SOL     OW93529   9.587   5.555   2.395  0.4421 -0.0192 -0.0261
29561SOL    HW193530   9.578   5.629   2.455  0.8248  0.6470 -0.7742
29561SOL    HW293531   9.502   5.549   2.351  0.0422 -0.7309  0.8177
29562SOL     OW93532   1.651   4.872   1.468 -0.2324 -0.0674  0.1084
29562SOL    HW193533   1.742   4.888   1.490 -0.4846  0.4998  0.7702
29562SOL    HW293534   1.608   4.956   1.480 -1.1325 -0.6621  1.2853
29563SOL     OW93535   5.935   3.791   6.625  0.1403  0.1719 -0.1545
29563SOL    HW193536   6.009   3.838   6.663 -0.0158  1.1465 -0.9756
29563SOL    HW293537   5.902   3.736   6.695  0.1127  1.5827  0.9869
29564SOL     OW93538   1.639   3.690   2.404 -0.1525  0.4811  0.4073
29564SOL    HW193539   1.583   3.614   2.414  3.0674 -2.0916  0.7333
29564SOL    HW293540   1.665   3.689   2.311  0.6478  0.6072  0.6214
29565SOL     OW93541   7.556   0.892   0.625  0.1795 -0.2195  0.5836
29565SOL    HW193542   7.640   0.939   0.630  0.3603 -0.2798 -1.3218
29565SOL    HW293543   7.577   0.810   0.582 -0.6703 -0.7755  1.1983
29566SOL     OW93544   8.616   5.062   1.967  0.0361 -0.1353  0.0014
29566SOL    HW193545   8.571   5.052   2.051 -1.9100 -0.3285 -1.0090
29566SOL    HW293546   8.643   4.973   1.943  2.3872  0.1515  1.2920
29567SOL     OW93547   1.943   0.449   2.672 -0.0358  0.4843 -0.2563
29567SOL    HW193548   1.893   0.387   2.619  0.3257  0.1147 -0.1723
29567SOL    HW293549   1.910   0.438   2.761  0.8605 -0.4780 -0.0183
29568SOL     OW93550   0.702   1.192   0.527  1.1547  0.3236 -0.1983
29568SOL    HW193551   0.640   1.253   0.567  0.7389 -0.9090  1.0751
29568SOL    HW293552   0.759   1.249   0.474 -0.3701  1.5977 -0.5478
29569SOL     OW93553   7.748   3.133   0.188 -0.5556  0.2364  0.5190
29569SOL    HW193554   7.763   3.073   0.115 -0.5631  0.7401  0.0984
29569SOL    HW293555   7.809   3.104   0.256  1.3717  1.3716 -0.6463
29570SOL     OW93556   3.092   6.523   4.935 -0.6582  0.2771  0.2526
29570SOL    HW193557   3.137   6.602   4.966  1.0281 -0.6497  0.3280
29570SOL    HW293558   3.138   6.500   4.854 -0.1435 -1.3912  0.9744
29571SOL     OW93559   1.924   7.182   1.402  0.6745 -0.0503  0.2375
29571SOL    HW193560   1.876   7.100   1.410  0.4165  0.1236  0.4865
29571SOL    HW293561   1.982   7.184   1.478  1.2731 -0.3830 -0.2008
29572SOL     OW93562   3.037   9.024   4.706  0.3208 -0.8175  0.3355
29572SOL    HW193563   3.023   8.938   4.746  0.3264 -1.0161 -0.0773
29572SOL    HW293564   3.081   9.075   4.773 -0.1192 -0.9834  0.7567
29573SOL     OW93565   2.345   5.159   0.749 -0.2921 -0.2508 -0.0106
29573SOL    HW193566   2.383   5.163   0.662  0.3537 -1.7258  0.1705
29573SOL    HW293567   2.259   5.199   0.740  0.4452  1.2360 -0.9004
29574SOL     OW93568   1.475   9.213   0.399 -0.1195  0.4012  0.4295
29574SOL    HW193569   1.413   9.215   0.327  0.4817  3.1979 -0.1465
29574SOL    HW293570   1.423   9.189   0.475 -1.0501 -1.2099 -0.6674
29575SOL     OW93571   6.938   5.927   4.161 -0.5119  0.1735  0.0077
29575SOL    HW193572   6.940   5.987   4.235 -0.0522 -0.9466  0.9174
29575SOL    HW293573   6.931   5.840   4.200  0.9902 -0.5345 -1.1988
29576SOL     OW93574   8.286   3.747   0.333 -0.0647  0.3846 -0.0651
29576SOL    HW193575   8.281   3.829   0.283 -0.3494  0.4273  0.0306
29576SOL    HW293576   8.357   3.698   0.291  0.0633  0.6514 -0.1640
29577SOL     OW93577   8.942   0.031   6.121  0.2705  0.0965 -0.1314
29577SOL    HW193578   9.016   0.069   6.075  1.3476 -0.9066  0.7313
29577SOL    HW293579   8.980  -0.012   6.197 -1.2153 -0.2855  0.4271
29578SOL     OW93580   5.075   7.062   9.054  1.0049  0.1154  0.3003
29578SOL    HW193581   4.998   7.033   9.102  1.5066  0.4771  1.3559
29578SOL    HW293582   5.117   7.125   9.112  0.9691  1.5218 -1.1347
29579SOL     OW93583   3.980   5.311   8.137 -0.4553  0.2077  0.0438
29579SOL    HW193584   4.045   5.358   8.188  2.0300 -1.3897 -1.4495
29579SOL    HW293585   4.002   5.332   8.046 -2.8068  0.5210 -0.5164
29580SOL     OW93586   3.662   6.914   7.501  0.3310 -0.0564 -0.3406
29580SOL    HW193587   3.579   6.871   7.481 -0.1842  1.0554 -0.6198
29580SOL    HW293588   3.687   6.878   7.587 -0.4811 -0.3272 -0.2077
29581SOL     OW93589   8.122   4.912   6.577  0.0290 -0.0902 -0.2185
29581SOL    HW193590   8.112   4.854   6.501 -1.1824 -1.2179  0.7459
29581SOL    HW293591   8.053   4.978   6.566  0.3938  0.2426 -0.5178
29582SOL     OW93592   8.053   0.690   3.539 -0.4055  0.4099 -0.0032
29582SOL    HW193593   8.019   0.748   3.472 -1.2956 -1.5877 -1.3865
29582SOL    HW293594   8.133   0.654   3.501 -0.3792  0.0036  0.4238
29583SOL     OW93595   7.311   0.084   1.048  0.2175  0.4679  0.5151
29583SOL    HW193596   7.390   0.035   1.024  0.0439  1.5378 -2.7100
29583SOL    HW293597   7.259   0.022   1.099  2.3917 -0.7935  1.3566
29584SOL     OW93598   2.889   3.422   1.861 -0.2355 -0.3791 -0.3265
29584SOL    HW193599   2.857   3.332   1.858  0.7276 -0.7211 -1.4273
29584SOL    HW293600   2.983   3.414   1.844  0.2335  0.6754  1.5440
29585SOL     OW93601   6.668   3.821   7.309 -0.2143 -0.2696 -0.2205
29585SOL    HW193602   6.629   3.902   7.274 -1.0687 -0.3319  0.5509
29585SOL    HW293603   6.679   3.765   7.232  1.5338  0.9925 -0.9878
29586SOL     OW93604   5.621   5.847   0.192 -0.1661  0.3342 -0.2746
29586SOL    HW193605   5.560   5.890   0.131 -1.0382  0.1793  0.4635
29586SOL    HW293606   5.573   5.844   0.275  0.8726  0.2353  0.3337
29587SOL     OW93607   0.561   4.394   8.963 -0.0691 -0.1658 -0.2168
29587SOL    HW193608   0.474   4.432   8.971 -0.0781 -0.2827  0.3294
29587SOL    HW293609   0.588   4.413   8.874  0.6927  2.7371  0.5346
29588SOL     OW93610   3.553   3.955   2.505 -0.2682 -0.0473  0.1433
29588SOL    HW193611   3.524   4.002   2.583  0.6204  2.4876 -0.9343
29588SOL    HW293612   3.637   3.916   2.531 -1.1461 -1.3929  1.1350
29589SOL     OW93613   5.213   3.639   7.385  0.4254 -0.2716 -0.5140
29589SOL    HW193614   5.228   3.717   7.333 -0.1573 -0.1421 -0.4883
29589SOL    HW293615   5.239   3.566   7.328 -1.4510 -0.2221 -1.4835
29590SOL     OW93616   0.159   1.877   4.710 -0.7680 -0.3867  0.3836
29590SOL    HW193617   0.227   1.810   4.706 -0.3171  0.1120 -1.4563
29590SOL    HW293618   0.111   1.866   4.628 -1.9579  0.2559  0.9776
29591SOL     OW93619   2.347   2.198   5.698  0.6411  0.3266 -0.2618
29591SOL    HW193620   2.437   2.170   5.715  1.1245  1.5738 -0.6506
29591SOL    HW293621   2.331   2.269   5.760 -0.5758 -0.7595  0.7399
29592SOL     OW93622   8.527   7.731   9.028 -0.1895  0.4339 -0.1641
29592SOL    HW193623   8.530   7.723   9.123 -0.6272  1.6710 -0.0251
29592SOL    HW293624   8.513   7.642   8.996 -3.2228  0.3452  1.0952
29593SOL     OW93625   3.461   1.947   6.696 -0.8740 -0.1335 -0.2935
29593SOL    HW193626   3.545   1.975   6.660  0.3686 -3.0255  0.0549
29593SOL    HW293627   3.421   1.897   6.625 -1.3317 -0.5343  0.2444
29594SOL     OW93628   0.943   2.791   7.761  0.3314  0.0616  0.4958
29594SOL    HW193629   0.860   2.822   7.723  0.2763 -0.3351  0.2801
29594SOL    HW293630   0.953   2.703   7.725 -1.0564 -1.4379  3.3926
29595SOL     OW93631   3.869   4.924   0.215  0.0353 -0.2602 -0.4414
29595SOL    HW193632   3.902   4.873   0.288  0.4846  1.4429  0.6115
29595SOL    HW293633   3.943   4.979   0.189  0.5035 -2.0930 -3.4610
29596SOL     OW93634   8.748   6.492   7.081  0.7271  0.1383 -0.1876
29596SOL    HW193635   8.707   6.415   7.122 -0.0896  1.6528  2.0847
29596SOL    HW293636   8.841   6.472   7.080  0.7296 -0.2724  1.9803
29597SOL     OW93637   7.849   6.567   7.854  0.3685  0.5149 -0.5934
29597SOL    HW193638   7.821   6.546   7.765 -0.2391 -0.5757 -0.1504
29597SOL    HW293639   7.943   6.546   7.855  0.6672  1.7155 -1.3185
29598SOL     OW93640   9.455   8.324   8.073  0.6472  0.0397  0.7075
29598SOL    HW193641   9.408   8.304   7.993  0.1224  2.9238  0.1865
29598SOL    HW293642   9.409   8.275   8.141  0.2300 -1.3418 -0.5426
29599SOL     OW93643   2.206   2.044   3.134 -0.1879  0.1682 -0.1195
29599SOL    HW193644   2.144   2.015   3.201 -0.8618 -0.8260 -1.1460
29599SOL    HW293645   2.275   1.977   3.133 -0.1243  0.2353 -0.3484
29600SOL     OW93646   4.046   9.099   1.602 -0.7336  0.1973  0.2945
29600SOL    HW193647   4.083   9.110   1.689 -0.3164 -2.3165  0.5021
29600SOL    HW293648   4.020   9.187   1.576 -2.8089  0.8168  3.7800
29601SOL     OW93649   2.925   3.626   5.435 -0.6961 -0.4448 -0.3010
29601SOL    HW193650   2.954   3.602   5.347  0.0622  1.6245 -0.6691
29601SOL    HW293651   2.850   3.568   5.452 -0.6920 -1.0743 -2.1855
29602SOL     OW93652   6.778   4.901   2.840  0.6632 -0.9129  0.0531
29602SOL    HW193653   6.754   4.868   2.927 -1.6992 -0.4794 -0.3719
29602SOL    HW293654   6.781   4.996   2.850 -1.3155 -0.7305 -0.6624
29603SOL     OW93655   8.219   5.889   9.178 -0.3798  0.8027  0.4211
29603SOL    HW193656   8.188   5.926   9.261  1.9134  2.3197  0.7033
29603SOL    HW293657   8.312   5.870   9.194 -0.6368 -1.8613 -0.8710
29604SOL     OW93658   7.785   0.400   9.602 -0.2750 -0.6080  0.5794
29604SOL    HW193659   7.828   0.326   9.558 -0.5911 -1.0168  0.9414
29604SOL    HW293660   7.757   0.364   9.687  0.0526  0.0744  0.9881
29605SOL     OW93661   6.434   9.246   6.218  0.0897  0.1855 -0.3774
29605SOL    HW193662   6.425   9.152   6.201 -0.7954  0.2772 -0.4773
29605SOL    HW293663   6.522   9.256   6.254 -0.2132 -0.8301  0.6876
29606SOL     OW93664   8.007   1.480   1.455 -0.4115 -0.9386 -0.1389
29606SOL    HW193665   8.007   1.480   1.551 -3.0368 -0.8848 -0.0621
29606SOL    HW293666   8.045   1.395   1.432 -1.2925 -1.6914  1.0188
29607SOL     OW93667   3.104   9.710   5.429  0.0517  0.1336 -0.1961
29607SOL    HW193668   3.098   9.805   5.443  1.8478  0.2540 -0.0383
29607SOL    HW293669   3.013   9.682   5.421 -0.5130  2.1482 -2.1536
29608SOL     OW93670   4.833   7.923   0.554 -0.1752 -0.0839  0.9217
29608SOL    HW193671   4.803   7.853   0.496 -2.3614 -0.2838  2.1991
29608SOL    HW293672   4.929   7.916   0.552 -0.2778 -1.7581 -0.5827
29609SOL     OW93673   2.571   6.260   3.108 -0.1838  0.1528  0.0531
29609SOL    HW193674   2.576   6.260   3.204  0.5433  2.3222  0.0684
29609SOL    HW293675   2.658   6.231   3.080 -0.3201 -0.2502  0.0399
29610SOL     OW93676   6.284   8.952   7.939  0.0510 -0.2472  0.1649
29610SOL    HW193677   6.287   8.894   8.015 -1.6874 -0.8576 -0.1848
29610SOL    HW293678   6.318   8.899   7.867  1.5038  0.2654  0.4371
29611SOL     OW93679   6.793   0.836   3.676 -0.0705 -0.1993 -0.2101
29611SOL    HW193680   6.818   0.802   3.590 -0.3701 -0.2569 -0.2749
29611SOL    HW293681   6.722   0.897   3.658 -0.5364 -0.6624  0.0559
29612SOL     OW93682   9.123   5.099   6.264  0.0521 -0.1320 -0.1823
29612SOL    HW193683   9.048   5.052   6.227  0.7016 -1.3000 -0.0508
29612SOL    HW293684   9.128   5.068   6.355  0.7881 -0.1923 -0.2378
29613SOL     OW93685   1.739   7.489   3.692  0.4499 -0.5221  0.0317
29613SOL    HW193686   1.763   7.483   3.785 -0.2515 -0.3928  0.2305
29613SOL    HW293687   1.778   7.412   3.652 -0.1692 -1.1712  0.6483
29614SOL     OW93688   3.295   9.660   2.376  0.2147  0.3696  0.1185
29614SOL    HW193689   3.252   9.580   2.348 -0.0266  1.0040 -1.4101
29614SOL    HW293690   3.226   9.713   2.416 -0.4181  1.2225 -1.9801
29615SOL     OW93691   4.083   1.877   3.851  0.9500  0.2047  0.3388
29615SOL    HW193692   4.073   1.850   3.760  0.3325  1.2751  0.0750
29615SOL    HW293693   4.004   1.846   3.895  0.1728  1.6159  0.0057
29616SOL     OW93694   5.652   9.025   9.439 -0.0329  0.0856  0.4420
29616SOL    HW193695   5.678   9.082   9.367 -0.0304 -1.0962 -0.5244
29616SOL    HW293696   5.595   9.079   9.494 -1.5514  0.4870 -1.4366
29617SOL     OW93697   9.499   0.807   0.060  0.5917  0.4448 -0.7405
29617SOL    HW193698   9.417   0.825   0.015  0.1066 -0.7565 -0.3748
29617SOL    HW293699   9.504   0.876   0.127 -0.6907 -0.0809 -0.0476
29618SOL     OW93700   2.160   2.817   1.188  0.4382  0.3634  0.1751
29618SOL    HW193701   2.066   2.801   1.182  0.4621  0.1490  0.3382
29618SOL    HW293702   2.168   2.902   1.232  0.3104  0.7760 -0.5813
29619SOL     OW93703   3.826   1.979   1.781 -0.2727 -0.2182  0.2971
29619SOL    HW193704   3.827   1.885   1.797  1.3743 -0.2748  0.1108
29619SOL    HW293705   3.777   1.990   1.700  1.8968 -1.2508 -1.2418
29620SOL     OW93706   6.866   5.877   6.196  0.0869  0.1805 -0.2903
29620SOL    HW193707   6.837   5.786   6.199  0.1740  0.0769 -1.7452
29620SOL    HW293708   6.786   5.929   6.208  0.1251 -0.0680  1.1572
29621SOL     OW93709   8.191   9.261   2.505 -0.2045  0.4813  0.2931
29621SOL    HW193710   8.214   9.240   2.596  1.0046 -0.6637 -0.2542
29621SOL    HW293711   8.149   9.347   2.511 -2.3312 -0.5747  2.2329
29622SOL     OW93712   3.972   3.642   0.416  0.5041  0.8505  0.4548
29622SOL    HW193713   4.051   3.595   0.444 -0.0880 -0.2810  0.3021
29622SOL    HW293714   3.938   3.681   0.496  0.8460  0.7614  0.6462
29623SOL     OW93715   1.954   4.904   4.976  0.0383 -0.0233 -0.2298
29623SOL    HW193716   1.997   4.942   5.053  0.1968 -0.9805  0.1645
29623SOL    HW293717   1.861   4.920   4.990  0.0911  0.0770  0.0157
29624SOL     OW93718   0.037   0.811   2.300 -0.2122  0.4430  0.4348
29624SOL    HW193719   0.035   0.905   2.321 -0.3383  0.3317  0.9347
29624SOL    HW293720   0.058   0.769   2.384  0.6261  0.0766  0.0542
29625SOL     OW93721   0.595   6.271   4.624 -0.0070 -0.0532  0.4582
29625SOL    HW193722   0.550   6.353   4.644  0.9972  1.6007 -3.2509
29625SOL    HW293723   0.536   6.225   4.564  0.4217 -0.9876  0.7346
29626SOL     OW93724   8.007   3.662   6.940 -0.0207  0.0803 -0.2807
29626SOL    HW193725   8.093   3.701   6.955 -0.4121  1.6296 -1.7704
29626SOL    HW293726   8.003   3.589   7.001  2.5341 -0.3204 -0.4963
29627SOL     OW93727   5.081   8.318   0.570  0.0560 -0.3846  0.2190
29627SOL    HW193728   5.090   8.413   0.576  1.1055 -0.5067  0.8709
29627SOL    HW293729   5.035   8.294   0.651  1.1416 -0.5644  0.8044
29628SOL     OW93730   9.308   4.894   9.744  0.4119 -0.4643 -0.2458
29628SOL    HW193731   9.334   4.907   9.652 -0.1513 -0.4409 -0.4077
29628SOL    HW293732   9.326   4.802   9.761  0.8175 -0.3950 -0.2799
29629SOL     OW93733   9.190   6.280   4.765  0.5889  0.3628 -0.1387
29629SOL    HW193734   9.105   6.281   4.809  0.2798 -0.0880 -0.7216
29629SOL    HW293735   9.239   6.210   4.809  0.1583 -0.3180 -0.7406
29630SOL     OW93736   7.780   4.171   4.738 -0.3624  0.3694 -0.0468
29630SOL    HW193737   7.812   4.257   4.767  0.5270  0.0825 -0.1705
29630SOL    HW293738   7.733   4.137   4.814 -0.5410  0.8768  0.0750
29631SOL     OW93739   0.196   1.132   2.911 -0.5318  0.2205  0.2837
29631SOL    HW193740   0.280   1.099   2.944 -1.3913 -0.8859  1.4812
29631SOL    HW293741   0.193   1.223   2.940  0.6779  0.6124 -0.6860
29632SOL     OW93742   1.874   0.629   6.540  0.5978  0.7335 -0.5101
29632SOL    HW193743   1.799   0.615   6.598  1.7980 -0.5859  0.8124
29632SOL    HW293744   1.945   0.654   6.599  2.4706 -2.8560 -0.9743
29633SOL     OW93745   6.654   7.908   7.762 -0.2140 -0.1125  0.8393
29633SOL    HW193746   6.740   7.909   7.805 -0.3759  1.4144  1.1946
29633SOL    HW293747   6.602   7.846   7.814  1.1933 -2.6257 -0.5661
29634SOL     OW93748   1.345   4.950   7.224 -0.5022 -0.1842  0.4727
29634SOL    HW193749   1.308   5.022   7.173  0.2487 -0.2566 -0.1868
29634SOL    HW293750   1.430   4.933   7.184 -0.4386 -1.0791  0.9633
29635SOL     OW93751   1.405   0.803   1.087 -0.5658 -0.2265 -0.7808
29635SOL    HW193752   1.478   0.768   1.137 -0.9128  1.4766  1.0662
29635SOL    HW293753   1.327   0.778   1.137 -0.9742  0.8749 -0.8244
29636SOL     OW93754   1.925   8.331   5.061 -0.1657 -0.2196 -0.2905
29636SOL    HW193755   1.935   8.408   5.117  0.3838  0.8040 -1.7277
29636SOL    HW293756   1.831   8.324   5.046 -0.3150 -0.4691  0.6831
29637SOL     OW93757   6.419   9.170   5.875 -0.5465  0.5479  0.0373
29637SOL    HW193758   6.343   9.142   5.927  0.7263  0.0666  1.7089
29637SOL    HW293759   6.409   9.123   5.792 -1.9068  0.2464  0.3390
29638SOL     OW93760   2.072   4.091   2.182  0.1934  0.1581  0.1044
29638SOL    HW193761   2.047   3.999   2.192  0.8473 -0.2972 -1.8837
29638SOL    HW293762   2.160   4.095   2.220 -0.3669  0.3181  1.4459
29639SOL     OW93763   7.108   9.684   5.821  0.7352 -0.2975  0.1954
29639SOL    HW193764   7.188   9.637   5.844 -0.6208 -2.5993  0.5307
29639SOL    HW293765   7.090   9.659   5.730  0.7081  0.6771 -0.0721
29640SOL     OW93766   2.638   1.454   2.292  0.2981  0.0053 -0.4197
29640SOL    HW193767   2.720   1.500   2.307 -0.0569 -0.0238  1.8725
29640SOL    HW293768   2.650   1.413   2.205  3.4346 -1.4763  0.5323
29641SOL     OW93769   5.058   7.229   2.496  0.0006 -0.3471  0.1762
29641SOL    HW193770   5.019   7.244   2.409  1.9743 -1.0841 -0.9101
29641SOL    HW293771   5.145   7.268   2.489 -0.6994  2.0315  2.7846
29642SOL     OW93772   1.228   1.304   1.585  0.4857 -0.1387  0.6904
29642SOL    HW193773   1.274   1.273   1.663  1.2912  0.4993  0.4790
29642SOL    HW293774   1.291   1.361   1.541 -0.5397  0.8353  0.4480
29643SOL     OW93775   1.231   2.906   0.910  0.2554 -0.2348 -0.1403
29643SOL    HW193776   1.203   2.992   0.942  0.6155 -0.6650  1.4105
29643SOL    HW293777   1.326   2.913   0.903  0.3286 -0.6236  0.3970
29644SOL     OW93778   8.366   0.044   0.663  0.2203  0.5061  0.4460
29644SOL    HW193779   8.397   0.031   0.573  0.1656  2.0060  0.1963
29644SOL    HW293780   8.282   0.087   0.654  0.0411  0.3366  1.2207
29645SOL     OW93781   4.095   3.611   2.971 -0.1999  0.0012 -0.1721
29645SOL    HW193782   4.003   3.616   2.996 -0.7504 -1.5950 -1.6563
29645SOL    HW293783   4.137   3.566   3.045 -0.4778  1.2008  0.7460
29646SOL     OW93784   6.031   9.673   1.105 -0.2707 -0.5700  0.4418
29646SOL    HW193785   6.019   9.623   1.024  0.8268 -0.7554  0.3830
29646SOL    HW293786   5.993   9.759   1.085 -2.2814 -1.3624  0.5820
29647SOL     OW93787   1.111   5.273   5.049 -0.0507 -0.8251  0.0678
29647SOL    HW193788   1.070   5.194   5.013 -0.6392 -0.3151 -0.4055
29647SOL    HW293789   1.205   5.254   5.049 -0.0559 -0.9927 -1.4136
29648SOL     OW93790   0.895   2.516   2.501  0.1342 -0.1479  0.1269
29648SOL    HW193791   0.894   2.550   2.411 -0.5317  0.1915  0.2608
29648SOL    HW293792   0.832   2.444   2.499  2.4055 -2.2871 -0.4803
29649SOL     OW93793   8.871   3.052   9.611 -0.1130  0.2429 -0.4490
29649SOL    HW193794   8.874   3.124   9.548 -0.6436  1.2476  0.6310
29649SOL    HW293795   8.924   3.083   9.685 -2.1892  0.5318  1.0022
29650SOL     OW93796   2.324   2.271   0.456 -0.3931 -0.0150  0.3520
29650SOL    HW193797   2.239   2.227   0.450 -0.0227 -0.6278 -0.6000
29650SOL    HW293798   2.330   2.322   0.375  0.5896 -0.7990 -0.0855
29651SOL     OW93799   2.119   5.362   7.124  0.0773  0.5038 -0.1082
29651SOL    HW193800   2.149   5.449   7.148 -1.2864  1.2695 -1.0261
29651SOL    HW293801   2.196   5.306   7.132  1.2859  2.0242 -0.7284
29652SOL     OW93802   7.405   0.130   4.539  0.0770 -0.3522  0.1074
29652SOL    HW193803   7.403   0.053   4.596 -1.7970 -0.2639  0.2161
29652SOL    HW293804   7.399   0.095   4.451 -0.2376 -0.3543  0.1295
29653SOL     OW93805   2.541   3.841   2.387  0.5089  0.2364 -0.0290
29653SOL    HW193806   2.592   3.780   2.334  0.1009 -0.9508  0.8934
29653SOL    HW293807   2.607   3.890   2.437  0.8723  1.1210 -1.3340
29654SOL     OW93808   8.609   8.614   9.214  0.0511 -0.3968  0.0367
29654SOL    HW193809   8.655   8.530   9.220  1.1801  0.1394 -0.7398
29654SOL    HW293810   8.671   8.678   9.249 -0.3302  0.2695 -0.4856
29655SOL     OW93811   3.580   9.622   4.350  0.0313  0.1191  0.3759
29655SOL    HW193812   3.675   9.622   4.363 -0.1174  1.2084  1.6151
29655SOL    HW293813   3.569   9.652   4.260  0.8651 -0.8621 -0.0880
29656SOL     OW93814   4.296   8.976   7.500 -0.5358  0.5333 -0.6293
29656SOL    HW193815   4.266   8.938   7.417 -0.4124 -2.2553  0.5138
29656SOL    HW293816   4.245   8.930   7.567  1.4108  0.6293  0.9788
29657SOL     OW93817   0.777   5.549   3.843 -0.1447 -0.0040  0.4201
29657SOL    HW193818   0.728   5.511   3.770  0.0521 -0.9709  0.7745
29657SOL    HW293819   0.709   5.588   3.899 -0.5674 -1.5803  1.0519
29658SOL     OW93820   2.352   7.849   2.683  0.1038 -0.4919 -0.1889
29658SOL    HW193821   2.346   7.934   2.728  0.1407 -0.6657  0.1458
29658SOL    HW293822   2.436   7.852   2.637  0.1775 -0.4073 -0.0505
29659SOL     OW93823   1.433   5.100   2.753  0.0690  0.2483 -0.1885
29659SOL    HW193824   1.420   5.054   2.835  1.0222 -0.1295 -0.2347
29659SOL    HW293825   1.445   5.192   2.778  1.0938  0.0320  0.1769
29660SOL     OW93826   8.833   6.953   0.275 -0.6897  0.1646  0.4163
29660SOL    HW193827   8.745   6.915   0.276 -0.6479 -0.2968 -2.8919
29660SOL    HW293828   8.846   6.981   0.184  2.8685 -0.4483  0.5887
29661SOL     OW93829   2.303   2.896   5.918 -0.0371 -0.0722 -0.2563
29661SOL    HW193830   2.238   2.921   5.853  0.2522  0.8407 -0.2108
29661SOL    HW293831   2.345   2.818   5.882  1.3729  1.4271 -2.0883
29662SOL     OW93832   8.077   2.948   2.878 -0.3084 -0.4865  0.2015
29662SOL    HW193833   8.061   2.979   2.789  0.5936 -0.7107 -0.0498
29662SOL    HW293834   8.002   2.892   2.898  0.4746 -2.1152 -1.2007
29663SOL     OW93835   1.570   5.900   2.063  0.6235 -0.1407 -0.0317
29663SOL    HW193836   1.552   5.867   2.151 -2.9774  0.2856 -0.4855
29663SOL    HW293837   1.646   5.957   2.075  0.5177 -0.4418  2.7212
29664SOL     OW93838   0.871   0.634   0.142 -1.0603  0.3927 -0.0222
29664SOL    HW193839   0.902   0.689   0.070  0.1743 -0.8370 -0.4872
29664SOL    HW293840   0.780   0.661   0.155 -0.8740  1.6484 -1.0628
29665SOL     OW93841   6.160   9.367   6.866 -0.4513 -0.1590 -0.0560
29665SOL    HW193842   6.070   9.339   6.878 -0.5295  0.2773  0.4197
29665SOL    HW293843   6.203   9.294   6.822 -1.3771  0.1932 -1.5923
29666SOL     OW93844   0.773   0.246   7.495  0.6693  0.1029 -0.0951
29666SOL    HW193845   0.678   0.238   7.496  0.6399  0.3127 -0.7154
29666SOL    HW293846   0.791   0.309   7.426  1.2406  0.3844  0.3047
29667SOL     OW93847   4.405   0.980   7.002  0.1269 -0.5677  0.1706
29667SOL    HW193848   4.437   0.919   7.068  1.5652 -0.2076 -0.1726
29667SOL    HW293849   4.438   0.945   6.919  1.8430  1.1924  0.0645
29668SOL     OW93850   1.288   4.658   8.229 -0.1246  0.3427 -0.1891
29668SOL    HW193851   1.244   4.576   8.211 -0.7038  0.8383 -1.1465
29668SOL    HW293852   1.345   4.640   8.304 -3.0730  0.0638  2.1656
29669SOL     OW93853   0.232   5.743   9.338  0.3087 -0.2886  0.3191
29669SOL    HW193854   0.289   5.671   9.311  0.6351 -0.3154  1.0677
29669SOL    HW293855   0.156   5.735   9.281  0.5697 -0.9141  0.0446
29670SOL     OW93856   3.070   6.242   8.996 -0.9200 -0.2574 -0.1968
29670SOL    HW193857   3.139   6.276   8.938 -0.1105  0.2962  1.0377
29670SOL    HW293858   3.004   6.311   8.997 -0.3043  0.3481  0.5682
29671SOL     OW93859   2.620   4.579   3.744 -0.0914 -0.2438 -0.4674
29671SOL    HW193860   2.663   4.640   3.685 -0.0146  0.3567  0.2049
29671SOL    HW293861   2.572   4.520   3.686  2.7090 -1.8292 -1.3507
29672SOL     OW93862   5.996   6.806   0.959  0.0748 -0.3464 -0.7434
29672SOL    HW193863   6.077   6.821   0.911  0.7520 -1.7254 -0.0886
29672SOL    HW293864   6.024   6.771   1.044 -1.2003 -1.4627 -0.7432
29673SOL     OW93865   5.678   5.944   8.224  0.1196 -0.1058  0.6399
29673SOL    HW193866   5.765   5.916   8.198 -0.0563 -1.5057  1.4924
29673SOL    HW293867   5.621   5.869   8.206 -0.8086  0.5704  0.6483
29674SOL     OW93868   0.376   4.463   7.421 -0.2985 -0.0136  0.3627
29674SOL    HW193869   0.419   4.491   7.340 -1.1823 -0.7642 -0.3750
29674SOL    HW293870   0.297   4.417   7.393  0.7953 -2.8561  1.4982
29675SOL     OW93871   7.736   6.084   1.938  0.9861  0.4107 -0.1879
29675SOL    HW193872   7.805   6.069   1.873  2.1727  2.1590  0.5678
29675SOL    HW293873   7.655   6.088   1.887  1.6519 -0.0910 -1.3230
29676SOL     OW93874   5.663   0.463   1.475 -0.4257  0.0632  0.2631
29676SOL    HW193875   5.724   0.487   1.406  0.0039  0.3886  0.7474
29676SOL    HW293876   5.713   0.406   1.533  0.5103  2.8793  2.4571
29677SOL     OW93877   4.177   3.105   3.320 -0.2951  0.3637  0.3839
29677SOL    HW193878   4.238   3.102   3.394 -1.2190  2.2640  1.3021
29677SOL    HW293879   4.119   3.178   3.340 -1.1575  0.3561 -1.8063
29678SOL     OW93880   5.318   3.489   6.090 -0.1207  0.2827 -0.0589
29678SOL    HW193881   5.359   3.550   6.029  0.4165  1.3418  1.3046
29678SOL    HW293882   5.351   3.403   6.063  1.7722  0.9357  0.0139
29679SOL     OW93883   7.481   0.200   3.086  0.4453 -0.0813 -0.5649
29679SOL    HW193884   7.497   0.106   3.076  1.1030  0.0156 -0.4608
29679SOL    HW293885   7.441   0.226   3.003  0.8725 -0.3274 -0.8493
29680SOL     OW93886   5.066   5.365   4.396 -0.0764 -0.1973 -0.3169
29680SOL    HW193887   5.142   5.420   4.414  1.2691 -2.0833  0.0172
29680SOL    HW293888   5.028   5.347   4.482  0.9303 -1.7135 -0.1515
29681SOL     OW93889   6.493   3.715   1.375  0.4846  0.3489 -0.2598
29681SOL    HW193890   6.399   3.727   1.385  0.4714 -0.6174  1.0167
29681SOL    HW293891   6.515   3.763   1.295 -1.1057  0.4481 -0.6696
29682SOL     OW93892   1.434   1.954   7.092 -0.1366  0.0354 -0.2010
29682SOL    HW193893   1.382   1.933   7.014 -1.4176 -0.3869  0.7404
29682SOL    HW293894   1.453   2.047   7.084 -2.0060  0.4586 -0.0305
29683SOL     OW93895   2.537   3.670   9.385  0.5897 -0.1137 -0.4333
29683SOL    HW193896   2.497   3.615   9.317 -0.0522  0.2809 -0.3806
29683SOL    HW293897   2.631   3.653   9.377  0.5126 -0.1634 -1.3430
29684SOL     OW93898   4.326   4.537   5.123  0.4613  0.1805  0.1405
29684SOL    HW193899   4.394   4.532   5.190  0.1585 -1.4877  0.3535
29684SOL    HW293900   4.303   4.630   5.120  2.7761  0.8295  0.0104
29685SOL     OW93901   7.578   5.545   9.563 -0.1059  0.5044  0.5416
29685SOL    HW193902   7.519   5.571   9.634 -2.4165  0.4203 -1.2406
29685SOL    HW293903   7.611   5.628   9.528 -0.8852  0.6769  0.1930
29686SOL     OW93904   1.997   3.236   6.037  0.6414 -0.2507  0.2559
29686SOL    HW193905   1.942   3.277   5.971  1.0737  0.8481  0.5569
29686SOL    HW293906   2.083   3.274   6.024  1.6323 -2.6530 -0.8479
29687SOL     OW93907   0.724   2.211   7.021 -0.2032 -0.1031  0.0299
29687SOL    HW193908   0.678   2.255   7.091 -1.6926 -1.6039  0.0450
29687SOL    HW293909   0.730   2.120   7.049  1.6813 -0.2195 -0.5595
29688SOL     OW93910   1.107   4.902   3.154 -0.3748  0.3504  0.0275
29688SOL    HW193911   1.038   4.859   3.105  0.3518  0.9329 -1.5760
29688SOL    HW293912   1.108   4.992   3.120  0.8325  0.4813  0.3658
29689SOL     OW93913   4.386   1.485   7.924 -0.0415 -0.4049  0.6717
29689SOL    HW193914   4.392   1.507   7.831  2.1792 -1.9627  0.3668
29689SOL    HW293915   4.428   1.558   7.969  1.3188 -0.8803  0.2122
29690SOL     OW93916   7.152   2.167   1.610  0.1998  0.0973  0.8931
29690SOL    HW193917   7.185   2.229   1.545  0.7224  0.3242  1.3607
29690SOL    HW293918   7.201   2.086   1.594 -2.1407 -1.0013 -1.2546
29691SOL     OW93919   3.045   4.491   5.250 -0.0430  0.3358 -0.1428
29691SOL    HW193920   2.956   4.526   5.249 -0.1933 -0.0127  0.2764
29691SOL    HW293921   3.096   4.555   5.299 -0.3842 -0.1647  0.9009
29692SOL     OW93922   6.614   7.113   3.659  0.0612  0.5288 -0.3336
29692SOL    HW193923   6.654   7.059   3.591  1.5874  0.3576  0.6357
29692SOL    HW293924   6.585   7.050   3.725  2.3288  0.8209  1.0517
29693SOL     OW93925   8.941   2.683   6.139 -0.4567 -0.2351  0.0805
29693SOL    HW193926   8.992   2.682   6.058 -1.5799 -1.6562 -0.6624
29693SOL    HW293927   8.981   2.751   6.193 -0.1415  1.2748 -1.9597
29694SOL     OW93928   9.239   6.192   2.757 -0.2166 -0.1777 -0.3021
29694SOL    HW193929   9.277   6.160   2.839  1.3424  0.3296 -0.7973
29694SOL    HW293930   9.213   6.282   2.778  2.7504  0.9729 -1.0369
29695SOL     OW93931   3.459   2.352   4.852 -0.4690 -0.1648  0.2323
29695SOL    HW193932   3.511   2.279   4.817 -0.7910 -1.3023  2.0252
29695SOL    HW293933   3.372   2.341   4.813 -0.2243 -0.0647 -0.3598
29696SOL     OW93934   8.577   7.787   8.013 -0.0509 -0.2127 -0.0732
29696SOL    HW193935   8.635   7.851   7.971 -0.8683  1.0793  0.6722
29696SOL    HW293936   8.489   7.825   8.004 -0.7248 -1.8102 -0.6127
29697SOL     OW93937   6.197   5.716   2.112 -0.8194  0.0949  0.0357
29697SOL    HW193938   6.237   5.629   2.103  0.0111  0.6298 -2.1758
29697SOL    HW293939   6.220   5.744   2.201 -0.0732 -1.4440  0.3575
29698SOL     OW93940   1.507   1.447   0.849  0.3058  0.9431 -0.2512
29698SOL    HW193941   1.562   1.411   0.780 -0.0743 -0.4654  0.1340
29698SOL    HW293942   1.432   1.485   0.803 -0.3887 -0.7739 -0.6123
29699SOL     OW93943   7.554   2.747   6.038  0.5309  0.6912  0.6777
29699SOL    HW193944   7.460   2.742   6.017  0.7374 -0.8950  0.0530
29699SOL    HW293945   7.594   2.679   5.985  2.4235  2.9994 -1.0683
29700SOL     OW93946   5.012   4.392   6.701  0.4166  0.6670 -0.2406
29700SOL    HW193947   4.986   4.475   6.661  0.3989 -0.4383 -2.6959
29700SOL    HW293948   5.042   4.339   6.627  0.7608 -1.3968  1.3179
29701SOL     OW93949   3.715   5.774   7.591 -0.0082  0.2781 -0.0504
29701SOL    HW193950   3.701   5.685   7.558  0.6677 -0.1037  0.6359
29701SOL    HW293951   3.636   5.793   7.641  0.5437 -0.6371  1.2382
29702SOL     OW93952   6.946   1.517   2.377  0.5169 -0.1191 -0.3673
29702SOL    HW193953   6.860   1.503   2.416 -0.2494  0.3004 -1.8271
29702SOL    HW293954   6.940   1.605   2.339  2.0445  0.4506  0.5997
29703SOL     OW93955   8.670   2.569   3.552  0.1384 -0.0016  0.1951
29703SOL    HW193956   8.615   2.567   3.473  0.0274 -0.4682  0.2790
29703SOL    HW293957   8.701   2.659   3.557  1.1635 -0.2385 -1.0861
29704SOL     OW93958   2.172   5.503   1.719  0.4911  0.3028  0.8716
29704SOL    HW193959   2.098   5.455   1.754 -0.2837  1.4263  0.8141
29704SOL    HW293960   2.157   5.594   1.745  1.2284  0.7451 -0.1573
29705SOL     OW93961   1.017   2.442   4.268 -0.4654 -0.3100  0.1596
29705SOL    HW193962   0.996   2.362   4.316  0.7767 -0.8561 -0.1585
29705SOL    HW293963   1.003   2.420   4.177 -0.0270 -0.2023  0.0619
29706SOL     OW93964   3.255   5.827   4.627  0.0974 -0.2876  0.6044
29706SOL    HW193965   3.324   5.882   4.588 -2.0266  1.3612 -1.0625
29706SOL    HW293966   3.247   5.860   4.716  0.9326  0.0307  0.5793
29707SOL     OW93967   5.459   9.290   3.940 -1.0931 -0.2022  0.1761
29707SOL    HW193968   5.448   9.209   3.890 -0.1948  1.3139 -2.6552
29707SOL    HW293969   5.538   9.330   3.904 -1.2844  1.7833  1.7845
29708SOL     OW93970   0.757   4.258   5.597 -0.7282  0.4543  0.3619
29708SOL    HW193971   0.792   4.189   5.653  0.2760  0.9199  0.3272
29708SOL    HW293972   0.687   4.215   5.547  1.2267 -1.1135 -1.1867
29709SOL     OW93973   2.989   7.112   6.683  0.1406 -0.0332  0.1774
29709SOL    HW193974   2.983   7.170   6.759  0.4570  1.5501 -0.9367
29709SOL    HW293975   2.916   7.138   6.627 -0.4646 -1.6023  0.1869
29710SOL     OW93976   1.570   9.069   0.893  0.1067 -0.0333 -0.6251
29710SOL    HW193977   1.595   9.159   0.916  0.8343  0.1446 -1.9777
29710SOL    HW293978   1.506   9.080   0.823 -0.4859 -0.5624 -0.1695
29711SOL     OW93979   1.012   0.744   9.675  0.2747  0.4745 -0.5851
29711SOL    HW193980   1.082   0.806   9.657  0.3886 -0.0184 -1.9186
29711SOL    HW293981   1.057   0.663   9.699  0.2299 -0.1532 -2.4603
29712SOL     OW93982   5.347   1.809   0.932 -0.0818 -0.1416  0.1420
29712SOL    HW193983   5.417   1.799   0.996  0.3988  2.0629  0.0561
29712SOL    HW293984   5.333   1.722   0.896  1.2048 -0.9942  1.6174
29713SOL     OW93985   2.506   7.469   8.470 -0.1370  0.1577 -0.2281
29713SOL    HW193986   2.413   7.488   8.479 -0.0225  0.7722 -0.3067
29713SOL    HW293987   2.513   7.375   8.487 -0.7890  0.0800 -0.3793
29714SOL     OW93988   2.051   9.606   6.878 -0.4765 -0.2595  0.0229
29714SOL    HW193989   2.038   9.645   6.792 -0.3918 -1.1133 -0.3944
29714SOL    HW293990   2.146   9.590   6.883 -0.5257 -0.5437  0.1120
29715SOL     OW93991   3.920   7.811   5.701  0.1562  0.0237  0.9180
29715SOL    HW193992   3.961   7.727   5.679 -1.2755 -0.4533 -0.1060
29715SOL    HW293993   3.938   7.823   5.794  0.5833 -1.3125  1.0361
29716SOL     OW93994   5.442   4.965   1.800  0.5350  0.0979 -0.5395
29716SOL    HW193995   5.458   4.915   1.720 -0.1694  1.4121 -1.5423
29716SOL    HW293996   5.471   5.054   1.779 -2.0693  1.0891 -0.2812
29717SOL     OW93997   0.314   4.349   4.697 -0.0094 -0.6161  0.2916
29717SOL    HW193998   0.376   4.416   4.727 -0.4585  0.1890 -0.4974
29717SOL    HW293999   0.356   4.312   4.619 -0.9345  0.6501 -0.8520
29718SOL     OW94000   2.874   5.947   4.517 -0.4163  0.4894 -0.5153
29718SOL    HW194001   2.834   6.030   4.543 -0.6893  0.4029 -0.6552
29718SOL    HW294002   2.867   5.947   4.421 -0.2454  0.3917 -0.5269
29719SOL     OW94003   9.123   0.324   5.265 -0.4709  0.4292  0.3155
29719SOL    HW194004   9.083   0.351   5.348 -1.5189 -1.4571  0.4597
29719SOL    HW294005   9.216   0.317   5.286 -0.7583 -0.3355  1.4354
29720SOL     OW94006   5.834   1.000   3.385 -0.5767  0.0524  0.1487
29720SOL    HW194007   5.784   0.990   3.304  0.4034 -1.4383 -0.2964
29720SOL    HW294008   5.846   1.095   3.393 -0.4355  0.2202 -1.6117
29721SOL     OW94009   5.815   6.652   2.447  0.2381  0.5556  0.1066
29721SOL    HW194010   5.755   6.619   2.380  1.6933 -0.7851 -0.5835
29721SOL    HW294011   5.894   6.677   2.398  2.3927 -2.9076  1.4099
29722SOL     OW94012   4.757   2.504   5.171 -0.3040 -0.1006  0.1706
29722SOL    HW194013   4.719   2.560   5.239  0.0443 -0.4811  0.6841
29722SOL    HW294014   4.691   2.504   5.102 -0.5273  0.5442  0.3672
29723SOL     OW94015   5.530   5.164   3.866 -0.3642 -0.1016  0.3953
29723SOL    HW194016   5.614   5.122   3.848  0.2076 -0.2379  2.9277
29723SOL    HW294017   5.494   5.114   3.940 -1.7449  1.1631  0.6323
29724SOL     OW94018   2.507   3.489   8.077 -0.0757 -0.4120  0.1020
29724SOL    HW194019   2.502   3.538   7.995 -0.0124 -0.0666  0.3016
29724SOL    HW294020   2.589   3.518   8.117  0.2651 -1.1261 -0.0561
29725SOL     OW94021   7.444   5.439   4.273  0.2075  0.3154 -0.1369
29725SOL    HW194022   7.513   5.502   4.293 -0.4646  1.3290 -0.9316
29725SOL    HW294023   7.491   5.359   4.249  1.0719  0.5241  0.7599
29726SOL     OW94024   5.839   0.853   6.867 -0.0294 -0.3896 -0.1692
29726SOL    HW194025   5.766   0.831   6.924  0.5545 -1.1372  0.3168
29726SOL    HW294026   5.853   0.946   6.880 -1.7640  0.0685 -1.3122
29727SOL     OW94027   5.174   8.123   1.581 -0.6099  0.0334  0.2061
29727SOL    HW194028   5.162   8.028   1.580 -0.7444  0.0495 -0.7870
29727SOL    HW294029   5.085   8.158   1.576 -0.5630  0.2104  0.6239
29728SOL     OW94030   2.855   8.189   7.221  0.5725 -0.3680 -0.2917
29728SOL    HW194031   2.898   8.163   7.139  3.3172 -1.3804  1.3260
29728SOL    HW294032   2.816   8.108   7.255  2.2197 -0.7310  0.8733
29729SOL     OW94033   6.609   6.921   6.343 -0.3767 -0.6742  0.1260
29729SOL    HW194034   6.605   6.897   6.435 -1.7348  0.5393  0.4200
29729SOL    HW294035   6.695   6.891   6.313  0.6557  0.1608  2.1287
29730SOL     OW94036   0.585   0.132   7.004  0.0744 -0.1746  0.1210
29730SOL    HW194037   0.578   0.071   6.930 -1.9535 -1.1826  1.0707
29730SOL    HW294038   0.609   0.216   6.964 -0.3929 -0.8333 -1.6182
29731SOL     OW94039   2.997   6.258   5.481  0.0041 -0.0052 -0.0304
29731SOL    HW194040   3.066   6.312   5.520  0.1866  1.7000 -2.4802
29731SOL    HW294041   2.916   6.295   5.516  0.1844  1.1344 -0.7479
29732SOL     OW94042   7.112   4.641   6.815  0.4227  0.3358 -0.0543
29732SOL    HW194043   7.038   4.685   6.855  0.6624  0.3638  0.3601
29732SOL    HW294044   7.186   4.661   6.872 -0.0508 -3.4926  2.2582
29733SOL     OW94045   2.618   6.481   2.583  0.5094  0.2983  0.4265
29733SOL    HW194046   2.570   6.417   2.635  0.5921  0.0136  0.1574
29733SOL    HW294047   2.678   6.428   2.530 -0.2552  0.5194 -0.6686
29734SOL     OW94048   7.178   1.963   7.794 -0.2831  0.0869  0.4128
29734SOL    HW194049   7.203   2.051   7.823 -0.7994  0.1784  0.5815
29734SOL    HW294050   7.142   1.921   7.872  2.5722 -1.2989  1.1311
29735SOL     OW94051   2.127   5.419   2.345  0.4122  0.2991  1.1817
29735SOL    HW194052   2.035   5.391   2.345  0.3805 -0.4089 -3.2394
29735SOL    HW294053   2.124   5.512   2.323  0.7610  0.3279  1.2546
29736SOL     OW94054   0.516   8.658   1.503  1.1284  0.0592  0.0341
29736SOL    HW194055   0.473   8.665   1.588  0.5816  1.0242 -0.3086
29736SOL    HW294056   0.592   8.601   1.519  0.0337 -1.2498  0.7542
29737SOL     OW94057   5.032   3.710   8.989 -0.0493  0.6981 -0.0484
29737SOL    HW194058   4.968   3.779   8.971  0.7359  1.5342  0.2587
29737SOL    HW294059   4.986   3.628   8.969 -1.5049  1.2170  0.9891
29738SOL     OW94060   5.407   8.018   2.193 -0.1297 -0.1012  0.0459
29738SOL    HW194061   5.388   7.961   2.118 -0.1589 -0.6103  0.4368
29738SOL    HW294062   5.375   8.104   2.166  0.4525 -0.1325 -0.7878
29739SOL     OW94063   0.889   0.690   9.428  0.6985  0.0572 -1.0066
29739SOL    HW194064   0.915   0.704   9.519  3.6569  0.1241 -1.7798
29739SOL    HW294065   0.935   0.611   9.401 -0.6166 -0.3129 -2.2990
29740SOL     OW94066   8.273   0.954   6.114  0.4866 -0.0120 -0.2397
29740SOL    HW194067   8.229   0.871   6.096  0.5660  0.4379 -2.8556
29740SOL    HW294068   8.256   1.007   6.037 -0.3557  2.8061  1.7273
29741SOL     OW94069   4.952   9.406   6.316 -0.1609 -0.5211  0.5089
29741SOL    HW194070   4.926   9.315   6.334  0.0370 -0.7907 -0.5064
29741SOL    HW294071   4.949   9.449   6.402 -3.2846 -0.6657  0.5956
29742SOL     OW94072   2.973   3.187   3.576 -0.5201 -0.2269  0.6102
29742SOL    HW194073   2.895   3.206   3.628 -0.3866  1.6674  0.1903
29742SOL    HW294074   3.043   3.235   3.619 -0.0346 -0.0948 -0.2937
29743SOL     OW94075   1.464   1.320   4.787 -0.0298 -0.3385 -0.6324
29743SOL    HW194076   1.536   1.346   4.844 -2.0178  0.0622  1.9154
29743SOL    HW294077   1.461   1.225   4.792 -2.1033 -0.2801  2.8138
29744SOL     OW94078   7.959   7.734   0.804 -0.6218  0.5891 -0.8408
29744SOL    HW194079   7.940   7.800   0.870 -0.7825 -0.6117  0.3498
29744SOL    HW294080   7.874   7.698   0.780 -0.3313 -2.5421  2.1343
29745SOL     OW94081   0.696   5.106   3.501 -0.3951  0.3638  0.2159
29745SOL    HW194082   0.676   5.147   3.585 -1.2758  2.0434 -0.7672
29745SOL    HW294083   0.769   5.157   3.466  0.2847 -0.6220  0.1302
29746SOL     OW94084   6.892   9.410   6.466  0.3263 -0.1712  0.1264
29746SOL    HW194085   6.968   9.441   6.514 -0.6314 -0.2370  1.7483
29746SOL    HW294086   6.910   9.317   6.450 -0.7701 -1.1145  3.4949
29747SOL     OW94087   1.522   5.939   7.674 -0.5294 -0.4046  0.1636
29747SOL    HW194088   1.533   5.854   7.631  1.4624  0.5102 -1.3190
29747SOL    HW294089   1.469   5.990   7.613 -2.5028 -0.7906  1.4654
29748SOL     OW94090   9.671   1.279   1.933 -0.1989  0.4408  0.3682
29748SOL    HW194091   9.605   1.327   1.983 -1.3349  0.8741 -1.4427
29748SOL    HW294092   9.671   1.191   1.971 -1.4595  0.5833  0.7395
29749SOL     OW94093   5.474   6.103   6.174  0.8649  0.1683 -0.4019
29749SOL    HW194094   5.460   6.009   6.169  0.7922  0.2251 -2.4718
29749SOL    HW294095   5.519   6.124   6.091  0.2252  2.0453 -0.3166
29750SOL     OW94096   8.716   1.156   5.967 -0.0200 -0.9751  0.1405
29750SOL    HW194097   8.741   1.064   5.979  0.7510 -0.7887  0.0313
29750SOL    HW294098   8.649   1.172   6.033 -1.1140 -1.9792 -0.6868
29751SOL     OW94099   1.090   5.595   4.073  0.2533  0.1800 -0.5078
29751SOL    HW194100   1.117   5.681   4.041  0.8201 -0.0788 -0.7403
29751SOL    HW294101   1.076   5.543   3.993 -1.6246  0.4931 -0.4272
29752SOL     OW94102   9.060   8.464   7.144 -0.2244  0.0295  0.1195
29752SOL    HW194103   8.996   8.396   7.123 -1.0316  0.8540 -0.2021
29752SOL    HW294104   9.133   8.418   7.185 -0.4672 -1.0961 -0.6900
29753SOL     OW94105   2.039   3.202   5.190 -0.5115  0.7384 -0.0268
29753SOL    HW194106   2.103   3.274   5.190 -0.4460  0.6829  0.5815
29753SOL    HW294107   1.954   3.246   5.184 -0.3850  0.7648 -2.2844
29754SOL     OW94108   4.118   8.863   0.081  0.0682  0.5464 -0.0499
29754SOL    HW194109   4.038   8.833   0.125  1.3081  0.0398  2.0149
29754SOL    HW294110   4.188   8.811   0.120  1.5676  1.8501 -0.8676
29755SOL     OW94111   6.748   1.228   8.184  0.1393 -0.9830 -0.7013
29755SOL    HW194112   6.658   1.259   8.191  1.2802  2.5307  1.0537
29755SOL    HW294113   6.759   1.207   8.091 -2.4988 -1.8702 -0.9070
29756SOL     OW94114   2.173   5.536   3.572  0.0973 -0.0559  0.3218
29756SOL    HW194115   2.169   5.465   3.636  1.3532 -0.0132  0.4605
29756SOL    HW294116   2.259   5.527   3.531 -0.1580  0.7316 -0.4256
29757SOL     OW94117   9.725   6.195   0.024  0.4061  0.5432  0.0228
29757SOL    HW194118   9.718   6.099   0.028 -0.0614  0.5784  0.0916
29757SOL    HW294119   9.670   6.219  -0.051 -3.0324  1.1017  2.4867
29758SOL     OW94120   4.826   8.026   2.673  0.0500 -0.5468 -0.3019
29758SOL    HW194121   4.808   8.112   2.711  0.2968  0.3927 -2.2201
29758SOL    HW294122   4.914   8.004   2.706  0.5580  0.5699 -0.8627
29759SOL     OW94123   8.078   5.864   4.720  0.5006 -0.1471 -0.0082
29759SOL    HW194124   8.020   5.823   4.656 -0.3206  0.3718  0.3866
29759SOL    HW294125   8.111   5.791   4.773 -0.8210 -0.3283  0.5951
29760SOL     OW94126   5.730   0.688   5.013 -0.8981  0.1199  0.1788
29760SOL    HW194127   5.693   0.606   4.979 -3.5221  0.9453  0.8152
29760SOL    HW294128   5.683   0.757   4.966 -0.1199  1.2657  1.0238
29761SOL     OW94129   5.467   0.476   2.881 -0.1919 -0.1553  0.1057
29761SOL    HW194130   5.481   0.548   2.819  2.2802  0.3145  1.0887
29761SOL    HW294131   5.470   0.397   2.827 -0.9534  0.3694 -0.7283
29762SOL     OW94132   4.293   5.183   4.517 -0.0951  0.2333  0.3324
29762SOL    HW194133   4.314   5.268   4.477 -0.3568 -0.2591 -0.8993
29762SOL    HW294134   4.316   5.194   4.609  2.0378  0.9032 -0.2188
29763SOL     OW94135   4.470   1.957   3.145 -0.8312 -0.0270 -0.3588
29763SOL    HW194136   4.396   2.004   3.107 -0.5728  0.8338  0.1763
29763SOL    HW294137   4.433   1.912   3.221 -0.8808  0.0798 -0.3204
29764SOL     OW94138   3.331   3.253   0.631 -0.4162 -0.5343  0.4744
29764SOL    HW194139   3.335   3.302   0.549  0.1683  0.5000  1.1048
29764SOL    HW294140   3.241   3.219   0.635  0.1211 -2.3735 -1.5874
29765SOL     OW94141   8.908   9.229   7.839 -0.1149  0.7684  0.4095
29765SOL    HW194142   8.888   9.269   7.754  0.1979  0.0248 -0.0294
29765SOL    HW294143   8.823   9.217   7.880 -0.6932 -2.0603 -1.2983
29766SOL     OW94144   5.405   3.382   6.887 -0.3101 -0.2851  0.0391
29766SOL    HW194145   5.490   3.417   6.860 -0.3515  0.4216  0.7868
29766SOL    HW294146   5.353   3.459   6.908 -0.5716 -0.7627  1.2400
29767SOL     OW94147   7.675   7.556   7.093 -0.1682 -0.5110  0.2784
29767SOL    HW194148   7.621   7.521   7.164 -3.1853 -1.2820 -2.2260
29767SOL    HW294149   7.657   7.650   7.093  0.1185 -0.4509  0.7055
29768SOL     OW94150   3.366   0.088   5.097 -0.0390  0.0271 -0.2313
29768SOL    HW194151   3.354   0.107   5.004 -0.3459  1.1019  0.0190
29768SOL    HW294152   3.452   0.122   5.118  0.3239 -0.8345 -0.2651
29769SOL     OW94153   1.312   9.603   0.312 -0.7144 -0.1261 -0.1127
29769SOL    HW194154   1.242   9.589   0.375  0.5265  0.2284  1.4030
29769SOL    HW294155   1.334   9.696   0.320  0.7797 -0.5025  0.3808
29770SOL     OW94156   1.976   5.459   0.640 -0.0723  0.2846  0.1314
29770SOL    HW194157   2.038   5.531   0.650  0.5831 -0.1458 -0.7760
29770SOL    HW294158   1.943   5.468   0.550  2.0922 -2.1314 -1.0323
29771SOL     OW94159   7.400   5.469   9.084 -0.9228  0.3735  0.3527
29771SOL    HW194160   7.406   5.442   9.175 -1.9624  0.9421  0.6053
29771SOL    HW294161   7.459   5.410   9.037  2.3578  2.2174  1.8306
29772SOL     OW94162   8.451   4.970   5.480 -0.0255 -0.3892 -0.1729
29772SOL    HW194163   8.432   4.876   5.490  0.5272 -0.2983  2.3872
29772SOL    HW294164   8.374   5.005   5.434 -1.0098 -1.8124  0.3157
29773SOL     OW94165   5.986   7.734   8.503  0.7602 -0.1228  0.4699
29773SOL    HW194166   5.938   7.655   8.476  0.0523  0.4970 -0.1641
29773SOL    HW294167   5.917   7.797   8.524  1.2627  0.9396 -0.8860
29774SOL     OW94168   1.288   3.306   9.409 -0.2063 -0.3098  0.9858
29774SOL    HW194169   1.218   3.368   9.387  0.8134  0.1022 -1.3611
29774SOL    HW294170   1.244   3.221   9.413 -1.1295  0.1603  1.3610
29775SOL     OW94171   2.847   5.636   1.758  0.3204 -0.4013 -0.3606
29775SOL    HW194172   2.771   5.668   1.710 -1.6362  0.2838  2.8990
29775SOL    HW294173   2.843   5.541   1.749  0.6412 -0.2790 -2.2902
29776SOL     OW94174   1.597   3.516   3.446 -0.3747  0.1517 -0.2403
29776SOL    HW194175   1.654   3.493   3.373  3.5463  1.0871  2.2017
29776SOL    HW294176   1.625   3.458   3.517 -0.3548  2.6188  1.9083
29777SOL     OW94177   0.628   0.753   0.273 -0.9620 -0.0299 -0.7205
29777SOL    HW194178   0.559   0.744   0.338 -0.0450  1.6960  0.5461
29777SOL    HW294179   0.675   0.831   0.298  0.9472 -0.6804 -2.0648
29778SOL     OW94180   3.348   2.688   8.268 -0.0251 -1.0820 -0.1520
29778SOL    HW194181   3.435   2.727   8.265 -0.8562  0.9708 -2.9260
29778SOL    HW294182   3.301   2.738   8.335  0.8763 -2.2984  1.4607
29779SOL     OW94183   9.303   8.174   8.261  0.1337 -0.3120 -0.1592
29779SOL    HW194184   9.318   8.138   8.348  0.6426 -1.0337 -0.5425
29779SOL    HW294185   9.280   8.099   8.207 -3.6838  0.4570  0.0583
29780SOL     OW94186   7.018   4.956   7.877  0.3242 -0.2397  0.0337
29780SOL    HW194187   7.065   5.019   7.823  2.7668 -0.6700  1.4651
29780SOL    HW294188   7.067   4.874   7.864 -1.8469 -1.5043 -0.6124
29781SOL     OW94189   9.132   7.499   1.390  0.2563  0.1421  0.7142
29781SOL    HW194190   9.211   7.477   1.341  0.3623  1.8492  0.0665
29781SOL    HW294191   9.061   7.483   1.328  0.2212  0.2153  0.7363
29782SOL     OW94192   1.425   4.081   7.266  0.1938  0.0756  0.3454
29782SOL    HW194193   1.502   4.112   7.218  0.4926 -0.3495  0.5523
29782SOL    HW294194   1.448   3.993   7.294 -0.1060  0.2067  1.0035
29783SOL     OW94195   5.430   1.037   8.625  0.2001 -0.3874 -0.2439
29783SOL    HW194196   5.346   1.021   8.668 -0.1354  0.4518 -0.5532
29783SOL    HW294197   5.491   0.976   8.666 -0.1251  0.3137  1.3592
29784SOL     OW94198   8.615   3.805   4.957 -0.0507  0.2264  0.1858
29784SOL    HW194199   8.649   3.797   5.046 -0.7226  1.5157  0.5830
29784SOL    HW294200   8.522   3.785   4.965 -0.1891  0.7158 -0.1542
29785SOL     OW94201   6.996   5.031   6.890  0.2461  0.1395 -0.5781
29785SOL    HW194202   6.933   5.077   6.946  1.1971 -0.6815  1.2877
29785SOL    HW294203   6.964   4.941   6.888  0.8958 -0.1092 -0.2662
29786SOL     OW94204   5.903   0.789   8.439 -0.6171  0.0448 -0.7159
29786SOL    HW194205   5.822   0.749   8.470 -0.2112 -1.4498 -1.5193
29786SOL    HW294206   5.962   0.784   8.514 -1.5586  2.1775  0.2588
29787SOL     OW94207   0.732   9.448   9.652 -0.0380  0.5047 -0.1356
29787SOL    HW194208   0.722   9.527   9.599 -1.1800 -0.8614 -2.0785
29787SOL    HW294209   0.809   9.404   9.615 -0.1213  0.1199  0.1483
29788SOL     OW94210   5.033   5.374   2.143  0.2645  0.4839 -0.4385
29788SOL    HW194211   4.972   5.446   2.125 -0.7504 -0.4239 -0.7141
29788SOL    HW294212   4.989   5.322   2.210  0.5739 -0.3811 -0.8968
29789SOL     OW94213   9.261   8.664   9.533  0.0929  0.0517  0.2744
29789SOL    HW194214   9.195   8.719   9.574  0.6433  1.6751 -0.9017
29789SOL    HW294215   9.341   8.682   9.584  0.3305  0.5729 -0.2665
29790SOL     OW94216   4.514   5.874   4.867 -0.8596 -0.4613 -0.3442
29790SOL    HW194217   4.558   5.812   4.925 -0.6245  1.2860  1.4533
29790SOL    HW294218   4.442   5.910   4.919 -0.6890  1.1154 -1.1145
29791SOL     OW94219   6.296   2.595   5.342  0.4234  0.1542  0.7346
29791SOL    HW194220   6.203   2.577   5.354  0.2566  1.8078  2.2553
29791SOL    HW294221   6.325   2.529   5.279 -1.7525 -0.4216  0.2539
29792SOL     OW94222   0.100   1.314   3.711 -0.0319  0.0213 -0.1150
29792SOL    HW194223   0.177   1.297   3.765  0.9360 -1.4081 -1.8212
29792SOL    HW294224   0.032   1.338   3.773  1.1802 -0.9121  1.6736
29793SOL     OW94225   2.951   3.002   3.311  0.3373  0.1111  0.5851
29793SOL    HW194226   3.012   2.978   3.381  0.2196 -0.4222  0.5037
29793SOL    HW294227   2.868   2.964   3.338  0.0623  0.7315  0.6334
29794SOL     OW94228   4.071   6.260   8.765  0.4244  0.4680  0.2176
29794SOL    HW194229   4.111   6.222   8.844  0.5467  0.1492  0.0052
29794SOL    HW294230   4.010   6.193   8.735  0.1463  0.7217  0.2201
29795SOL     OW94231   1.637   1.861   5.551 -0.0179 -0.0527  0.4323
29795SOL    HW194232   1.623   1.774   5.512 -0.9990  0.8499 -1.3874
29795SOL    HW294233   1.549   1.892   5.573 -0.1386  1.7764 -2.0900
29796SOL     OW94234   3.376   2.644   1.407  0.5377  0.4021 -0.0533
29796SOL    HW194235   3.319   2.652   1.330  1.5956 -2.0637 -1.1961
29796SOL    HW294236   3.319   2.610   1.476 -0.0498  1.0085 -0.2269
29797SOL     OW94237   2.980   4.064   3.683 -0.2845  0.3203 -0.5767
29797SOL    HW194238   3.035   4.053   3.606 -1.2504 -0.7738 -1.1438
29797SOL    HW294239   2.962   4.158   3.686  1.7566  0.7256 -0.2344
29798SOL     OW94240   9.096   0.702   1.452  0.2402 -0.0186  0.6349
29798SOL    HW194241   9.126   0.654   1.375  1.4129  0.6984  0.6124
29798SOL    HW294242   9.076   0.634   1.516 -2.9344 -0.7677 -0.9558
29799SOL     OW94243   5.495   5.440   1.351  0.0261  0.5660 -0.6559
29799SOL    HW194244   5.466   5.483   1.432 -1.1860  1.8123 -1.6881
29799SOL    HW294245   5.514   5.513   1.291  2.7568 -0.2787 -0.9293
29800SOL     OW94246   4.193   7.831   6.439 -0.1657  0.5471 -0.2581
29800SOL    HW194247   4.175   7.902   6.501 -0.7787  0.9455 -0.8765
29800SOL    HW294248   4.180   7.871   6.353  1.5638  0.2539 -0.6983
29801SOL     OW94249   4.504   6.556   7.155 -0.7951  0.1019 -0.0461
29801SOL    HW194250   4.567   6.583   7.222 -0.9620  0.6863 -0.1188
29801SOL    HW294251   4.537   6.596   7.074 -0.9377 -0.0790 -0.1952
29802SOL     OW94252   6.821   2.851   6.722  0.0984 -0.6629 -0.0843
29802SOL    HW194253   6.892   2.849   6.786 -0.2511  0.5440  0.3726
29802SOL    HW294254   6.766   2.777   6.745  0.1048 -0.3810  0.8915
29803SOL     OW94255   0.612   0.138   5.079 -0.2229 -0.3100  0.1736
29803SOL    HW194256   0.598   0.231   5.092 -0.2137 -0.3649  0.5871
29803SOL    HW294257   0.654   0.132   4.993 -0.8737  0.0075 -0.1753
29804SOL     OW94258   3.177   2.668   5.461 -0.4512 -0.1833  0.2378
29804SOL    HW194259   3.207   2.631   5.378  1.2802  0.8138  0.3805
29804SOL    HW294260   3.236   2.632   5.526 -1.4338 -0.4872  0.9832
29805SOL     OW94261   4.236   6.857   6.236 -0.0577 -0.2309 -0.3418
29805SOL    HW194262   4.237   6.940   6.188  0.3328 -0.3481 -0.5376
29805SOL    HW294263   4.328   6.842   6.259 -0.1724 -0.4426 -0.0147
29806SOL     OW94264   9.736   4.652   4.712  0.2234  0.4340 -0.2054
29806SOL    HW194265   9.698   4.708   4.780 -0.3925  0.6960 -0.7564
29806SOL    HW294266   9.661   4.609   4.671  0.3865  1.8088 -2.0540
29807SOL     OW94267   7.811   2.138   0.271  0.2728  0.3991 -0.0275
29807SOL    HW194268   7.892   2.128   0.221  1.5060 -1.2825  2.1041
29807SOL    HW294269   7.832   2.205   0.336 -0.2765  0.4194  0.1307
29808SOL     OW94270   4.253   4.915   7.969  0.1979 -0.6589  0.1282
29808SOL    HW194271   4.171   4.944   8.009 -0.9443 -2.3264 -0.8640
29808SOL    HW294272   4.313   4.904   8.043 -0.3568  0.8677  0.8471
29809SOL     OW94273   5.019   2.472   8.854  0.1943  0.1097  0.3827
29809SOL    HW194274   5.113   2.479   8.839 -0.0277  0.9446 -0.8269
29809SOL    HW294275   4.986   2.560   8.839 -0.8661 -0.3224  0.0462
29810SOL     OW94276   9.003   9.461   1.626  0.6050  0.3293  0.4459
29810SOL    HW194277   9.026   9.458   1.533  1.5567  0.1828  0.6830
29810SOL    HW294278   8.921   9.511   1.628  1.3021  1.5520 -0.3350
29811SOL     OW94279   2.358   7.309   1.594  0.7224  0.5102 -0.0290
29811SOL    HW194280   2.295   7.348   1.654  2.1126  0.4697  1.5269
29811SOL    HW294281   2.310   7.300   1.511 -0.8075  1.9126  0.6448
29812SOL     OW94282   7.557   8.232   1.513  0.5436  0.6179 -0.0674
29812SOL    HW194283   7.623   8.207   1.449  1.3874 -0.7247  1.2820
29812SOL    HW294284   7.511   8.151   1.534  2.2813  0.3369  3.2356
29813SOL     OW94285   5.737   2.119   7.431  0.3874  0.0976 -0.3308
29813SOL    HW194286   5.830   2.127   7.455  1.0650 -2.6018 -1.5945
29813SOL    HW294287   5.694   2.190   7.478  3.0371  1.2749  0.5467
29814SOL     OW94288   9.683   8.758   8.689 -0.2841 -0.0163  0.1090
29814SOL    HW194289   9.748   8.818   8.654  0.6761 -0.3163  1.2908
29814SOL    HW294290   9.603   8.777   8.640  0.7260  0.2347 -1.5097
29815SOL     OW94291   9.282   8.183   5.092 -0.5302 -0.0558  0.5004
29815SOL    HW194292   9.294   8.131   5.171  0.1364 -1.2510 -0.3406
29815SOL    HW294293   9.362   8.167   5.041 -1.4197 -0.2219 -0.8939
29816SOL     OW94294   0.348   6.944   3.000  0.4674  0.6364 -0.1470
29816SOL    HW194295   0.379   6.878   3.062  0.3306 -0.9441 -1.6389
29816SOL    HW294296   0.426   6.994   2.977  0.4779  1.3686  1.4033
29817SOL     OW94297   2.057   2.429   1.370 -0.4984 -0.0554 -0.1733
29817SOL    HW194298   2.089   2.486   1.440 -2.1658 -0.4882  0.9742
29817SOL    HW294299   2.131   2.423   1.309  0.3611  1.8062  0.6051
29818SOL     OW94300   2.879   0.341   3.624  0.4608  0.2887 -0.3516
29818SOL    HW194301   2.865   0.247   3.633 -0.8645  0.5363  0.4416
29818SOL    HW294302   2.844   0.362   3.538 -1.8985  0.4711  0.5819
29819SOL     OW94303   7.918   0.500   9.053  0.0420  0.4705  0.1675
29819SOL    HW194304   8.013   0.508   9.061  0.0916  0.7539 -0.6443
29819SOL    HW294305   7.904   0.409   9.026  0.1105  0.5338 -0.0856
29820SOL     OW94306   2.432   1.713   9.116 -0.1854 -0.1797  0.1987
29820SOL    HW194307   2.423   1.690   9.208 -0.5094 -1.5263 -0.1539
29820SOL    HW294308   2.492   1.788   9.116  0.4476 -0.6657  1.4358
29821SOL     OW94309   3.101   8.678   5.314  0.5801  0.4721  0.2081
29821SOL    HW194310   3.100   8.656   5.221 -0.9990  1.0980  0.0632
29821SOL    HW294311   3.125   8.771   5.317  0.0065  0.6153  0.3900
29822SOL     OW94312   6.188   3.583   0.303  0.3870 -0.2858  0.0169
29822SOL    HW194313   6.264   3.557   0.355  0.5309 -0.3396 -0.2184
29822SOL    HW294314   6.118   3.595   0.367  0.6601  0.0145  0.2612
29823SOL     OW94315   9.689   5.685   0.974 -0.6416  0.0427 -0.1817
29823SOL    HW194316   9.753   5.681   1.046 -0.9640  0.3747  0.1321
29823SOL    HW294317   9.700   5.773   0.938 -0.5068 -0.1116 -0.5179
29824SOL     OW94318   9.212   4.998   5.957  0.0030 -0.4305 -0.0075
29824SOL    HW194319   9.202   4.996   5.861  1.2694 -0.3768 -0.1587
29824SOL    HW294320   9.152   4.930   5.989 -1.0382  0.0922 -0.7651
29825SOL     OW94321   7.916   2.810   2.696 -0.3091  0.0200 -0.0461
29825SOL    HW194322   7.884   2.827   2.608 -0.1013 -1.1932 -0.3728
29825SOL    HW294323   7.842   2.772   2.742 -0.4023  0.6003  0.3017
29826SOL     OW94324   5.865   9.653   9.725 -0.0627 -0.2641 -0.3029
29826SOL    HW194325   5.905   9.641   9.811  1.8361  0.4091 -1.0232
29826SOL    HW294326   5.884   9.570   9.679  1.9117  0.5572 -1.1157
29827SOL     OW94327   6.610   0.489   5.789 -0.1770  0.5366  0.5025
29827SOL    HW194328   6.650   0.457   5.870 -1.6312 -0.9669  0.6979
29827SOL    HW294329   6.593   0.410   5.738 -1.2281  1.2732 -0.3356
29828SOL     OW94330   3.203   4.115   8.375  0.0312  0.2228  0.7582
29828SOL    HW194331   3.250   4.068   8.307 -2.3702 -1.9123  0.4300
29828SOL    HW294332   3.163   4.047   8.430 -0.8744  1.8774  2.2976
29829SOL     OW94333   7.451   4.573   1.794  0.4487  0.3129 -0.0858
29829SOL    HW194334   7.463   4.617   1.878 -2.0552  3.0211 -0.9498
29829SOL    HW294335   7.364   4.600   1.765  0.6253 -1.6703 -2.9189
29830SOL     OW94336   4.736   7.653   7.832  0.6533  0.3523 -0.1337
29830SOL    HW194337   4.769   7.743   7.833  1.7950 -0.0564 -0.0373
29830SOL    HW294338   4.662   7.655   7.893  1.1003  1.0644  0.4082
29831SOL     OW94339   1.193   5.102   4.459  0.2529  0.0362  0.1526
29831SOL    HW194340   1.099   5.089   4.471 -0.0553  1.6302 -0.3425
29831SOL    HW294341   1.209   5.191   4.490  1.2239  0.5384 -1.6708
29832SOL     OW94342   6.969   9.458   3.601 -0.0702 -0.2667 -0.1444
29832SOL    HW194343   7.009   9.387   3.551  0.0272 -0.3343  0.0295
29832SOL    HW294344   6.916   9.505   3.537  0.9586  0.3347 -0.5814
29833SOL     OW94345   1.196   7.194   7.178  0.1850  0.3993 -0.1242
29833SOL    HW194346   1.150   7.180   7.095  0.0679  1.4945 -0.2577
29833SOL    HW294347   1.253   7.118   7.186 -1.3624 -0.8206 -0.1317
29834SOL     OW94348   8.694   1.881   0.286  0.0164 -0.5925 -0.0438
29834SOL    HW194349   8.676   1.878   0.380 -0.5737  0.3594 -0.1165
29834SOL    HW294350   8.780   1.839   0.277  1.5269  1.9099  1.3086
29835SOL     OW94351   0.809   7.020   6.595  0.0961 -0.2915  0.3253
29835SOL    HW194352   0.793   7.086   6.527  0.1635 -1.3320 -0.7223
29835SOL    HW294353   0.885   7.054   6.643 -0.1755  0.6351  0.1287
29836SOL     OW94354   9.538   7.192   4.721 -0.3989 -0.1805  0.0219
29836SOL    HW194355   9.575   7.221   4.637  0.2291  0.8652  0.6255
29836SOL    HW294356   9.517   7.274   4.766 -1.5160 -0.7439  0.5552
29837SOL     OW94357   2.791   1.737   7.531  0.3968 -0.2494 -0.6504
29837SOL    HW194358   2.778   1.746   7.626  2.2162  1.0706 -0.4696
29837SOL    HW294359   2.809   1.825   7.501 -0.9236 -0.5336 -2.4021
29838SOL     OW94360   9.390   8.438   8.824  0.0227  0.2636  0.6897
29838SOL    HW194361   9.344   8.354   8.829 -3.2826  1.6642 -2.1463
29838SOL    HW294362   9.472   8.418   8.780 -0.8117 -1.5029 -0.1815
29839SOL     OW94363   9.580   5.804   6.585  0.1726  0.5393 -0.0274
29839SOL    HW194364   9.487   5.807   6.608  0.0341  0.5434 -0.5696
29839SOL    HW294365   9.623   5.855   6.654 -0.5788  3.2340 -1.3976
29840SOL     OW94366   6.840   1.101   0.752  0.3365  0.5451 -0.6695
29840SOL    HW194367   6.883   1.123   0.669  1.4674 -1.0068 -0.5613
29840SOL    HW294368   6.756   1.064   0.726  1.4371 -1.6872 -1.3276
29841SOL     OW94369   3.068   0.451   1.066 -0.3320 -0.1453  0.4800
29841SOL    HW194370   3.021   0.534   1.073 -0.6324 -0.3791  1.3740
29841SOL    HW294371   3.154   0.476   1.032 -0.8103  0.3829 -0.3861
29842SOL     OW94372   3.297   0.771   0.438  0.3972  0.0995  0.4702
29842SOL    HW194373   3.339   0.809   0.516  2.5548 -0.5148 -0.3146
29842SOL    HW294374   3.257   0.846   0.394  0.4740  0.7014  1.3913
29843SOL     OW94375   7.036   3.847   5.455 -0.5855  0.0596  0.5949
29843SOL    HW194376   7.030   3.851   5.359 -0.9486  1.7490  0.6606
29843SOL    HW294377   7.118   3.892   5.476 -0.7623  0.1571  1.0946
29844SOL     OW94378   1.248   6.367   5.161 -0.0232 -0.3142 -0.6532
29844SOL    HW194379   1.166   6.416   5.156 -1.2271 -2.1761  0.1246
29844SOL    HW294380   1.252   6.336   5.251  0.8367 -1.4194 -1.0463
29845SOL     OW94381   8.590   1.004   2.226 -0.0479 -0.4083  0.4078
29845SOL    HW194382   8.678   0.976   2.201  0.4432  2.2815 -1.2422
29845SOL    HW294383   8.540   0.998   2.145 -0.4706  1.2481  0.5263
29846SOL     OW94384   9.570   3.363   0.433 -0.3596  0.8559  0.6071
29846SOL    HW194385   9.606   3.274   0.432 -0.5730  0.6515  3.1648
29846SOL    HW294386   9.478   3.352   0.409  0.2021  0.7931 -1.6892
29847SOL     OW94387   8.789   8.349   3.866  0.1433  0.0250  0.1482
29847SOL    HW194388   8.835   8.294   3.929 -1.1266 -0.3857  0.7621
29847SOL    HW294389   8.810   8.439   3.892  1.3882 -0.1565 -0.2125
29848SOL     OW94390   5.928   2.426   3.553 -0.0025 -0.0407 -0.8612
29848SOL    HW194391   5.897   2.501   3.503 -1.1104 -0.1144 -0.3143
29848SOL    HW294392   5.855   2.364   3.552 -0.2867  0.1657  1.2632
29849SOL     OW94393   3.382   9.008   2.670  0.0575 -0.4650 -0.9251
29849SOL    HW194394   3.352   9.069   2.737  0.1326 -1.2542 -0.1479
29849SOL    HW294395   3.470   8.983   2.698  0.5711  0.0991 -1.9701
29850SOL     OW94396   5.747   4.188   7.959 -0.6079 -0.0647  0.1083
29850SOL    HW194397   5.759   4.162   8.050 -1.8067  0.2446  0.3712
29850SOL    HW294398   5.696   4.269   7.963 -0.3853  0.1373 -0.8252
29851SOL     OW94399   7.529   3.121   2.876 -0.6366 -0.0027  0.6514
29851SOL    HW194400   7.450   3.074   2.904 -1.9678  1.9391  0.3587
29851SOL    HW294401   7.544   3.185   2.945  1.2153 -0.8545  1.0976
29852SOL     OW94402   4.123   4.210   8.052 -0.0023 -0.5605  0.1090
29852SOL    HW194403   4.122   4.297   8.010  0.1185 -1.1997 -1.2613
29852SOL    HW294404   4.033   4.179   8.042 -0.3057 -0.1982  1.5054
29853SOL     OW94405   6.366   3.444   8.520  0.6027  0.2607 -0.2378
29853SOL    HW194406   6.427   3.371   8.534  0.4626 -0.0016 -0.9460
29853SOL    HW294407   6.312   3.416   8.447 -0.0828  0.6818  0.0982
29854SOL     OW94408   0.132   0.217   2.069 -0.0646  0.2611  0.3992
29854SOL    HW194409   0.210   0.269   2.052 -1.7086  2.9722  0.4704
29854SOL    HW294410   0.110   0.235   2.160  0.5355 -2.4461  1.1471
29855SOL     OW94411   1.233   2.906   7.966  0.0641 -0.3958  0.0507
29855SOL    HW194412   1.179   2.832   7.937 -1.3423  1.2961 -1.8543
29855SOL    HW294413   1.211   2.916   8.059 -2.4589 -0.1778 -0.5059
29856SOL     OW94414   3.866   4.185   0.291  0.1988  0.0814  0.1801
29856SOL    HW194415   3.953   4.210   0.260 -0.3607  1.9119 -0.0465
29856SOL    HW294416   3.822   4.268   0.310 -1.7210 -0.7475 -0.2901
29857SOL     OW94417   5.089   0.860   3.469  0.3197  0.5607  0.0237
29857SOL    HW194418   5.003   0.871   3.510 -0.9426 -1.6952 -1.7452
29857SOL    HW294419   5.102   0.942   3.420 -1.1213  0.7138 -0.1661
29858SOL     OW94420   6.685   6.047   2.449 -0.2925  0.0268 -0.1262
29858SOL    HW194421   6.709   6.140   2.453 -0.7101  0.2911 -2.3835
29858SOL    HW294422   6.623   6.036   2.521 -1.4723  1.9263 -0.7633
29859SOL     OW94423   6.178   8.050   9.388 -0.3663  0.4697  0.1569
29859SOL    HW194424   6.088   8.028   9.409 -1.3289  1.5681 -2.4126
29859SOL    HW294425   6.182   8.047   9.292  2.0692  1.3374  0.1565
29860SOL     OW94426   1.839   1.583   2.449 -0.2303 -0.4688  0.1620
29860SOL    HW194427   1.758   1.564   2.496 -0.0907  0.2342  0.7169
29860SOL    HW294428   1.897   1.621   2.516 -0.3636  1.4746 -0.7507
29861SOL     OW94429   1.223   0.236   2.799 -0.0137 -0.5785 -0.3038
29861SOL    HW194430   1.316   0.228   2.778 -0.1115 -1.4301 -0.4632
29861SOL    HW294431   1.207   0.164   2.860 -0.7147 -0.8743 -0.8233
29862SOL     OW94432   3.822   1.994   4.880 -0.5654  0.1282 -0.2681
29862SOL    HW194433   3.892   1.934   4.906  0.6689  2.1272  1.3713
29862SOL    HW294434   3.741   1.945   4.894  0.4440 -1.8595 -1.1130
29863SOL     OW94435   5.749   0.158   7.761 -0.3662 -0.4102 -0.2722
29863SOL    HW194436   5.703   0.109   7.693 -1.2292 -0.5956  0.4257
29863SOL    HW294437   5.804   0.220   7.713  1.0085 -2.2395 -1.1971
29864SOL     OW94438   5.197   0.668   2.221 -0.1575  0.4236 -0.1870
29864SOL    HW194439   5.273   0.720   2.249  1.2292 -0.1213 -2.6288
29864SOL    HW294440   5.232   0.579   2.212 -1.8411 -0.4565  1.3616
29865SOL     OW94441   2.147   4.311   9.343  0.0252 -0.1702 -0.0827
29865SOL    HW194442   2.061   4.352   9.332 -0.9821 -1.9948  0.4867
29865SOL    HW294443   2.205   4.360   9.285 -1.2680  1.4625 -0.0767
29866SOL     OW94444   9.228   8.780   7.744  0.0453  0.8346  0.2676
29866SOL    HW194445   9.168   8.852   7.764 -1.1249  0.1787 -0.7675
29866SOL    HW294446   9.197   8.707   7.799 -0.5004  0.3170 -0.7053
29867SOL     OW94447   2.836   9.476   5.907  0.2133 -0.3146  0.1485
29867SOL    HW194448   2.856   9.500   5.817 -1.2815 -0.0033 -0.1271
29867SOL    HW294449   2.821   9.560   5.951 -0.3457 -0.5182  0.3536
29868SOL     OW94450   9.217   2.312   1.828  0.2703  0.3354  0.3130
29868SOL    HW194451   9.179   2.291   1.743  1.0902  0.0732 -0.0041
29868SOL    HW294452   9.213   2.230   1.877  1.4823 -0.0237 -0.1474
29869SOL     OW94453   4.390   7.681   9.204  0.1253 -0.1775  0.0914
29869SOL    HW194454   4.363   7.592   9.183  0.7914 -0.7958  1.7143
29869SOL    HW294455   4.311   7.724   9.235  0.2889 -0.9702  1.6584
29870SOL     OW94456   0.610   8.343   2.208 -0.5117 -0.2629 -0.4648
29870SOL    HW194457   0.604   8.285   2.132  1.9021  0.4130 -1.2435
29870SOL    HW294458   0.583   8.288   2.282  0.7761 -2.1300 -1.2913
29871SOL     OW94459   7.661   8.108   2.166  0.2564 -0.2660 -0.0966
29871SOL    HW194460   7.715   8.056   2.226  1.2380  0.0381 -0.6916
29871SOL    HW294461   7.642   8.048   2.094  2.0270  0.3650 -1.1549
29872SOL     OW94462   1.152   6.545   3.938 -0.4466  0.2012  0.0848
29872SOL    HW194463   1.106   6.482   3.994 -1.7229  0.7487 -0.3073
29872SOL    HW294464   1.117   6.630   3.964 -1.6835  0.4173 -2.0578
29873SOL     OW94465   2.302   0.180   8.876 -0.0854  0.0433 -0.0985
29873SOL    HW194466   2.267   0.115   8.936  0.3030  0.0837  0.1774
29873SOL    HW294467   2.250   0.259   8.893 -1.1285 -0.4238 -1.0378
29874SOL     OW94468   6.762   6.449   6.514 -0.2089 -0.2242  0.7706
29874SOL    HW194469   6.813   6.525   6.487 -0.9908 -0.4381 -1.4807
29874SOL    HW294470   6.817   6.405   6.579  0.2127  2.2713  2.2447
29875SOL     OW94471   3.329   3.910   1.755  0.3029 -0.4107 -0.1663
29875SOL    HW194472   3.376   3.935   1.835  1.5520 -0.6206 -0.8066
29875SOL    HW294473   3.367   3.826   1.730 -0.3188 -0.5122 -0.8038
29876SOL     OW94474   9.563   0.663   2.253  0.1212  0.2229 -0.1745
29876SOL    HW194475   9.528   0.691   2.168  2.1408 -0.9458 -1.4841
29876SOL    HW294476   9.646   0.710   2.260 -0.2094  0.6181  1.4013
29877SOL     OW94477   2.999   2.006   0.080 -0.1360 -0.4387 -0.0851
29877SOL    HW194478   3.030   2.074   0.020 -1.3310  1.8407  1.7200
29877SOL    HW294479   3.078   1.979   0.127  0.2593  0.2675 -0.3168
29878SOL     OW94480   1.945   9.752   6.083  0.1080  0.8100 -0.1629
29878SOL    HW194481   1.950   9.657   6.071  0.8100  0.9403 -1.0730
29878SOL    HW294482   1.912   9.785   5.999 -0.0501  1.3777  0.1149
29879SOL     OW94483   1.371   8.800   5.885 -0.2181  0.1296  0.0077
29879SOL    HW194484   1.398   8.710   5.901  2.2965  0.8843  0.4657
29879SOL    HW294485   1.284   8.807   5.926 -0.6924 -2.1774 -0.5116
29880SOL     OW94486   2.643   0.119   6.517 -0.2118  0.2608 -0.0754
29880SOL    HW194487   2.605   0.133   6.430 -1.8170  1.9538  0.8136
29880SOL    HW294488   2.623   0.200   6.565  1.8278 -0.0708  1.4692
29881SOL     OW94489   0.126   5.553   5.756  0.3594  0.1132 -0.1252
29881SOL    HW194490   0.060   5.549   5.825  1.3181  0.2172  0.8218
29881SOL    HW294491   0.101   5.484   5.694 -0.7865  0.3436  0.0621
29882SOL     OW94492   7.509   8.599   3.459  0.0449 -0.5516 -0.4456
29882SOL    HW194493   7.507   8.504   3.451  1.0611 -0.4246 -3.2002
29882SOL    HW294494   7.420   8.627   3.437 -0.1758 -0.8364  0.0712
29883SOL     OW94495   6.973   3.523   6.117  0.3823  0.3293 -0.6147
29883SOL    HW194496   6.932   3.451   6.070  1.6825 -0.5751 -0.4112
29883SOL    HW294497   7.047   3.483   6.163  0.6462  1.6494  0.1584
29884SOL     OW94498   2.120   4.455   2.011  0.1210  0.1807 -0.0423
29884SOL    HW194499   2.102   4.548   2.022 -0.8267  0.1321 -1.0660
29884SOL    HW294500   2.213   4.446   2.034  0.9278  1.8135 -2.3670
29885SOL     OW94501   0.342   4.088   2.064  0.3267 -0.8875  0.1120
29885SOL    HW194502   0.304   4.120   1.983  0.3352 -2.4861 -0.5550
29885SOL    HW294503   0.269   4.046   2.110  0.8340 -2.2709 -0.2918
29886SOL     OW94504   6.635   6.810   4.706 -0.1848  0.3882 -0.7414
29886SOL    HW194505   6.722   6.784   4.735 -0.3995 -0.2357 -0.6589
29886SOL    HW294506   6.579   6.736   4.727 -0.7761  0.8633 -0.6098
29887SOL     OW94507   5.663   0.758   9.030 -0.1346  0.7585  0.6837
29887SOL    HW194508   5.579   0.723   9.061  0.5649 -1.1993  0.4712
29887SOL    HW294509   5.686   0.825   9.095 -0.9846  0.0405  1.7740
29888SOL     OW94510   5.800   9.239   1.153  0.3038  0.0912  0.5749
29888SOL    HW194511   5.746   9.300   1.203  0.9083  0.3149  0.9676
29888SOL    HW294512   5.821   9.286   1.072 -0.6498 -0.2591  0.1112
29889SOL     OW94513   8.981   0.389   1.065 -0.2398 -0.6991 -0.0699
29889SOL    HW194514   9.062   0.344   1.041  0.5282  0.6805 -0.2052
29889SOL    HW294515   8.958   0.353   1.150  0.5991 -1.0257  0.0283
29890SOL     OW94516   9.007   8.438   2.833 -0.7059  0.1495  0.1816
29890SOL    HW194517   8.926   8.446   2.783  0.9611  2.6940 -2.4952
29890SOL    HW294518   9.004   8.512   2.895 -0.2949  0.4996 -0.2082
29891SOL     OW94519   1.755   7.984   5.048 -0.5814 -0.4486  0.0036
29891SOL    HW194520   1.844   7.985   5.083 -0.2653 -1.4940 -0.7218
29891SOL    HW294521   1.737   7.892   5.031 -1.8024 -0.2481  0.1081
29892SOL     OW94522   5.832   8.767   3.843  0.0627  0.0800  1.0048
29892SOL    HW194523   5.909   8.756   3.899 -0.2962 -0.4935  1.3921
29892SOL    HW294524   5.868   8.773   3.754  0.5388 -0.4702  1.1509
29893SOL     OW94525   4.761   2.796   4.393 -0.0339  0.0010  0.7696
29893SOL    HW194526   4.747   2.712   4.436  1.6425 -0.7083  0.0248
29893SOL    HW294527   4.680   2.845   4.408 -1.5812 -2.2243  0.1016
29894SOL     OW94528   2.380   5.652   9.532  0.4687  0.0131  0.3533
29894SOL    HW194529   2.438   5.659   9.608  1.0130  0.6727 -0.1109
29894SOL    HW294530   2.435   5.676   9.458 -0.0819 -0.5370 -0.2456
29895SOL     OW94531   7.596   1.842   6.115 -1.1955 -0.5727 -0.0487
29895SOL    HW194532   7.539   1.849   6.039 -0.5090  3.0933 -0.4052
29895SOL    HW294533   7.541   1.865   6.189 -0.5416  2.0434 -0.2845
29896SOL     OW94534   8.644   9.607   0.174 -0.4043  0.0360 -0.1170
29896SOL    HW194535   8.698   9.573   0.103 -0.6727  0.1372 -0.3744
29896SOL    HW294536   8.688   9.688   0.201  2.6980 -2.5414  3.4077
29897SOL     OW94537   7.434   3.916   3.323 -0.7471 -0.0359  0.2047
29897SOL    HW194538   7.524   3.919   3.354 -0.5138  0.9265 -0.5077
29897SOL    HW294539   7.419   3.824   3.299  0.1309 -0.1521  0.0859
29898SOL     OW94540   1.015   2.286   2.936 -0.2426 -0.3392 -0.8518
29898SOL    HW194541   0.982   2.211   2.986 -0.5593  0.3459 -0.0168
29898SOL    HW294542   0.941   2.346   2.931  0.4981  0.6776 -0.0223
29899SOL     OW94543   8.282   2.317   3.340 -0.0085 -0.0946 -0.2439
29899SOL    HW194544   8.211   2.367   3.299 -0.1049 -0.2984 -0.3310
29899SOL    HW294545   8.265   2.324   3.434 -0.5754 -0.7523 -0.2865
29900SOL     OW94546   7.506   2.023   4.811 -0.1651 -0.4182  0.0164
29900SOL    HW194547   7.598   2.042   4.791  0.1969 -0.6411  1.3824
29900SOL    HW294548   7.463   2.108   4.810  0.2561 -0.1982  0.3357
29901SOL     OW94549   3.507   6.481   6.551  0.5132 -0.2227 -0.1922
29901SOL    HW194550   3.553   6.508   6.631  0.0794  0.1510 -0.0631
29901SOL    HW294551   3.428   6.534   6.551  0.2141 -0.6692 -0.5518
29902SOL     OW94552   5.665   8.398   9.680 -0.1752 -0.0609 -0.2468
29902SOL    HW194553   5.645   8.316   9.724 -0.5993 -0.3217 -0.9159
29902SOL    HW294554   5.725   8.373   9.610  0.1055  0.2802 -0.1325
29903SOL     OW94555   5.782   9.135   5.491 -0.0539 -0.2605  0.6602
29903SOL    HW194556   5.856   9.077   5.505 -0.2757 -0.7674 -0.1758
29903SOL    HW294557   5.761   9.170   5.578  0.5927 -0.8039  1.0392
29904SOL     OW94558   9.395   3.286   7.694 -0.2282 -0.6776 -0.0380
29904SOL    HW194559   9.333   3.356   7.715 -1.1846 -1.6912  0.5779
29904SOL    HW294560   9.388   3.224   7.767  2.8917  0.0586  1.0801
29905SOL     OW94561   7.516   7.542   6.139  0.4417  0.1715 -0.3147
29905SOL    HW194562   7.554   7.627   6.160  1.8522 -0.7649  1.2122
29905SOL    HW294563   7.490   7.505   6.224 -0.1378 -0.9242 -0.9407
29906SOL     OW94564   2.955   5.615   6.361  0.3010 -0.2672  0.0327
29906SOL    HW194565   2.948   5.526   6.329 -0.2583 -0.5902  0.9976
29906SOL    HW294566   2.912   5.668   6.294 -2.8544 -1.1550  1.1286
29907SOL     OW94567   7.892   6.130   1.006 -0.3827  0.3576  0.6664
29907SOL    HW194568   7.977   6.129   1.050  0.0880  1.9137 -0.1543
29907SOL    HW294569   7.912   6.148   0.914 -1.6754  2.6118  0.7640
29908SOL     OW94570   4.572   5.183   7.024  0.0145 -0.3067  0.1086
29908SOL    HW194571   4.487   5.146   7.001  0.4139 -1.7507  0.8140
29908SOL    HW294572   4.558   5.226   7.108  0.2707 -1.8043  0.9491
29909SOL     OW94573   6.395   2.815   1.727  0.1198  0.2281 -0.1075
29909SOL    HW194574   6.413   2.858   1.811 -1.7342  0.3270  0.2889
29909SOL    HW294575   6.435   2.729   1.735 -0.6611 -0.0383  1.2058
29910SOL     OW94576   6.221   1.134   6.035  0.4931 -0.5812 -0.4570
29910SOL    HW194577   6.189   1.057   6.080 -2.2951 -0.0831 -1.3900
29910SOL    HW294578   6.167   1.206   6.068  1.6966  0.6427 -1.0380
29911SOL     OW94579   2.376   3.845   8.321 -0.0204  0.3367  0.1689
29911SOL    HW194580   2.417   3.759   8.332  1.6607  0.9127 -1.1767
29911SOL    HW294581   2.302   3.844   8.383 -1.4554 -2.8952 -1.3485
29912SOL     OW94582   2.590   5.382   7.817 -0.3744 -0.4290 -0.0782
29912SOL    HW194583   2.578   5.362   7.910  1.4986 -0.3532  0.2190
29912SOL    HW294584   2.555   5.471   7.807 -0.7342 -0.4970  0.5031
29913SOL     OW94585   2.982   1.247   2.203  0.1954  0.0916 -0.2419
29913SOL    HW194586   2.993   1.337   2.232  0.3411 -0.1418  0.4518
29913SOL    HW294587   2.894   1.223   2.232 -0.5911  0.5913 -2.0581
29914SOL     OW94588   0.342   3.169   5.466 -0.2075  0.3338  0.0590
29914SOL    HW194589   0.409   3.109   5.497 -0.0722  1.5482  2.2576
29914SOL    HW294590   0.390   3.237   5.419  0.2134  1.3684  1.8904
29915SOL     OW94591   7.515   2.391   5.431  0.3513  0.5443  0.5409
29915SOL    HW194592   7.433   2.381   5.480  1.2798  1.3679  2.3757
29915SOL    HW294593   7.532   2.305   5.394 -2.2852  0.8004 -1.5384
29916SOL     OW94594   7.045   7.982   9.331 -0.0120 -0.2508 -0.3663
29916SOL    HW194595   7.041   8.077   9.338 -1.0977 -0.2305 -1.0452
29916SOL    HW294596   7.002   7.950   9.410  3.1182 -0.2833  1.5254
29917SOL     OW94597   9.185   0.508   4.280  0.1158  0.0736 -0.0969
29917SOL    HW194598   9.213   0.599   4.285  1.8910 -0.5186  2.3088
29917SOL    HW294599   9.090   0.512   4.264  0.0800  2.3239  0.4587
29918SOL     OW94600   4.134   2.217   8.527  0.3521  0.2078  0.7248
29918SOL    HW194601   4.181   2.296   8.501  0.2057  0.3979  1.0324
29918SOL    HW294602   4.067   2.248   8.587 -0.3364 -0.0231  0.0910
29919SOL     OW94603   3.268   8.562   5.759  0.8619 -0.0255 -0.4813
29919SOL    HW194604   3.247   8.528   5.672 -1.0349 -0.3493  0.0516
29919SOL    HW294605   3.358   8.534   5.774  0.4903 -1.9270 -1.4551
29920SOL     OW94606   9.011   4.164   0.569  0.0334  0.0997  0.0555
29920SOL    HW194607   9.095   4.205   0.548  0.0799  1.0881  1.9397
29920SOL    HW294608   8.950   4.202   0.506  0.6888  0.6189 -0.2860
29921SOL     OW94609   7.939   6.716   0.668 -0.1220  0.3316  0.0918
29921SOL    HW194610   7.990   6.739   0.591  1.6459 -1.4139  0.6377
29921SOL    HW294611   7.916   6.624   0.656  1.2084 -0.3461  2.0956
29922SOL     OW94612   0.618   1.856   4.527 -0.2952  0.3709  0.7204
29922SOL    HW194613   0.596   1.764   4.543 -0.0653 -0.0289 -1.0279
29922SOL    HW294614   0.682   1.878   4.595 -0.9988 -0.4821  1.6910
29923SOL     OW94615   3.356   1.805   8.932  0.4959 -0.4916  0.8291
29923SOL    HW194616   3.298   1.856   8.875  0.0926 -2.5057 -0.6893
29923SOL    HW294617   3.305   1.790   9.011  0.6978  1.5575  1.3965
29924SOL     OW94618   4.699   8.779   8.242  0.1524 -0.8058 -0.0659
29924SOL    HW194619   4.764   8.743   8.180  1.8587  0.8753  0.6582
29924SOL    HW294620   4.745   8.782   8.326 -0.1180  2.2818  0.0773
29925SOL     OW94621   4.909   7.003   0.772  0.2805 -0.3597 -0.2704
29925SOL    HW194622   4.893   7.003   0.866 -0.8207 -0.0474 -0.4499
29925SOL    HW294623   4.864   7.082   0.740  1.2428 -0.0680 -0.9612
29926SOL     OW94624   1.078   6.019   0.794 -0.3140 -0.2112 -0.2535
29926SOL    HW194625   1.026   5.986   0.721 -1.7494 -0.1392  0.7042
29926SOL    HW294626   1.063   5.956   0.864 -0.2790  0.6160  0.5030
29927SOL     OW94627   7.519   1.244   1.667  0.0270  0.2458  0.0049
29927SOL    HW194628   7.570   1.183   1.720 -0.1372  0.8017  0.8315
29927SOL    HW294629   7.494   1.313   1.729  1.2287  1.7727 -1.1470
29928SOL     OW94630   6.272   4.681   9.240  0.0175  0.7205  0.2984
29928SOL    HW194631   6.272   4.701   9.147  1.5724  1.3412  0.4047
29928SOL    HW294632   6.357   4.641   9.256 -0.4817  0.0227  1.3427
29929SOL     OW94633   6.620   7.576   3.165 -0.3971 -0.2824  0.2608
29929SOL    HW194634   6.585   7.487   3.161  1.3043 -0.9588 -1.8439
29929SOL    HW294635   6.554   7.629   3.120 -2.1701 -0.0908  2.8711
29930SOL     OW94636   5.018   2.815   9.027  0.3871 -0.0840 -0.0925
29930SOL    HW194637   4.947   2.841   9.085 -0.8906 -1.8555 -0.7703
29930SOL    HW294638   5.092   2.798   9.085  0.0980  1.2116  0.6818
29931SOL     OW94639   1.561   3.921   4.064  0.3036  0.3441 -0.0360
29931SOL    HW194640   1.525   3.916   3.975  1.8935 -2.4736 -0.6562
29931SOL    HW294641   1.652   3.892   4.054  0.4978 -0.1312  2.5156
29932SOL     OW94642   0.836   8.403   8.038  0.5413 -0.5434  0.0037
29932SOL    HW194643   0.817   8.366   7.952 -0.5243 -0.5749  0.2399
29932SOL    HW294644   0.774   8.476   8.047 -0.3655 -1.4210  1.3143
29933SOL     OW94645   7.200   0.360   2.700  0.0614 -0.0107 -0.4836
29933SOL    HW194646   7.245   0.411   2.633  1.5244 -3.2029 -2.1468
29933SOL    HW294647   7.263   0.354   2.772  0.3372 -0.3888 -0.7551
29934SOL     OW94648   4.008   3.806   7.928  0.2687  0.0850  0.7500
29934SOL    HW194649   3.923   3.781   7.963 -0.4381 -2.2057 -2.1895
29934SOL    HW294650   4.068   3.799   8.002 -1.8937  0.8022  2.6603
29935SOL     OW94651   7.502   3.278   6.428 -0.0884 -0.4473  0.1901
29935SOL    HW194652   7.582   3.300   6.477 -1.0451 -0.3743  1.8028
29935SOL    HW294653   7.533   3.260   6.339  1.3222  2.8373 -0.1239
29936SOL     OW94654   8.994   4.907   8.682  0.2295  0.6361  0.2356
29936SOL    HW194655   9.067   4.849   8.701 -0.0909  0.6855  1.7288
29936SOL    HW294656   8.998   4.974   8.750 -0.4666  1.3464 -0.4088
29937SOL     OW94657   3.637   9.185   5.266 -0.1821  0.4222  0.4618
29937SOL    HW194658   3.677   9.222   5.188 -1.0145 -0.5272 -0.4414
29937SOL    HW294659   3.705   9.128   5.303 -0.2970 -0.2937 -0.4158
29938SOL     OW94660   3.022   6.604   3.464 -0.3330  0.1230 -0.3108
29938SOL    HW194661   2.941   6.554   3.459 -0.1185 -0.3869  0.9635
29938SOL    HW294662   3.026   6.634   3.555  1.4713 -0.8531 -0.0199
29939SOL     OW94663   7.236   8.736   5.581  0.2704 -0.3818 -0.3493
29939SOL    HW194664   7.325   8.767   5.563  1.4591 -2.0401  1.9953
29939SOL    HW294665   7.215   8.678   5.509  1.2362 -0.2084 -0.7829
29940SOL     OW94666   5.525   1.637   1.901 -0.1670  0.3804 -0.2431
29940SOL    HW194667   5.551   1.547   1.883 -1.2834  0.3214 -1.7495
29940SOL    HW294668   5.530   1.681   1.816 -1.2547  1.3134  0.1568
29941SOL     OW94669   2.004   5.345   6.856 -0.0888  0.0740  0.0289
29941SOL    HW194670   1.934   5.411   6.857 -0.2880 -0.1388  0.4049
29941SOL    HW294671   2.044   5.351   6.942 -0.2742 -0.4676  0.1587
29942SOL     OW94672   3.384   8.036   2.478 -0.2358  0.2719  0.6445
29942SOL    HW194673   3.449   8.076   2.536  0.2056 -0.5745  0.7496
29942SOL    HW294674   3.350   7.963   2.528  0.0815 -0.4144 -0.1240
29943SOL     OW94675   9.084   0.095   5.104 -0.1985  0.1112 -0.2843
29943SOL    HW194676   9.085   0.008   5.142  0.5088  0.0834 -0.3484
29943SOL    HW294677   9.100   0.154   5.178  0.8589  0.0769 -0.4651
29944SOL     OW94678   7.815   6.856   6.622  0.1706 -0.5765  0.1608
29944SOL    HW194679   7.909   6.848   6.607  0.3380  2.2171 -0.8733
29944SOL    HW294680   7.775   6.830   6.540  0.2393  0.7029 -0.3040
29945SOL     OW94681   4.320   3.240   1.069 -0.2472  0.3050  0.1131
29945SOL    HW194682   4.342   3.217   0.979 -1.2307  2.5971 -0.8056
29945SOL    HW294683   4.226   3.221   1.076 -0.5368  1.5930  0.0847
29946SOL     OW94684   1.547   0.770   8.518  0.2392  0.1093  0.2179
29946SOL    HW194685   1.561   0.840   8.582 -0.7623  0.7615 -0.2460
29946SOL    HW294686   1.519   0.816   8.439  2.6920 -0.5675 -1.1363
29947SOL     OW94687   4.142   6.239   2.659  0.7062 -0.4665  0.3458
29947SOL    HW194688   4.131   6.270   2.749 -1.2313  0.3510 -0.1190
29947SOL    HW294689   4.144   6.319   2.607  1.8927 -0.9287 -0.3527
29948SOL     OW94690   3.092   2.085   2.034  0.5553  0.2429  0.1410
29948SOL    HW194691   3.182   2.110   2.055  0.5418  1.4829 -1.1161
29948SOL    HW294692   3.039   2.131   2.099  0.8416 -1.1811  1.4320
29949SOL     OW94693   6.723   7.733   1.665 -0.6461 -0.1951 -0.9375
29949SOL    HW194694   6.803   7.716   1.614  0.1474 -2.1586  0.7848
29949SOL    HW294695   6.720   7.828   1.675  0.0117  0.1162 -3.2453
29950SOL     OW94696   8.434   1.903   5.039 -0.2120  0.2493  0.4829
29950SOL    HW194697   8.463   1.812   5.046  0.8945  0.6642  1.6906
29950SOL    HW294698   8.347   1.903   5.078 -0.1909 -0.2795  0.5319
29951SOL     OW94699   2.390   9.556   2.162 -0.3046 -0.1577 -0.0181
29951SOL    HW194700   2.370   9.602   2.244 -1.1402  0.7441 -0.7121
29951SOL    HW294701   2.307   9.552   2.115 -0.1312 -1.8622 -0.2652
29952SOL     OW94702   8.755   5.264   5.440  0.6466 -0.6048  0.4110
29952SOL    HW194703   8.740   5.174   5.412 -0.6663 -0.1726 -0.3712
29952SOL    HW294704   8.760   5.315   5.359  0.5541  0.1379  0.8586
29953SOL     OW94705   1.043   7.802   7.043 -0.1325  0.0645  0.3700
29953SOL    HW194706   1.034   7.863   6.969 -0.6427  0.5569  0.8196
29953SOL    HW294707   0.955   7.767   7.055  0.7115 -3.1869 -1.8597
29954SOL     OW94708   5.469   4.383   6.336  0.0249  0.4516 -0.2353
29954SOL    HW194709   5.544   4.427   6.295 -0.7104 -1.4143 -4.0141
29954SOL    HW294710   5.400   4.449   6.336  0.6728  1.1415  0.0233
29955SOL     OW94711   3.375   5.737   1.048 -0.1873  0.0985  0.4763
29955SOL    HW194712   3.313   5.756   0.978  0.2361  0.1852  0.1222
29955SOL    HW294713   3.382   5.641   1.049  0.8431  0.1462 -0.5210
29956SOL     OW94714   3.937   0.475   2.405  0.1075 -0.8363 -0.6331
29956SOL    HW194715   3.981   0.444   2.326  0.6321  0.1923 -0.7580
29956SOL    HW294716   3.945   0.570   2.401 -1.4593 -0.6647 -0.2556
29957SOL     OW94717   5.086   1.254   9.369 -0.4343  0.0430  0.0083
29957SOL    HW194718   5.106   1.288   9.282 -1.4083  1.4449  0.2930
29957SOL    HW294719   5.152   1.295   9.426 -1.3828  1.2564  0.2942
29958SOL     OW94720   5.138   6.590   7.116  0.0354  0.2832 -0.0694
29958SOL    HW194721   5.053   6.624   7.143  0.2566  0.1371  0.8496
29958SOL    HW294722   5.137   6.596   7.021 -0.9338  0.4446 -0.0601
29959SOL     OW94723   4.378   8.554   0.762 -0.0748 -0.2115  0.1588
29959SOL    HW194724   4.451   8.582   0.818  0.6502  0.9652 -1.3013
29959SOL    HW294725   4.310   8.620   0.777 -0.6177 -0.9586  1.0506
29960SOL     OW94726   9.093   8.065   6.044  0.0933 -0.0375 -0.3415
29960SOL    HW194727   9.000   8.045   6.055 -0.0355 -0.2308 -1.6418
29960SOL    HW294728   9.102   8.156   6.075 -0.3463 -0.2989  0.5875
29961SOL     OW94729   6.895   7.513   2.218  0.0445  0.4971  0.0876
29961SOL    HW194730   6.873   7.502   2.126  0.7990  0.0684 -0.0533
29961SOL    HW294731   6.851   7.440   2.262 -0.5193  0.8461  0.1018
29962SOL     OW94732   4.283   0.179   6.227  0.0536  1.0013  0.3398
29962SOL    HW194733   4.320   0.138   6.305  0.0413  0.9741  0.3313
29962SOL    HW294734   4.324   0.266   6.224  0.9098  0.5828 -0.2565
29963SOL     OW94735   8.272   0.016   2.227 -0.2281  0.6045 -0.3096
29963SOL    HW194736   8.345   0.071   2.256 -1.6915  3.2290 -1.2723
29963SOL    HW294737   8.263   0.035   2.134 -0.9745 -1.1559 -0.6502
29964SOL     OW94738   9.035   5.082   3.837  0.2821 -0.7617 -0.0105
29964SOL    HW194739   8.958   5.132   3.865 -0.7649 -2.5296  0.3747
29964SOL    HW294740   9.039   5.008   3.897  3.2105  0.0508  0.9403
29965SOL     OW94741   8.752   6.702   9.078  0.3384 -0.0857 -0.8560
29965SOL    HW194742   8.836   6.659   9.093  1.5802  1.4405 -2.8442
29965SOL    HW294743   8.713   6.655   9.005  0.0377 -0.0304 -0.7331
29966SOL     OW94744   0.305   0.881   7.798  0.1553 -0.0529  0.3440
29966SOL    HW194745   0.308   0.976   7.783 -1.0566  0.0642  0.7244
29966SOL    HW294746   0.251   0.847   7.727  1.1948 -0.5674 -0.2140
29967SOL     OW94747   6.730   3.102   7.012 -0.1123 -0.2497 -0.4145
29967SOL    HW194748   6.825   3.105   7.024  0.2706 -0.4041 -2.8780
29967SOL    HW294749   6.706   3.011   7.033  0.0021  0.1172  1.5499
29968SOL     OW94750   6.682   1.234   8.500 -0.0713 -0.0757 -0.0588
29968SOL    HW194751   6.745   1.169   8.532  1.6088  2.1458  1.4450
29968SOL    HW294752   6.692   1.233   8.405  1.6647 -0.3333  0.0979
29969SOL     OW94753   3.761   9.481   0.962  0.1470 -0.3951  0.5525
29969SOL    HW194754   3.856   9.473   0.958  0.0451 -1.2417 -0.5224
29969SOL    HW294755   3.728   9.427   0.890 -1.1974 -0.9095  1.4993
29970SOL     OW94756   2.001   2.318   4.719 -0.5015 -0.6305 -0.0753
29970SOL    HW194757   2.008   2.411   4.737 -2.6242  0.2353 -2.9833
29970SOL    HW294758   2.091   2.285   4.725  0.3240  1.6183  0.7200
29971SOL     OW94759   7.426   9.125   4.120  0.7337  0.0141  0.3156
29971SOL    HW194760   7.380   9.060   4.067  0.1630  0.0779  0.7355
29971SOL    HW294761   7.480   9.072   4.180  0.5426 -0.0647  0.4172
29972SOL     OW94762   4.871   1.838   8.487 -0.6205 -0.7272 -0.4293
29972SOL    HW194763   4.914   1.909   8.535 -0.0209 -0.5969 -1.1497
29972SOL    HW294764   4.777   1.859   8.492 -0.5611 -0.6536  0.5765
29973SOL     OW94765   3.335   6.927   8.348  0.5350  0.0679 -0.0009
29973SOL    HW194766   3.272   6.999   8.349  0.7615  0.2602  1.0761
29973SOL    HW294767   3.413   6.962   8.391  1.4221 -0.1525 -1.3562
29974SOL     OW94768   4.215   5.090   8.993  0.8394 -0.4679  0.2863
29974SOL    HW194769   4.204   5.169   9.046  0.1991 -0.9241  0.8545
29974SOL    HW294770   4.155   5.027   9.032 -0.4645 -0.4859 -1.6656
29975SOL     OW94771   6.960   1.186   9.444 -0.3545  0.2781 -0.5090
29975SOL    HW194772   6.914   1.112   9.405 -0.6772  0.7775 -1.1102
29975SOL    HW294773   6.954   1.255   9.377  0.8660  0.4982 -0.4027
29976SOL     OW94774   4.372   3.650   8.899  0.4686  0.0194  0.0787
29976SOL    HW194775   4.449   3.646   8.843  0.7703  0.2302  0.4753
29976SOL    HW294776   4.330   3.564   8.889  0.9443 -0.2214  0.1329
29977SOL     OW94777   8.366   9.429   3.993  0.2983 -0.6788  0.0040
29977SOL    HW194778   8.327   9.408   4.078 -1.8577  0.6306 -0.5725
29977SOL    HW294779   8.412   9.349   3.967 -0.7218 -1.8025  1.4861
29978SOL     OW94780   4.969   4.232   1.119  0.0763 -0.2187 -0.0114
29978SOL    HW194781   4.953   4.309   1.064  0.5829 -0.4275 -0.4602
29978SOL    HW294782   4.882   4.204   1.147 -0.1002  0.6959  0.4126
29979SOL     OW94783   3.224   0.873   1.010  0.3621  0.0987  0.4696
29979SOL    HW194784   3.294   0.810   1.026 -0.6454 -1.8437 -2.0823
29979SOL    HW294785   3.164   0.862   1.084  1.1619 -0.5163  1.0387
29980SOL     OW94786   2.184   9.529   3.274 -0.1044 -0.1514 -0.2592
29980SOL    HW194787   2.193   9.622   3.296 -1.6762  0.5719 -2.3214
29980SOL    HW294788   2.233   9.483   3.343  2.9478  2.2833 -0.5812
29981SOL     OW94789   8.474   2.653   1.423  0.1875  0.1098 -0.4315
29981SOL    HW194790   8.476   2.622   1.514  0.0014 -0.4756 -0.6233
29981SOL    HW294791   8.407   2.600   1.381  0.7071 -0.0511 -1.0679
29982SOL     OW94792   7.557   3.314   1.080  0.1207  0.3214  0.0109
29982SOL    HW194793   7.564   3.224   1.112  0.5880  0.7010  1.0062
29982SOL    HW294794   7.471   3.317   1.038 -0.4466 -0.2498  1.0864
29983SOL     OW94795   2.601   3.807   5.696 -0.2310 -0.0581 -0.1029
29983SOL    HW194796   2.611   3.757   5.615  2.1498 -1.0827  0.7365
29983SOL    HW294797   2.635   3.894   5.676 -1.4187  0.2940 -0.6850
29984SOL     OW94798   4.669   9.460   9.376 -0.2405 -0.2743 -0.4268
29984SOL    HW194799   4.598   9.489   9.318 -0.0989  1.1129  0.0665
29984SOL    HW294800   4.708   9.541   9.409  0.6938 -1.0324  0.3896
29985SOL     OW94801   8.533   2.236   2.344 -0.2247 -0.2009 -0.4564
29985SOL    HW194802   8.556   2.197   2.429  0.1135  0.9023 -0.0158
29985SOL    HW294803   8.617   2.259   2.305 -0.4121 -0.0096 -0.7481
29986SOL     OW94804   7.526   3.751   6.079 -0.5415 -0.2758 -0.0158
29986SOL    HW194805   7.612   3.755   6.120 -0.9668 -1.4418  1.0355
29986SOL    HW294806   7.513   3.839   6.043  1.1227 -0.1202 -0.3012
29987SOL     OW94807   6.518   2.038   6.453  0.0465 -0.2756 -0.2187
29987SOL    HW194808   6.590   2.027   6.391 -0.1589 -1.6704 -0.2395
29987SOL    HW294809   6.558   2.082   6.529  1.2021 -1.9797  0.2180
29988SOL     OW94810   4.724   6.312   8.983 -0.1512 -0.0152 -0.2236
29988SOL    HW194811   4.696   6.294   8.893  1.0794 -0.1135 -0.6085
29988SOL    HW294812   4.817   6.333   8.975  0.2896 -1.2539  1.1560
29989SOL     OW94813   9.243   8.110   5.834  0.0367  0.1571  0.3338
29989SOL    HW194814   9.175   8.088   5.897 -0.0156 -0.3314  0.1140
29989SOL    HW294815   9.324   8.078   5.873 -0.1549 -1.2902 -0.3854
29990SOL     OW94816   2.655   2.888   6.086 -0.4887 -0.1813 -0.1033
29990SOL    HW194817   2.646   2.937   6.004 -2.1541 -1.0613 -0.5004
29990SOL    HW294818   2.641   2.952   6.155 -2.1704  0.0205 -0.6009
29991SOL     OW94819   0.315   0.136   1.063 -0.3220  0.1395  0.3951
29991SOL    HW194820   0.311   0.079   0.986  0.1464 -0.8786  1.1095
29991SOL    HW294821   0.340   0.222   1.028 -0.0615 -0.3181 -0.5773
29992SOL     OW94822   1.936   0.357   8.845  0.1253 -0.0163  0.0021
29992SOL    HW194823   1.900   0.282   8.892  0.6280 -1.2290 -1.4570
29992SOL    HW294824   1.860   0.400   8.806 -0.0184 -0.8766 -0.6924
29993SOL     OW94825   0.903   7.373   9.049 -0.4366 -0.3713  0.2894
29993SOL    HW194826   0.825   7.426   9.030 -0.3241 -0.9927 -2.2364
29993SOL    HW294827   0.888   7.291   9.003  0.2658 -1.8813  2.5526
29994SOL     OW94828   3.559   3.911   9.413  0.0264 -0.0511  0.6188
29994SOL    HW194829   3.579   3.955   9.331 -1.5034  0.7658  0.6429
29994SOL    HW294830   3.617   3.834   9.414 -0.5693 -0.6079 -1.6737
29995SOL     OW94831   2.177   7.755   6.387  0.2653 -0.3475 -0.3348
29995SOL    HW194832   2.161   7.846   6.361  0.8816 -0.2799 -0.4876
29995SOL    HW294833   2.265   7.736   6.355  0.2527 -0.9063 -0.0470
29996SOL     OW94834   7.428   7.949   9.312 -0.5276  0.2000  0.0847
29996SOL    HW194835   7.392   8.011   9.376 -1.7584  0.3542 -0.7106
29996SOL    HW294836   7.384   7.866   9.331 -0.4414  0.0954 -0.1610
29997SOL     OW94837   6.258   6.222   3.333  0.7169 -0.2354 -0.0545
29997SOL    HW194838   6.213   6.188   3.256 -0.9704 -1.6460  1.4413
29997SOL    HW294839   6.303   6.146   3.370 -1.2046 -0.4494  2.0834
29998SOL     OW94840   1.000   5.613   7.743 -0.1585 -0.8567  0.4655
29998SOL    HW194841   0.954   5.530   7.730 -0.4770 -0.8505  1.5148
29998SOL    HW294842   1.071   5.611   7.679 -0.8947 -1.3938 -0.3617
29999SOL     OW94843   4.043   9.480   2.829  0.3426 -0.0233 -0.2426
29999SOL    HW194844   3.998   9.493   2.746 -0.4457  0.5285  0.2536
29999SOL    HW294845   4.078   9.566   2.851  1.9546 -0.5005 -0.7695
30000SOL     OW94846   2.260   9.656   7.108  0.0314 -1.0919  0.4365
30000SOL    HW194847   2.296   9.611   7.032  0.5043  2.4821 -1.6673
30000SOL    HW294848   2.166   9.652   7.096  0.0635 -1.5235  0.3068
30001SOL     OW94849   8.348   1.626   2.844  0.2133  0.0739 -0.0119
30001SOL    HW194850   8.358   1.579   2.761  0.8594 -1.3666  0.8437
30001SOL    HW294851   8.283   1.693   2.826 -1.3972 -1.6730 -1.0971
30002SOL     OW94852   0.325   1.265   1.224  0.2540  0.0809 -0.2278
30002SOL    HW194853   0.307   1.232   1.136 -1.6537  0.3807  0.0195
30002SOL    HW294854   0.335   1.186   1.278  0.1457 -0.1025 -0.4754
30003SOL     OW94855   6.877   9.668   0.939 -0.2096  0.7869 -0.0965
30003SOL    HW194856   6.829   9.728   0.996  0.0958  0.3508  0.6268
30003SOL    HW294857   6.837   9.681   0.853 -1.6279  0.4411  0.4774
30004SOL     OW94858   1.678   4.299   4.371  0.7446 -0.4927 -1.0412
30004SOL    HW194859   1.702   4.366   4.434 -1.8770 -1.1640  0.8218
30004SOL    HW294860   1.762   4.266   4.338  2.1695  1.1625  0.7109
30005SOL     OW94861   4.552   8.013   2.034 -0.0116 -0.1803 -0.4727
30005SOL    HW194862   4.625   7.957   2.006  0.0381 -0.1122 -0.4795
30005SOL    HW294863   4.556   8.011   2.129  0.9379  1.0251 -0.4539
30006SOL     OW94864   3.353   7.159   0.384  0.1544 -0.6857  0.1197
30006SOL    HW194865   3.291   7.209   0.330  0.3269 -0.7206 -0.1120
30006SOL    HW294866   3.439   7.180   0.346  0.3512 -0.0842  0.8719
30007SOL     OW94867   7.443   2.410   9.564  0.1538 -0.0558  0.0411
30007SOL    HW194868   7.493   2.334   9.596  2.5073  1.2109 -0.4311
30007SOL    HW294869   7.471   2.420   9.473 -1.1425  0.6111 -0.2960
30008SOL     OW94870   9.057   5.316   5.135  0.7369 -0.0971 -0.1759
30008SOL    HW194871   9.128   5.293   5.075  0.5198  1.9552 -1.3361
30008SOL    HW294872   8.989   5.353   5.079 -0.5109 -0.3621  1.1011
30009SOL     OW94873   9.293   8.231   0.547  0.0433  0.0034  0.2815
30009SOL    HW194874   9.315   8.152   0.597  0.4417 -0.6791 -0.9393
30009SOL    HW294875   9.204   8.252   0.574  0.4621  0.0306  1.7484
30010SOL     OW94876   4.366   1.412   0.871  0.5071 -0.0678  0.3262
30010SOL    HW194877   4.448   1.460   0.878  0.3398  0.2749 -0.0483
30010SOL    HW294878   4.379   1.351   0.798 -0.1039  1.0638 -0.7485
30011SOL     OW94879   4.486   6.217   0.353  0.2810  0.2148 -0.0693
30011SOL    HW194880   4.538   6.143   0.385  0.5966  0.7626  0.6996
30011SOL    HW294881   4.407   6.216   0.407 -0.2344 -0.2166 -0.8009
30012SOL     OW94882   7.938   1.752   1.501 -0.1246 -0.9345  0.0968
30012SOL    HW194883   8.000   1.752   1.575  0.8356 -0.0454 -0.6856
30012SOL    HW294884   7.953   1.668   1.458 -1.1754 -1.7635  1.2802
30013SOL     OW94885   8.446   2.095   6.759  0.0361 -0.0467 -0.2249
30013SOL    HW194886   8.379   2.149   6.718  0.8220  1.5922  0.5672
30013SOL    HW294887   8.529   2.136   6.735  0.9389 -2.7012 -2.1954
30014SOL     OW94888   8.627   1.521   7.822  0.1117 -0.0973  0.5554
30014SOL    HW194889   8.605   1.514   7.729  0.4937 -1.1916  0.5332
30014SOL    HW294890   8.548   1.492   7.868  0.2001 -0.3414  0.5538
30015SOL     OW94891   1.539   9.268   2.269  0.0998 -0.3583 -0.0209
30015SOL    HW194892   1.462   9.228   2.309 -2.5308  0.5647 -3.5953
30015SOL    HW294893   1.553   9.218   2.189  0.7959  1.7992 -1.3455
30016SOL     OW94894   7.013   1.066   4.659 -0.2030  0.2846 -0.5067
30016SOL    HW194895   7.076   1.055   4.731  0.0538  0.3861 -0.7163
30016SOL    HW294896   7.042   1.145   4.614  1.0315 -1.0174 -2.1234
30017SOL     OW94897   5.646   1.504   9.009 -0.1050  0.4362 -0.3029
30017SOL    HW194898   5.664   1.489   8.917  0.6446 -0.1990 -0.0588
30017SOL    HW294899   5.731   1.497   9.052 -0.8218 -2.6427  0.8955
30018SOL     OW94900   7.121   6.312   6.317  0.6132 -0.0293 -0.3646
30018SOL    HW194901   7.054   6.315   6.249  0.5836  0.6375 -0.3182
30018SOL    HW294902   7.142   6.219   6.326 -0.0772 -0.2177 -0.5992
30019SOL     OW94903   7.658   6.274   5.036  0.0884 -0.0916 -0.0225
30019SOL    HW194904   7.623   6.203   4.982 -1.4668  0.9882 -0.4904
30019SOL    HW294905   7.752   6.254   5.043 -0.3214 -2.2706  0.0301
30020SOL     OW94906   5.840   1.985   0.269 -0.3026 -0.0017  0.1007
30020SOL    HW194907   5.867   1.977   0.360  0.5448  2.2235  0.1134
30020SOL    HW294908   5.755   1.942   0.265  0.5117 -1.8748  1.4545
30021SOL     OW94909   5.313   2.221   3.901  0.3160 -0.4116 -0.2177
30021SOL    HW194910   5.357   2.266   3.974 -0.0244 -0.6172  0.1111
30021SOL    HW294911   5.226   2.261   3.897  0.2537 -0.5608 -0.3659
30022SOL     OW94912   2.338   3.325   0.312  0.0909  0.1725  0.3844
30022SOL    HW194913   2.319   3.273   0.390 -0.3804 -1.4667 -0.7552
30022SOL    HW294914   2.254   3.367   0.290 -0.9982 -2.6267 -1.4670
30023SOL     OW94915   6.677   1.294   9.238  0.0302 -0.3254 -0.2176
30023SOL    HW194916   6.753   1.260   9.191 -1.3064 -3.6150 -0.2886
30023SOL    HW294917   6.712   1.362   9.296  2.2219  1.6138 -3.5094
30024SOL     OW94918   8.346   6.428   7.716  0.0428  0.1623  0.1728
30024SOL    HW194919   8.411   6.496   7.733  0.3735  0.3831 -1.6917
30024SOL    HW294920   8.347   6.418   7.621 -3.1566  0.6792 -0.0326
30025SOL     OW94921   5.732   6.033   2.933 -0.6730 -0.0512  0.4431
30025SOL    HW194922   5.721   6.122   2.900  2.2399 -0.0806 -0.9397
30025SOL    HW294923   5.666   5.981   2.888 -0.9580  1.0560 -0.4255
30026SOL     OW94924   1.720   7.726   2.525 -0.1924  0.0678  0.6813
30026SOL    HW194925   1.675   7.642   2.517 -1.3044  0.8243 -2.4177
30026SOL    HW294926   1.650   7.789   2.543 -0.3150  1.0335 -2.6214
30027SOL     OW94927   3.716   7.440   2.781 -0.9040  0.7018 -0.4370
30027SOL    HW194928   3.716   7.348   2.754 -1.3172  0.8452 -0.9390
30027SOL    HW294929   3.747   7.438   2.871  0.3678  0.1891 -0.8557
30028SOL     OW94930   2.391   9.585   8.700  0.4295 -0.5632  0.1807
30028SOL    HW194931   2.373   9.674   8.669 -3.4865 -1.1912  0.1922
30028SOL    HW294932   2.411   9.594   8.793 -0.5326  0.2958  0.3149
30029SOL     OW94933   0.765   4.026   0.833  0.2351 -0.3147  0.3700
30029SOL    HW194934   0.857   4.015   0.813 -0.2060  0.4066 -2.6004
30029SOL    HW294935   0.720   3.965   0.775 -1.2059  0.6957  0.3529
30030SOL     OW94936   4.365   3.528   5.783 -0.2344  0.4913  0.1807
30030SOL    HW194937   4.386   3.584   5.858 -0.9159  0.0811  0.6941
30030SOL    HW294938   4.438   3.541   5.722  0.4781  0.6145  1.0384
30031SOL     OW94939   4.071   2.791   5.365 -0.4004 -0.0125  0.1501
30031SOL    HW194940   3.987   2.806   5.408 -0.6482 -2.9801  0.9324
30031SOL    HW294941   4.055   2.717   5.306  1.8600 -1.2861  1.0240
30032SOL     OW94942   9.226   7.944   0.587 -0.5362  0.5165 -0.5426
30032SOL    HW194943   9.170   7.916   0.515  0.1766  0.7507 -1.1994
30032SOL    HW294944   9.315   7.931   0.555 -0.1816 -0.8758  0.8751
30033SOL     OW94945   5.480   6.697   8.974  0.3842 -0.3290 -0.3352
30033SOL    HW194946   5.461   6.604   8.986  1.2592 -0.6654 -1.3916
30033SOL    HW294947   5.559   6.712   9.027  1.3067 -0.6339 -1.5874
30034SOL     OW94948   1.990   7.160   3.262  0.5310 -0.1287 -0.2989
30034SOL    HW194949   1.898   7.177   3.283 -0.2728  0.7815 -3.9256
30034SOL    HW294950   2.038   7.222   3.318 -1.1634  0.6228  0.4062
30035SOL     OW94951   2.136   9.014   4.819  0.5345  0.2379  0.3698
30035SOL    HW194952   2.168   9.093   4.776 -0.7150 -0.5706 -2.3362
30035SOL    HW294953   2.052   9.040   4.858  0.5209  0.4447  0.2038
30036SOL     OW94954   6.905   4.125   5.750  0.3416 -0.2413 -0.8113
30036SOL    HW194955   6.855   4.153   5.826  1.0725  1.0806 -0.7762
30036SOL    HW294956   6.867   4.041   5.725 -1.3520  0.3379 -0.3132
30037SOL     OW94957   4.709   0.145   6.281  0.4001 -0.4759 -0.4720
30037SOL    HW194958   4.690   0.051   6.286 -2.3559  0.0313  1.3217
30037SOL    HW294959   4.770   0.161   6.353  0.5002 -0.8087 -0.4820
30038SOL     OW94960   2.373   2.682   2.865 -0.5921  0.2093  0.6024
30038SOL    HW194961   2.416   2.657   2.783 -0.9959  0.7874  0.2069
30038SOL    HW294962   2.398   2.613   2.927 -1.6835 -1.1790 -0.4347
30039SOL     OW94963   9.426   2.977   1.348 -0.0891  0.1454  0.4294
30039SOL    HW194964   9.505   2.991   1.295  1.9190  1.5849  3.5297
30039SOL    HW294965   9.415   2.881   1.348  1.2597 -0.0503 -0.5670
30040SOL     OW94966   9.729   1.805   6.062 -0.5445 -0.4276 -0.0623
30040SOL    HW194967   9.662   1.871   6.046 -0.8070 -0.5038  0.7181
30040SOL    HW294968   9.713   1.739   5.994 -0.6988 -0.0162 -0.4286
30041SOL     OW94969   2.200   4.603   1.641  0.1197  0.2927 -0.1174
30041SOL    HW194970   2.198   4.685   1.591  1.0136  0.5625  0.2609
30041SOL    HW294971   2.126   4.553   1.608  1.7438 -0.3770 -3.1175
30042SOL     OW94972   4.360   6.857   3.250  0.3204 -0.1626  0.4137
30042SOL    HW194973   4.362   6.948   3.281  0.8279  0.4645 -1.3287
30042SOL    HW294974   4.449   6.825   3.264  0.1724 -0.3550  0.9189
30043SOL     OW94975   2.293   8.036   0.395 -0.1427 -0.2835 -0.1928
30043SOL    HW194976   2.257   8.035   0.306  2.0476 -2.9934 -1.2174
30043SOL    HW294977   2.273   7.948   0.429 -0.8185  0.6657  1.9958
30044SOL     OW94978   8.559   5.026   2.980 -0.3942  0.3553 -0.1790
30044SOL    HW194979   8.625   4.963   2.949  0.8982  1.5443  0.0289
30044SOL    HW294980   8.496   5.031   2.908  0.5893  0.3266 -1.0755
30045SOL     OW94981   6.096   5.034   3.496  0.4687 -0.1659  0.4864
30045SOL    HW194982   6.143   5.057   3.415 -0.5408 -0.1021 -0.0964
30045SOL    HW294983   6.005   5.056   3.478  0.3092  0.4386  1.8748
30046SOL     OW94984   5.205   3.492   3.538  0.5350 -0.5715 -0.0325
30046SOL    HW194985   5.199   3.572   3.486  1.6023  0.0584  0.7930
30046SOL    HW294986   5.141   3.504   3.608  1.3852 -0.0010  0.6575
30047SOL     OW94987   7.635   5.629   5.326  0.3632 -0.1380  0.3840
30047SOL    HW194988   7.552   5.634   5.279  0.8448  0.4799 -0.4303
30047SOL    HW294989   7.617   5.667   5.412 -0.0920  0.3896  0.0562
30048SOL     OW94990   1.218   9.329   2.194  0.0272 -0.3720  0.3150
30048SOL    HW194991   1.245   9.397   2.132 -2.6647  0.6915  0.1611
30048SOL    HW294992   1.161   9.271   2.143  0.6866 -1.6189  0.9480
30049SOL     OW94993   6.217   8.135   2.618  0.6565  0.4082 -0.2546
30049SOL    HW194994   6.222   8.229   2.635 -1.9375  0.8739 -1.4679
30049SOL    HW294995   6.271   8.121   2.540 -0.2647  1.2558 -1.0743
30050SOL     OW94996   0.161   1.780   1.992 -0.1043  0.5440 -0.2035
30050SOL    HW194997   0.130   1.695   1.962 -0.7951  0.3711  0.9680
30050SOL    HW294998   0.170   1.831   1.911  1.1425 -0.8779 -1.0104
30051SOL     OW94999   8.397   1.985   8.762 -0.3032 -1.1033  0.2665
30051SOL    HW195000   8.347   1.999   8.843 -0.9651  0.0441 -0.3206
30051SOL    HW295001   8.333   1.997   8.692  0.9779  1.6736 -0.5782
30052SOL     OW95002   7.556   6.650   1.559 -0.0181  0.2449  0.0873
30052SOL    HW195003   7.484   6.709   1.536 -0.8932 -0.5178  0.8025
30052SOL    HW295004   7.534   6.567   1.516 -0.0387 -0.2473  1.0144
30053SOL     OW95005   0.806   8.602   1.786  0.5392  0.4609 -0.5856
30053SOL    HW195006   0.876   8.667   1.781  0.3346  0.5989 -1.8028
30053SOL    HW295007   0.825   8.540   1.716  1.1358 -1.2552  0.9823
30054SOL     OW95008   6.030   0.680   6.887 -0.5272  0.1531 -0.4370
30054SOL    HW195009   5.986   0.600   6.859 -0.2564  0.2045 -1.0180
30054SOL    HW295010   5.969   0.750   6.865 -0.7869  0.1125  0.1193
30055SOL     OW95011   4.606   0.832   2.155 -0.6490 -0.6169  0.0361
30055SOL    HW195012   4.630   0.917   2.193 -3.8609  0.6209 -0.4377
30055SOL    HW295013   4.588   0.852   2.063  0.5997 -2.2866 -0.6111
30056SOL     OW95014   7.266   3.079   4.486 -0.3617 -0.2046  0.6892
30056SOL    HW195015   7.337   3.088   4.423 -0.9730  1.6114  0.1882
30056SOL    HW295016   7.287   3.000   4.536  1.7282  0.0152  0.2299
30057SOL     OW95017   7.163   7.392   3.937 -0.3405 -0.0839  0.6210
30057SOL    HW195018   7.175   7.316   3.880  0.2284 -1.8697  2.9658
30057SOL    HW295019   7.087   7.437   3.900 -0.6929 -1.7769 -0.8882
30058SOL     OW95020   1.923   5.127   1.973 -0.2871 -0.2928 -0.4139
30058SOL    HW195021   1.961   5.205   1.933  0.4861 -1.2780 -1.6666
30058SOL    HW295022   1.850   5.160   2.026  2.6823  1.8369  2.8359
30059SOL     OW95023   4.029   6.202   6.683 -0.1372  0.4935 -0.0729
30059SOL    HW195024   4.118   6.185   6.653  0.6199  2.5286  0.8392
30059SOL    HW295025   3.983   6.232   6.604 -0.5644 -2.1480 -0.9258
30060SOL     OW95026   7.007   0.441   0.012 -0.2636  0.4114 -0.2056
30060SOL    HW195027   6.942   0.510   0.022  0.7906  1.3557  0.3591
30060SOL    HW295028   7.089   0.480   0.042  0.6782 -0.5873 -1.3816
30061SOL     OW95029   4.392   1.525   1.833  0.3311 -0.1453  0.5170
30061SOL    HW195030   4.378   1.620   1.824  0.1929 -0.1118  1.0644
30061SOL    HW295031   4.484   1.512   1.810  0.0935 -0.0163 -0.5523
30062SOL     OW95032   0.330   9.466   5.690  0.3802  0.1932  0.2709
30062SOL    HW195033   0.422   9.485   5.677  0.8137 -1.5247  0.5168
30062SOL    HW295034   0.328   9.374   5.717 -1.6879 -1.5747 -4.6341
30063SOL     OW95035   1.786   0.032   6.607 -0.1574  0.1925 -0.1502
30063SOL    HW195036   1.864   0.051   6.555  0.8904 -1.5886  0.6644
30063SOL    HW295037   1.783  -0.064   6.612 -0.9697  0.2710  1.9062
30064SOL     OW95038   5.502   1.357   3.175 -0.5509 -0.3733  0.4140
30064SOL    HW195039   5.415   1.318   3.168  0.0116 -1.8366  1.1844
30064SOL    HW295040   5.508   1.415   3.099 -1.8283 -0.9791 -0.1855
30065SOL     OW95041   0.902   0.714   5.444 -0.1822 -0.1723  0.4187
30065SOL    HW195042   0.811   0.726   5.472 -0.3526 -1.5858  0.5434
30065SOL    HW295043   0.941   0.658   5.512 -0.0859 -2.1032 -1.1328
30066SOL     OW95044   2.085   8.352   3.446 -0.8932 -0.0564 -0.5189
30066SOL    HW195045   2.104   8.430   3.498  1.2639 -1.6483  1.2852
30066SOL    HW295046   2.093   8.382   3.355 -1.6041  2.1097  0.0654
30067SOL     OW95047   4.745   0.932   3.992 -0.0705 -0.3732 -0.7373
30067SOL    HW195048   4.767   0.926   3.899  0.0591  1.5009 -0.8634
30067SOL    HW295049   4.669   0.990   3.995  1.7121  2.0548  0.5090
30068SOL     OW95050   2.980   5.099   5.990  0.3961 -0.5667 -0.2522
30068SOL    HW195051   3.042   5.029   6.011 -0.2892 -1.1029  0.0400
30068SOL    HW295052   2.951   5.080   5.901  2.3875  1.0217 -1.3364
30069SOL     OW95053   5.328   7.867   7.746 -0.1612  0.0818  0.1999
30069SOL    HW195054   5.287   7.792   7.789  0.9473 -0.8166 -0.2344
30069SOL    HW295055   5.340   7.931   7.816  0.8273 -1.0063  1.0715
30070SOL     OW95056   5.041   7.886   4.586  0.1912 -0.3775 -0.0949
30070SOL    HW195057   5.083   7.932   4.513  2.7983  0.1175  1.5730
30070SOL    HW295058   5.017   7.801   4.549  1.2674 -0.0841 -1.6068
30071SOL     OW95059   4.855   4.471   6.921 -0.1244 -0.2843 -0.5199
30071SOL    HW195060   4.814   4.542   6.872  1.4578  0.5726 -0.6783
30071SOL    HW295061   4.910   4.426   6.856  3.4610  1.9819  0.6229
30072SOL     OW95062   2.529   7.566   1.633 -0.4366 -0.4608 -0.6432
30072SOL    HW195063   2.493   7.610   1.556 -1.3779  1.8541  1.0310
30072SOL    HW295064   2.559   7.636   1.690  0.3248 -2.1023  1.0902
30073SOL     OW95065   5.367   6.418   7.914  0.0871  0.0344  1.1635
30073SOL    HW195066   5.375   6.417   8.009  1.0389  0.5172  1.1033
30073SOL    HW295067   5.344   6.508   7.892  0.4168  0.0585  0.9053
30074SOL     OW95068   5.839   9.443   4.639  0.1249 -0.1208 -0.4193
30074SOL    HW195069   5.852   9.512   4.704 -0.1908  0.8489 -1.3423
30074SOL    HW295070   5.782   9.483   4.573 -1.6719 -1.8870 -0.0465
30075SOL     OW95071   1.269   1.683   2.697  0.1449  0.0737  0.3292
30075SOL    HW195072   1.286   1.777   2.688  0.2847  0.0026 -0.1556
30075SOL    HW295073   1.194   1.678   2.756  1.6228  0.4042  2.3626
30076SOL     OW95074   7.293   8.034   6.503 -0.3154 -0.1257 -0.2811
30076SOL    HW195075   7.319   8.026   6.412  0.0900  0.3002 -0.2048
30076SOL    HW295076   7.347   7.970   6.550  2.6824  2.5748  0.2798
30077SOL     OW95077   0.495   0.188   7.430 -0.2667 -0.0410  0.2648
30077SOL    HW195078   0.406   0.172   7.397  0.1746 -0.2465 -0.8947
30077SOL    HW295079   0.496   0.147   7.517 -1.1891 -0.3758  0.1354
30078SOL     OW95080   1.166   0.756   1.203 -0.5873  0.1951  0.2498
30078SOL    HW195081   1.078   0.792   1.209 -0.0286  1.7593 -0.5834
30078SOL    HW295082   1.156   0.664   1.230 -1.9579  1.0350  2.9813
30079SOL     OW95083   2.173   9.490   6.345  0.1791 -0.1523 -0.6554
30079SOL    HW195084   2.247   9.531   6.391  1.3026 -2.1697 -0.5358
30079SOL    HW295085   2.174   9.529   6.258  1.1687  0.1233 -0.5343
30080SOL     OW95086   4.448   1.787   0.270 -0.0638 -0.0282  0.0967
30080SOL    HW195087   4.362   1.827   0.255  0.5680  1.5872  0.4995
30080SOL    HW295088   4.468   1.808   0.361  0.2290 -1.4906  0.3822
30081SOL     OW95089   3.760   8.566   2.413  0.0117 -0.1845  0.1494
30081SOL    HW195090   3.813   8.576   2.493 -0.3762 -0.4901  0.4484
30081SOL    HW295091   3.787   8.481   2.377 -1.2074 -0.9784  1.0222
30082SOL     OW95092   5.062   2.205   9.127 -0.3400 -0.1953 -0.0557
30082SOL    HW195093   5.135   2.257   9.091  0.2590 -1.7899 -1.2571
30082SOL    HW295094   5.000   2.271   9.157  1.3315  1.2292  0.4945
30083SOL     OW95095   9.493   2.419   9.643 -0.1111  0.3390  0.3113
30083SOL    HW195096   9.487   2.350   9.577 -1.2312 -0.4001  1.1395
30083SOL    HW295097   9.438   2.490   9.608 -1.7274 -0.5297  0.9518
30084SOL     OW95098   5.980   2.988   9.088  0.5847  0.0635 -0.4413
30084SOL    HW195099   5.915   3.009   9.155  1.0069  1.9704 -0.5676
30084SOL    HW295100   6.059   2.963   9.136  0.8047  1.1621 -0.2123
30085SOL     OW95101   6.550   2.844   4.010  0.0350 -0.4803 -0.1275
30085SOL    HW195102   6.644   2.861   4.017 -0.0175  1.0392 -2.0940
30085SOL    HW295103   6.538   2.760   4.053  2.5014 -1.2672 -0.7837
30086SOL     OW95104   6.933   6.764   1.948  0.1800 -0.0613  0.5822
30086SOL    HW195105   6.902   6.829   2.011  0.8828 -0.8690  1.8012
30086SOL    HW295106   6.856   6.707   1.934 -0.9484  1.8760 -1.7309
30087SOL     OW95107   0.159   7.058   3.240 -0.4298 -0.2715 -0.3702
30087SOL    HW195108   0.092   7.083   3.304 -0.3961  0.4485 -0.6083
30087SOL    HW295109   0.194   6.976   3.273 -2.3258 -1.3429 -0.9223
30088SOL     OW95110   8.351   7.875   6.417  0.7003  0.1117 -0.2128
30088SOL    HW195111   8.258   7.859   6.430  0.9218  0.5530  2.6089
30088SOL    HW295112   8.366   7.858   6.324 -2.1579  0.0069 -0.7367
30089SOL     OW95113   5.083   3.832   2.336 -0.3547  0.1756  0.1459
30089SOL    HW195114   5.120   3.780   2.406 -1.8456 -1.9419 -0.5457
30089SOL    HW295115   4.992   3.846   2.362 -0.4830  0.8194 -0.5960
30090SOL     OW95116   9.088   8.605   9.028 -0.3559  0.3627  0.6731
30090SOL    HW195117   9.163   8.546   9.017 -0.4077  0.6366 -1.6822
30090SOL    HW295118   9.025   8.576   8.962  0.1530  3.7242 -1.5661
30091SOL     OW95119   8.218   1.419   8.612  0.4810 -0.1253 -0.1947
30091SOL    HW195120   8.245   1.327   8.602  0.3908 -0.3133  1.0777
30091SOL    HW295121   8.228   1.436   8.706  0.7818  1.2642 -0.4664
30092SOL     OW95122   1.901   6.888   9.164  0.2297  0.5665 -0.2357
30092SOL    HW195123   1.873   6.803   9.131 -1.5678  1.0764 -0.1724
30092SOL    HW295124   1.985   6.872   9.206  0.9740 -0.7399 -2.1229
30093SOL     OW95125   7.795   6.570   3.223 -0.1217  0.3047  0.2456
30093SOL    HW195126   7.744   6.594   3.300  0.0385  1.3073  0.0565
30093SOL    HW295127   7.874   6.529   3.258 -1.0353 -1.2739  0.5381
30094SOL     OW95128   3.597   8.205   3.709  0.4379 -0.5548  0.2101
30094SOL    HW195129   3.615   8.291   3.746  1.5704 -0.6872  0.0297
30094SOL    HW295130   3.512   8.213   3.666  0.0205  0.1504  1.1410
30095SOL     OW95131   4.605   7.322   2.467 -0.2255  0.0536  0.0068
30095SOL    HW195132   4.683   7.377   2.466 -0.2935  0.1450 -1.3997
30095SOL    HW295133   4.596   7.291   2.377 -0.4486 -1.8969  0.6570
30096SOL     OW95134   6.779   3.570   0.470 -0.1037 -0.3547  0.4115
30096SOL    HW195135   6.750   3.490   0.515 -0.1393 -0.4974  0.1386
30096SOL    HW295136   6.810   3.539   0.384  2.8791 -0.5160  1.4217
30097SOL     OW95137   7.405   9.403   4.459  0.4875 -0.2000  0.2496
30097SOL    HW195138   7.334   9.352   4.497  0.6087 -0.8585 -0.3906
30097SOL    HW295139   7.398   9.388   4.365  1.4404 -0.2430  0.1730
30098SOL     OW95140   7.448   1.223   9.677 -0.4464 -0.3825  0.4874
30098SOL    HW195141   7.357   1.216   9.705 -0.9787  1.2812 -0.6655
30098SOL    HW295142   7.445   1.214   9.582  0.5040  0.2229  0.3838
30099SOL     OW95143   4.988   6.967   0.219 -0.7418  0.5931  0.4710
30099SOL    HW195144   4.997   7.062   0.230  1.2683  0.5927 -0.5922
30099SOL    HW295145   5.041   6.930   0.289 -2.2969  0.2007  1.4741
30100SOL     OW95146   6.706   2.410   3.730 -0.1579  0.0510 -0.2467
30100SOL    HW195147   6.688   2.398   3.823  0.0213 -0.9412 -0.3206
30100SOL    HW295148   6.620   2.427   3.691 -0.3719 -0.4573 -0.0185
30101SOL     OW95149   0.475   8.125   4.169 -0.4821 -0.0735 -0.1332
30101SOL    HW195150   0.551   8.095   4.220  0.3053  0.7756 -0.7853
30101SOL    HW295151   0.499   8.109   4.078 -1.7092 -1.1820 -0.3015
30102SOL     OW95152   2.276   6.245   1.981  0.2098  0.1775 -0.3069
30102SOL    HW195153   2.311   6.315   2.037  0.5470  0.4071 -0.7940
30102SOL    HW295154   2.234   6.291   1.909  0.2274 -0.1195 -0.5092
30103SOL     OW95155   0.645   1.066   1.805 -0.0495  0.0719 -0.1699
30103SOL    HW195156   0.623   1.158   1.819  2.4080  0.6855  0.1354
30103SOL    HW295157   0.677   1.061   1.715  2.7781  0.2640  0.7159
30104SOL     OW95158   0.705   3.090   8.029 -0.2059 -0.2592  0.3006
30104SOL    HW195159   0.652   3.104   7.951 -1.1642  0.2831  1.0231
30104SOL    HW295160   0.741   3.002   8.018  1.1165  0.4581 -1.5473
30105SOL     OW95161   6.890   1.223   2.263 -0.3661  0.7713  0.6312
30105SOL    HW195162   6.925   1.275   2.191  0.7696 -1.0327 -0.2069
30105SOL    HW295163   6.964   1.209   2.322  0.5021 -2.8420 -1.0144
30106SOL     OW95164   6.349   1.404   5.866 -0.3535 -0.8002 -0.7516
30106SOL    HW195165   6.397   1.374   5.789  0.7852  0.2448 -0.4974
30106SOL    HW295166   6.370   1.340   5.934  1.9941  0.4050 -0.2320
30107SOL     OW95167   6.091   3.565   1.055 -0.7302  0.0239  0.0147
30107SOL    HW195168   6.016   3.607   1.098 -1.6308 -0.7969 -0.6990
30107SOL    HW295169   6.084   3.592   0.963 -0.0691  0.0424 -0.0349
30108SOL     OW95170   2.060   9.137   1.129  0.3588  0.7663 -0.1512
30108SOL    HW195171   2.038   9.063   1.186  0.6471  2.9391  3.0244
30108SOL    HW295172   2.142   9.110   1.086 -0.8869 -1.7118 -1.1924
30109SOL     OW95173   6.204   8.204   6.387 -0.3553  0.3755  0.3079
30109SOL    HW195174   6.192   8.231   6.478  0.7279  1.3036  0.1976
30109SOL    HW295175   6.286   8.246   6.361 -1.0577  0.7879 -1.3413
30110SOL     OW95176   3.215   0.664   8.449 -0.0301 -0.4678  0.6386
30110SOL    HW195177   3.295   0.707   8.477 -0.4793  1.9650 -1.4624
30110SOL    HW295178   3.163   0.654   8.528  2.0164 -1.5297  1.9410
30111SOL     OW95179   6.288   1.316   2.012  0.5127  0.0558 -0.3364
30111SOL    HW195180   6.360   1.298   1.952  0.4957 -0.8340 -0.0980
30111SOL    HW295181   6.225   1.245   1.996  0.2426  0.1480  0.3109
30112SOL     OW95182   8.590   7.349   8.610 -0.2500 -0.5388 -0.1863
30112SOL    HW195183   8.563   7.402   8.535  2.3002  0.7170 -0.3267
30112SOL    HW295184   8.616   7.265   8.573 -0.0729 -0.3261 -0.5382
30113SOL     OW95185   1.674   6.467   4.499 -0.2758  0.2215 -0.3723
30113SOL    HW195186   1.699   6.446   4.410  1.5941 -0.5566  0.2835
30113SOL    HW295187   1.682   6.562   4.505 -1.4652  0.3918 -1.3071
30114SOL     OW95188   7.422   4.105   3.119  0.0303 -0.4355  0.2378
30114SOL    HW195189   7.408   4.033   3.181 -0.5509  0.0003  0.6216
30114SOL    HW295190   7.484   4.069   3.055  2.6728 -0.1420  2.4149
30115SOL     OW95191   2.960   0.192   8.324 -0.2725  0.8175  0.2815
30115SOL    HW195192   2.925   0.104   8.338  2.3796 -0.4559 -0.3435
30115SOL    HW295193   2.959   0.204   8.229  2.1389  0.0955  0.0860
30116SOL     OW95194   1.896   6.153   7.397  0.0354  0.2274  0.4572
30116SOL    HW195195   1.896   6.118   7.486 -0.7194 -1.9795 -0.3540
30116SOL    HW295196   1.877   6.078   7.341  0.5686  1.5315 -1.6002
30117SOL     OW95197   6.969   4.684   8.049  0.7062 -0.2755 -0.5607
30117SOL    HW195198   7.057   4.683   8.012  1.0085 -0.8354  0.1531
30117SOL    HW295199   6.978   4.639   8.133 -0.5306 -1.5274 -1.0707
30118SOL     OW95200   3.093   8.108   1.582 -0.6230  0.1562  0.1668
30118SOL    HW195201   3.134   8.104   1.668 -0.5732  0.8270  0.1829
30118SOL    HW295202   3.150   8.057   1.525 -0.8111 -0.5395  0.5875
30119SOL     OW95203   2.024   8.788   2.545  0.1871  0.0290  0.4514
30119SOL    HW195204   2.051   8.720   2.483  1.0943  2.1539 -1.6371
30119SOL    HW295205   2.036   8.870   2.497  0.9605  1.8407  3.4842
30120SOL     OW95206   0.890   5.826   7.193  0.4101  0.2501  0.2745
30120SOL    HW195207   0.895   5.784   7.107  0.6790  0.1860  0.3186
30120SOL    HW295208   0.797   5.837   7.209  0.2925 -0.8929  0.5231
30121SOL     OW95209   1.868   7.410   6.778 -0.0624 -0.0432 -0.0088
30121SOL    HW195210   1.883   7.500   6.751 -0.5866  0.2091  0.4984
30121SOL    HW295211   1.925   7.358   6.722  0.7843  0.6579  0.1811
30122SOL     OW95212   7.500   7.811   6.430  0.4971 -0.4851 -0.5458
30122SOL    HW195213   7.575   7.753   6.412 -0.7231 -1.6915 -2.1577
30122SOL    HW295214   7.455   7.769   6.503  0.1472 -1.0989 -1.0915
30123SOL     OW95215   6.786   6.069   2.203 -1.2281 -0.1105  0.6855
30123SOL    HW195216   6.784   6.026   2.288 -1.0895  0.1560  0.8269
30123SOL    HW295217   6.697   6.102   2.191 -1.3819 -0.5867  0.4953
30124SOL     OW95218   5.465   4.286   7.903  0.2103  0.1707  0.4854
30124SOL    HW195219   5.468   4.192   7.921  0.4192 -0.0874 -0.7937
30124SOL    HW295220   5.413   4.293   7.823 -0.1864  1.1945  0.8166
30125SOL     OW95221   3.133   5.095   6.563  0.5015  0.3609 -0.2378
30125SOL    HW195222   3.146   5.078   6.470 -1.7419 -2.0956 -0.2414
30125SOL    HW295223   3.100   5.184   6.568  0.0592  0.3096 -1.8717
30126SOL     OW95224   2.621   7.994   0.713 -0.1057 -0.4081 -0.9772
30126SOL    HW195225   2.637   7.979   0.806  0.3049 -1.0765 -1.1489
30126SOL    HW295226   2.698   8.042   0.683 -0.4156  0.1526 -0.8991
30127SOL     OW95227   9.044   5.324   4.735  0.5296 -0.5603 -0.0139
30127SOL    HW195228   9.019   5.406   4.693  1.6018  0.2698  0.9148
30127SOL    HW295229   9.006   5.256   4.679  1.7642  0.4920 -2.2705
30128SOL     OW95230   2.036   2.610   9.224 -0.0124 -0.0863 -0.0609
30128SOL    HW195231   2.065   2.610   9.315 -2.3635  2.6119  0.8533
30128SOL    HW295232   1.983   2.530   9.216 -1.4938  0.6171  1.6804
30129SOL     OW95233   9.650   0.280   5.322 -0.3036  0.3710  1.0145
30129SOL    HW195234   9.679   0.198   5.282 -0.6803 -0.1085  1.6972
30129SOL    HW295235   9.702   0.286   5.403 -0.6745  0.5302  1.2398
30130SOL     OW95236   4.444   6.578   1.951  0.0282  0.8537 -0.1516
30130SOL    HW195237   4.533   6.599   1.981  0.9940 -1.9053 -0.7449
30130SOL    HW295238   4.392   6.654   1.975  2.5418  2.5819  0.2398
30131SOL     OW95239   6.551   3.259   5.495 -0.0993 -0.2563 -0.5317
30131SOL    HW195240   6.470   3.267   5.445 -0.0473 -1.1189 -0.7594
30131SOL    HW295241   6.525   3.275   5.586 -0.6450 -1.1934 -0.5171
30132SOL     OW95242   8.321   3.377   7.315 -0.5008  0.3746 -0.3527
30132SOL    HW195243   8.343   3.397   7.224  0.5241 -1.6734 -0.6166
30132SOL    HW295244   8.361   3.447   7.366  0.7047  0.4502 -1.3529
30133SOL     OW95245   3.671   3.661   9.334  0.5083  0.0390  0.1870
30133SOL    HW195246   3.685   3.571   9.362 -0.3490  0.3242  1.6455
30133SOL    HW295247   3.636   3.654   9.245 -0.4597 -1.1398  0.6286
30134SOL     OW95248   2.093   7.783   0.681  0.6815  0.2059  0.6676
30134SOL    HW195249   2.045   7.866   0.691  1.2464  1.0163 -2.4480
30134SOL    HW295250   2.185   7.808   0.678  0.8465 -0.4680 -0.5428
30135SOL     OW95251   0.342   5.376   3.908  0.3521  0.1950 -0.3216
30135SOL    HW195252   0.325   5.447   3.847 -0.4480 -0.1234 -0.4749
30135SOL    HW295253   0.437   5.378   3.921  0.4791  0.5149 -1.2611
30136SOL     OW95254   3.096   3.332   7.378  0.0165 -0.1523 -0.2527
30136SOL    HW195255   3.108   3.423   7.405  0.3745 -0.6659  1.5012
30136SOL    HW295256   3.126   3.329   7.287  1.2393  1.2275  0.0661
30137SOL     OW95257   8.423   5.918   0.742 -0.0703  0.2458 -0.4057
30137SOL    HW195258   8.513   5.948   0.742 -0.1695  0.5497 -0.3521
30137SOL    HW295259   8.429   5.823   0.732  0.3150  0.0726  1.1945
30138SOL     OW95260   8.962   7.787   3.507  0.0494  0.0945  0.0545
30138SOL    HW195261   9.034   7.780   3.445 -2.8788 -0.8952 -3.5904
30138SOL    HW295262   8.933   7.697   3.521 -0.0165  0.3926  2.1788
30139SOL     OW95263   7.070   3.400   7.717 -0.4131 -0.0251  0.1777
30139SOL    HW195264   7.030   3.436   7.796  1.3322  1.5077  0.4245
30139SOL    HW295265   7.090   3.477   7.663  2.4371 -0.6372  0.2298
30140SOL     OW95266   0.019   4.678   5.695  0.4327 -0.4032  0.1166
30140SOL    HW195267   0.107   4.641   5.686  1.0499  1.2814 -1.6961
30140SOL    HW295268   0.012   4.701   5.787  2.9372  1.7062 -0.0994
30141SOL     OW95269   9.232   4.532   1.500  0.0760  0.2327 -0.2785
30141SOL    HW195270   9.210   4.439   1.505  1.2450 -0.0158  0.6477
30141SOL    HW295271   9.286   4.539   1.420 -1.0429  0.3565 -1.0400
30142SOL     OW95272   6.911   0.649   6.752 -0.4028 -0.1990 -0.2867
30142SOL    HW195273   6.839   0.704   6.783  0.8202  1.5255 -0.3898
30142SOL    HW295274   6.988   0.706   6.753  0.8270 -1.7562 -0.9458
30143SOL     OW95275   3.352   2.447   6.175 -0.3185 -0.0919 -0.1141
30143SOL    HW195276   3.276   2.473   6.228 -0.8329  2.4373 -1.9213
30143SOL    HW295277   3.418   2.513   6.195 -0.4608  0.8070 -2.3838
30144SOL     OW95278   1.585   1.617   7.670 -0.3030  0.1317 -0.1361
30144SOL    HW195279   1.567   1.681   7.739  0.9986 -1.1886  1.5116
30144SOL    HW295280   1.539   1.538   7.698  0.1616 -0.4012 -0.8359
30145SOL     OW95281   5.079   2.911   5.415 -0.4191 -0.2220  0.1810
30145SOL    HW195282   5.109   2.950   5.497  1.1363 -0.3894 -0.2632
30145SOL    HW295283   4.992   2.949   5.400 -0.6986 -0.1451  1.8502
30146SOL     OW95284   9.734   3.664   0.346  0.1893 -0.3328 -0.1699
30146SOL    HW195285   9.792   3.661   0.423  0.2294  0.0770 -0.1830
30146SOL    HW295286   9.702   3.754   0.344 -0.4115 -0.5424 -0.1927
30147SOL     OW95287   6.536   0.547   1.194 -0.1887 -0.0542 -0.2137
30147SOL    HW195288   6.445   0.553   1.166 -0.3580 -0.7482  0.1864
30147SOL    HW295289   6.583   0.521   1.115 -0.3491  0.1665 -0.3856
30148SOL     OW95290   5.142   0.049   0.152  0.2015  0.4806 -0.3360
30148SOL    HW195291   5.190   0.088   0.224  0.0080 -0.6253  0.4085
30148SOL    HW295292   5.072   0.112   0.133 -0.0559  0.5565  0.7876
30149SOL     OW95293   7.784   3.297   8.988 -0.2893  0.5306 -0.3218
30149SOL    HW195294   7.737   3.286   9.071  0.1259  2.0835  0.1446
30149SOL    HW295295   7.788   3.209   8.951 -0.8003 -0.1298  1.1329
30150SOL     OW95296   8.786   8.913   0.691 -0.3149 -0.0694  0.2588
30150SOL    HW195297   8.846   8.851   0.734 -0.3515  0.1145  0.5805
30150SOL    HW295298   8.731   8.858   0.635  1.4667 -0.0387 -1.6326
30151SOL     OW95299   7.497   0.036   8.371 -0.0225  0.8569 -0.1770
30151SOL    HW195300   7.526   0.091   8.444 -2.5500  0.7464  1.0076
30151SOL    HW295301   7.419   0.080   8.337 -0.4522 -0.5225 -1.0573
30152SOL     OW95302   6.130   5.916   8.561  0.4912 -0.4308  0.1064
30152SOL    HW195303   6.118   5.942   8.470  1.8643  2.0061  0.5014
30152SOL    HW295304   6.042   5.910   8.597 -0.0209  0.5873 -0.9227
30153SOL     OW95305   3.965   1.867   6.648 -0.5439 -0.4966  0.5990
30153SOL    HW195306   3.903   1.929   6.686 -0.9570 -0.0109 -0.7862
30153SOL    HW295307   4.047   1.916   6.642 -0.6718 -0.3276  0.2016
30154SOL     OW95308   8.785   4.874   7.393 -0.1972  0.6190 -0.7611
30154SOL    HW195309   8.743   4.948   7.349 -2.8605 -1.8998 -2.9569
30154SOL    HW295310   8.861   4.854   7.338  0.9439  2.0188  0.2304
30155SOL     OW95311   8.280   5.207   7.458  0.0418 -0.1360  0.3585
30155SOL    HW195312   8.188   5.231   7.445  0.1576 -0.3105 -0.9650
30155SOL    HW295313   8.329   5.266   7.401  0.7565 -0.0529  1.0408
30156SOL     OW95314   8.164   3.433   1.427 -0.0663 -0.1456 -0.2350
30156SOL    HW195315   8.169   3.381   1.508  1.5907  0.9883  0.4504
30156SOL    HW295316   8.071   3.452   1.417 -0.1928  1.2836  2.5148
30157SOL     OW95317   0.305   7.502   7.101 -0.1977 -0.6052  0.3836
30157SOL    HW195318   0.287   7.420   7.055 -0.0684 -0.0900 -0.6151
30157SOL    HW295319   0.391   7.529   7.069 -0.2375 -0.0777  0.7051
30158SOL     OW95320   7.088   0.387   7.475  0.2433  0.2502 -0.0668
30158SOL    HW195321   7.171   0.351   7.506  0.0650 -0.4595 -0.3969
30158SOL    HW295322   7.102   0.404   7.382 -0.5385 -1.6300 -0.5746
30159SOL     OW95323   2.707   2.575   0.154 -0.0711  0.3782  0.1025
30159SOL    HW195324   2.802   2.574   0.136 -0.0188  3.7923 -0.3511
30159SOL    HW295325   2.700   2.607   0.244 -0.8193 -2.4102  1.1302
30160SOL     OW95326   1.551   0.263   1.941  0.0015  0.1340 -0.3785
30160SOL    HW195327   1.482   0.292   2.001 -2.2770 -2.5073 -1.5107
30160SOL    HW295328   1.509   0.258   1.855  1.4941 -1.8052 -1.0971
30161SOL     OW95329   3.341   3.384   0.400 -0.3344 -0.4584 -0.1319
30161SOL    HW195330   3.369   3.462   0.352  0.0660 -0.1206  0.6185
30161SOL    HW295331   3.336   3.315   0.334 -1.4197  0.3667 -0.9380
30162SOL     OW95332   5.086   1.921   9.467  0.5320 -0.2981 -0.1558
30162SOL    HW195333   5.055   1.839   9.428 -1.8082 -0.1975  1.3096
30162SOL    HW295334   5.132   1.894   9.547  0.5627 -0.2316 -0.1508
30163SOL     OW95335   7.708   1.938   9.269 -0.8446 -0.2148  0.2331
30163SOL    HW195336   7.643   1.961   9.203 -1.1273 -0.1433  0.5356
30163SOL    HW295337   7.746   2.021   9.296 -1.1496 -0.1868  0.5889
30164SOL     OW95338   9.096   7.363   3.184  0.2084  1.1249  0.6192
30164SOL    HW195339   9.018   7.307   3.183  1.5684 -0.8676  0.3012
30164SOL    HW295340   9.143   7.336   3.263  0.5676  2.3433  0.8405
30165SOL     OW95341   4.406   0.175   6.709 -1.0278  0.4827  0.8369
30165SOL    HW195342   4.488   0.186   6.756  0.0184  0.1841 -0.8154
30165SOL    HW295343   4.353   0.251   6.734 -1.1222 -0.3805  3.5264
30166SOL     OW95344   4.061   3.091   6.271  0.0491  0.1181  0.6051
30166SOL    HW195345   4.156   3.102   6.271  0.2105 -0.7480 -1.9597
30166SOL    HW295346   4.046   2.999   6.252 -1.2935  0.4108  0.0619
30167SOL     OW95347   0.366   5.541   0.887 -0.7694 -0.3703 -0.1110
30167SOL    HW195348   0.458   5.564   0.873 -0.9930 -0.1018 -1.2232
30167SOL    HW295349   0.356   5.456   0.845 -0.8945 -0.6658  0.5151
30168SOL     OW95350   2.770   7.170   6.446  0.6352 -0.1770  0.1991
30168SOL    HW195351   2.768   7.163   6.351 -0.0491 -1.7321  0.2954
30168SOL    HW295352   2.761   7.264   6.464 -3.1664 -0.0863 -1.2170
30169SOL     OW95353   8.602   1.252   3.032 -0.0826  0.6042  0.1610
30169SOL    HW195354   8.697   1.239   3.027 -0.1577  0.5172 -1.4835
30169SOL    HW295355   8.587   1.284   3.121  1.5052  0.7603  0.3979
30170SOL     OW95356   3.244   0.377   0.528  0.4593  0.0034 -0.5221
30170SOL    HW195357   3.286   0.414   0.451 -0.2008 -1.4615 -1.6379
30170SOL    HW295358   3.150   0.380   0.508  0.0916  1.6513  1.1917
30171SOL     OW95359   1.846   6.135   3.599  0.1706  0.2884  0.0638
30171SOL    HW195360   1.894   6.053   3.589  0.2692  0.2834  0.5577
30171SOL    HW295361   1.896   6.198   3.547  0.6680  0.2638  0.4997
30172SOL     OW95362   0.226   3.592   5.063  0.0529  0.4399  0.5051
30172SOL    HW195363   0.214   3.592   4.968  0.6852  0.0455  0.4129
30172SOL    HW295364   0.173   3.519   5.094 -0.3551  0.7260  0.4878
30173SOL     OW95365   7.908   1.522   3.269  0.5993  0.8930  0.3590
30173SOL    HW195366   7.847   1.488   3.203  1.1273  0.4716  0.0742
30173SOL    HW295367   7.956   1.592   3.224  0.5583  0.9974  0.4769
30174SOL     OW95368   7.356   6.831   6.525  0.2463 -0.0807 -0.1567
30174SOL    HW195369   7.410   6.904   6.553 -0.0406 -1.0619  3.3608
30174SOL    HW295370   7.396   6.801   6.443  1.3259  2.9141 -0.8398
30175SOL     OW95371   6.704   9.591   3.060  0.0032 -0.4128  0.1666
30175SOL    HW195372   6.644   9.602   3.134 -0.3280 -1.4855  0.0729
30175SOL    HW295373   6.789   9.622   3.094 -0.3474  0.0235  0.6703
30176SOL     OW95374   3.122   2.242   0.459  0.4236  0.1365  0.0861
30176SOL    HW195375   3.144   2.330   0.488  2.7698 -0.3588  0.0047
30176SOL    HW295376   3.195   2.188   0.489  0.5097 -1.2593 -2.3716
30177SOL     OW95377   6.013   1.697   7.713  0.3103  0.0294 -0.2247
30177SOL    HW195378   5.994   1.791   7.717 -0.5366 -0.1305 -0.2809
30177SOL    HW295379   5.927   1.655   7.714  0.6904 -0.7781  0.6422
30178SOL     OW95380   8.775   1.755   7.652 -0.0521  0.0610 -0.0657
30178SOL    HW195381   8.814   1.678   7.693  2.3558  1.0366 -0.4150
30178SOL    HW295382   8.829   1.771   7.574 -0.7491  1.8686 -0.2182
30179SOL     OW95383   3.821   6.259   3.517 -0.3655  0.3865  0.2373
30179SOL    HW195384   3.873   6.184   3.546  1.0378  1.1202 -0.3271
30179SOL    HW295385   3.853   6.332   3.571 -1.7248  0.6060  0.7912
30180SOL     OW95386   3.805   0.683   8.012 -0.4249  0.2379 -0.8424
30180SOL    HW195387   3.802   0.721   7.924 -0.9000  0.2541 -0.8238
30180SOL    HW295388   3.847   0.598   8.000 -0.3031  0.3285 -1.0553
30181SOL     OW95389   9.009   1.761   7.926  0.0661 -0.0988 -0.3014
30181SOL    HW195390   8.952   1.742   7.852 -1.7216 -2.7911  1.5947
30181SOL    HW295391   8.958   1.737   8.003  2.0890  1.9057  1.8271
30182SOL     OW95392   2.590   0.215   3.645 -0.4035 -0.1389 -0.4761
30182SOL    HW195393   2.538   0.139   3.618  0.2438  0.1481 -2.6820
30182SOL    HW295394   2.680   0.183   3.646 -0.3197  0.0728  0.7255
30183SOL     OW95395   9.335   4.374   5.239 -0.1691 -0.1739 -0.3383
30183SOL    HW195396   9.349   4.288   5.201 -0.0010  0.2570 -1.2832
30183SOL    HW295397   9.394   4.432   5.190  0.0170  0.4120  0.5462
30184SOL     OW95398   4.850   0.295   4.393 -0.6314 -0.2659 -0.6845
30184SOL    HW195399   4.818   0.246   4.468 -0.6019  1.2252  0.3567
30184SOL    HW295400   4.945   0.284   4.396 -0.5385  0.5547  0.1102
30185SOL     OW95401   9.462   9.342   6.380 -0.5280  0.0168  0.5763
30185SOL    HW195402   9.490   9.427   6.346 -2.2032  1.1230  1.7802
30185SOL    HW295403   9.425   9.361   6.466  0.4522 -2.1877  1.5715
30186SOL     OW95404   2.381   9.402   9.116 -0.0368 -0.6024 -0.2575
30186SOL    HW195405   2.453   9.371   9.171  1.3260  1.4228 -0.7969
30186SOL    HW295406   2.315   9.333   9.122  1.4294 -1.9605  1.2438
30187SOL     OW95407   4.905   4.927   3.977  0.0121  0.5140  0.3869
30187SOL    HW195408   4.859   4.934   3.893 -0.4954  1.4832  0.7296
30187SOL    HW295409   4.902   4.834   3.998 -1.0260  0.4377 -0.0423
30188SOL     OW95410   8.842   2.982   2.494 -0.1220  0.0001 -0.0927
30188SOL    HW195411   8.790   2.969   2.573  0.1678 -2.4885 -0.2252
30188SOL    HW295412   8.896   3.058   2.513 -1.5808  0.7695  1.2310
30189SOL     OW95413   0.475   0.315   2.235  0.8592 -0.5749 -0.8202
30189SOL    HW195414   0.569   0.333   2.244  1.2974 -3.3050  1.2567
30189SOL    HW295415   0.470   0.245   2.171  0.2482 -0.5762 -0.7759
30190SOL     OW95416   4.979   5.447   2.929  0.1128 -0.3655  0.1620
30190SOL    HW195417   5.028   5.373   2.964 -1.3407 -1.3244  0.2550
30190SOL    HW295418   4.895   5.445   2.975 -0.7096  0.1365 -1.2325
30191SOL     OW95419   7.814   9.163   1.090  0.1380 -0.3706 -0.2186
30191SOL    HW195420   7.756   9.127   1.157  0.2684  0.1273  0.1614
30191SOL    HW295421   7.757   9.175   1.013 -0.5890  1.3888  0.5556
30192SOL     OW95422   3.715   9.226   1.727  0.3039 -0.2571 -0.0413
30192SOL    HW195423   3.658   9.154   1.753  1.1447 -1.1314 -0.5528
30192SOL    HW295424   3.676   9.259   1.646 -0.2291  0.0487  0.3306
30193SOL     OW95425   4.718   7.443   5.462 -0.3492  0.0996  0.1559
30193SOL    HW195426   4.708   7.347   5.459 -0.2106  0.0461  1.0096
30193SOL    HW295427   4.746   7.460   5.552 -1.5386  1.0592  0.3582
30194SOL     OW95428   6.136   0.207   3.962  0.2829  0.2959  0.0384
30194SOL    HW195429   6.226   0.240   3.972  0.7140 -0.8550  0.1135
30194SOL    HW295430   6.113   0.229   3.872  0.9707 -0.1749 -0.2603
30195SOL     OW95431   7.563   6.632   7.717  0.0404 -0.2375  0.0235
30195SOL    HW195432   7.501   6.701   7.695  0.8607  0.3931 -0.3624
30195SOL    HW295433   7.583   6.590   7.633  1.2843  0.5586 -0.1012
30196SOL     OW95434   7.519   7.148   3.054  0.1427 -0.3100  0.5062
30196SOL    HW195435   7.434   7.114   3.023 -0.3182  1.3946 -0.1968
30196SOL    HW295436   7.556   7.193   2.978 -0.1400  2.3460  1.8291
30197SOL     OW95437   0.277   4.356   9.536  0.1517 -0.3145  0.2369
30197SOL    HW195438   0.264   4.264   9.560 -0.8515 -0.5499 -1.0621
30197SOL    HW295439   0.190   4.385   9.508  0.3004  1.2552  1.3096
30198SOL     OW95440   2.920   7.224   8.501 -0.3914 -0.2066 -0.0289
30198SOL    HW195441   2.975   7.265   8.568 -1.9360  1.0311  0.5497
30198SOL    HW295442   2.936   7.275   8.422 -1.4691  0.8636  0.4117
30199SOL     OW95443   3.897   1.029   0.988  0.0368  0.5910 -0.2815
30199SOL    HW195444   3.985   1.038   0.952 -0.5307 -0.2133 -1.9917
30199SOL    HW295445   3.907   1.050   1.081  1.7835  1.7672 -0.6722
30200SOL     OW95446   5.665   8.437   2.484 -0.1049 -0.1502 -0.0175
30200SOL    HW195447   5.653   8.349   2.448 -0.7485  0.2291 -0.7437
30200SOL    HW295448   5.595   8.489   2.446  0.1708  0.6503  0.5331
30201SOL     OW95449   7.611   1.023   0.093 -0.2098 -0.5290 -0.4040
30201SOL    HW195450   7.628   0.950   0.033  0.2212 -1.0055  0.2866
30201SOL    HW295451   7.554   1.082   0.043  0.3972 -0.7592 -1.3900
30202SOL     OW95452   0.516   3.026   7.294  0.4096  0.1759 -0.1069
30202SOL    HW195453   0.537   3.107   7.246 -0.6426  1.0879  0.9026
30202SOL    HW295454   0.426   3.006   7.269 -0.2569  0.8240  1.6359
30203SOL     OW95455   6.987   0.634   6.086 -0.7628 -0.4509  0.6214
30203SOL    HW195456   7.047   0.609   6.015 -0.2626 -2.2617  1.6069
30203SOL    HW295457   6.987   0.729   6.085  1.1466 -0.4070 -0.2609
30204SOL     OW95458   3.038   3.281   5.223 -0.4022  0.5191  0.2620
30204SOL    HW195459   3.087   3.346   5.273 -0.0680  1.6724 -1.4791
30204SOL    HW295460   3.080   3.198   5.246  1.5924  1.3293 -0.2233
30205SOL     OW95461   4.405   9.418   7.444  0.4524 -0.1444  0.5012
30205SOL    HW195462   4.404   9.415   7.349 -0.7603  0.7235  0.4689
30205SOL    HW295463   4.489   9.379   7.468 -0.9717 -4.6050 -0.7533
30206SOL     OW95464   8.053   7.265   3.774 -0.6625  0.1391  0.0229
30206SOL    HW195465   8.096   7.225   3.849 -0.0067  1.0378  0.1519
30206SOL    HW295466   8.067   7.203   3.702  0.5026  0.2045  0.1707
30207SOL     OW95467   0.393   0.110   6.751 -0.1109  0.3100  0.0824
30207SOL    HW195468   0.380   0.161   6.672 -0.1675 -2.3150 -1.7158
30207SOL    HW295469   0.469   0.054   6.732  2.2875  2.0849  3.3018
30208SOL     OW95470   8.046   3.400   4.151  0.1456  0.3289 -0.6590
30208SOL    HW195471   8.099   3.383   4.073  0.2907 -2.7929  0.0040
30208SOL    HW295472   7.956   3.386   4.122  0.2367 -1.4167 -0.2073
30209SOL     OW95473   8.394   5.983   5.012  0.2249 -0.3342  0.5115
30209SOL    HW195474   8.383   5.914   4.947  2.7112 -1.2033  0.9238
30209SOL    HW295475   8.409   6.062   4.960 -2.5657  0.0067  0.0390
30210SOL     OW95476   7.882   4.769   7.206  0.4277 -0.0776  0.2608
30210SOL    HW195477   7.895   4.691   7.152  0.7684  0.6902 -0.7975
30210SOL    HW295478   7.901   4.843   7.148 -2.0547  0.9000  0.5573
30211SOL     OW95479   6.805   3.438   8.873  0.0192 -0.1128 -0.0974
30211SOL    HW195480   6.746   3.364   8.856  0.3538 -0.2436 -0.7523
30211SOL    HW295481   6.747   3.513   8.885 -0.3412 -0.5328  0.9002
30212SOL     OW95482   0.931   9.684   9.350  0.4626  0.7956  0.3901
30212SOL    HW195483   0.987   9.685   9.428  0.9887 -0.5986  0.0511
30212SOL    HW295484   0.936   9.774   9.316  0.1603  1.4445  1.9886
30213SOL     OW95485   5.734   9.021   4.135  0.2164 -0.5898  0.0319
30213SOL    HW195486   5.752   8.960   4.207  1.6318  0.9442  1.0530
30213SOL    HW295487   5.657   9.070   4.164 -0.3610 -1.2429 -0.3729
30214SOL     OW95488   1.174   8.457   8.116 -0.2242  0.0949 -0.5536
30214SOL    HW195489   1.203   8.366   8.118 -0.6030 -0.0556 -1.4984
30214SOL    HW295490   1.217   8.494   8.039  0.9544  1.0815  0.5298
30215SOL     OW95491   3.472   4.691   3.506  0.5772  0.2790  0.0425
30215SOL    HW195492   3.386   4.709   3.469  0.2912  0.9334  1.0137
30215SOL    HW295493   3.490   4.765   3.563  3.1448  1.8172 -2.4886
30216SOL     OW95494   5.465   9.122   2.898  0.1228 -0.3956  0.1422
30216SOL    HW195495   5.532   9.158   2.955 -1.2372  1.0910  0.8967
30216SOL    HW295496   5.383   9.141   2.943 -1.1113  1.8948 -2.7227
30217SOL     OW95497   9.058   9.650   5.338  0.0256 -0.5338  0.5401
30217SOL    HW195498   9.031   9.609   5.421 -0.3278  0.5099  0.9493
30217SOL    HW295499   9.154   9.651   5.342  0.0059  1.2759  1.8484
30218SOL     OW95500   1.646   2.029   3.395 -0.0724 -1.1515 -0.6994
30218SOL    HW195501   1.593   2.056   3.320  0.8895 -0.1263 -1.0262
30218SOL    HW295502   1.710   2.099   3.407  0.6528 -1.9389  0.2446
30219SOL     OW95503   0.921   6.133   1.078  0.4141 -0.2400 -0.3310
30219SOL    HW195504   0.899   6.043   1.055 -0.6048 -0.0675 -0.0683
30219SOL    HW295505   0.837   6.174   1.099  1.0977  0.1125  1.9310
30220SOL     OW95506   6.281   4.556   8.939  0.4117 -0.2124  0.2056
30220SOL    HW195507   6.368   4.516   8.932  1.4568  1.9290  0.0610
30220SOL    HW295508   6.268   4.600   8.855 -0.0108  0.9883  0.8823
30221SOL     OW95509   7.971   5.925   0.062  0.2322  0.3678  0.1193
30221SOL    HW195510   7.948   6.014   0.090 -2.3267 -0.0343 -0.4446
30221SOL    HW295511   7.890   5.875   0.075  1.5538 -1.8401  0.2194
30222SOL     OW95512   5.902   6.211   4.590  0.1006  0.0766  0.2315
30222SOL    HW195513   5.880   6.132   4.541 -0.7517  0.4883 -0.0555
30222SOL    HW295514   5.826   6.227   4.646 -0.4063  1.5564 -0.8387
30223SOL     OW95515   6.048   9.730   9.386  0.6861 -0.4622 -0.5095
30223SOL    HW195516   6.124   9.743   9.329  1.2804 -0.0632  0.3554
30223SOL    HW295517   6.031   9.636   9.381  3.8530 -1.3741  2.4487
30224SOL     OW95518   8.866   3.970   3.725  0.4938 -0.0328 -0.6167
30224SOL    HW195519   8.844   4.059   3.753  0.3418  0.2135 -1.5108
30224SOL    HW295520   8.792   3.942   3.671  0.8389 -0.4555 -0.8794
30225SOL     OW95521   0.577   6.630   6.439 -0.0542 -0.5626 -0.1009
30225SOL    HW195522   0.521   6.688   6.387 -1.1104 -1.3235  0.1482
30225SOL    HW295523   0.577   6.548   6.390 -2.5073 -1.8907  1.8658
30226SOL     OW95524   7.560   1.113   1.395 -0.2356 -0.2874  0.4585
30226SOL    HW195525   7.562   1.019   1.409  1.6786 -0.3684 -0.0409
30226SOL    HW295526   7.577   1.151   1.482 -0.2069 -0.4321  0.5160
30227SOL     OW95527   0.213   1.686   0.267 -0.0887  0.4078 -0.3274
30227SOL    HW195528   0.131   1.707   0.221 -0.4336  1.3925  0.6993
30227SOL    HW295529   0.276   1.749   0.233 -0.6631  2.0170  1.4029
30228SOL     OW95530   5.959   0.663   3.840 -0.2816 -0.5141 -0.0955
30228SOL    HW195531   6.025   0.732   3.846 -0.5042 -0.3363  0.3191
30228SOL    HW295532   5.900   0.694   3.771 -0.4952 -0.1894  0.2301
30229SOL     OW95533   0.070   5.753   8.550 -0.3305 -0.2821  0.2776
30229SOL    HW195534  -0.023   5.731   8.548 -0.3079 -0.3304 -0.3595
30229SOL    HW295535   0.108   5.687   8.609 -0.6443 -0.4669  0.2798
30230SOL     OW95536   3.860   2.673   8.707  0.1483  0.2677  0.2462
30230SOL    HW195537   3.791   2.638   8.764 -0.6295  0.3485 -0.6147
30230SOL    HW295538   3.823   2.754   8.672 -0.5641 -1.1133 -2.4979
30231SOL     OW95539   0.506   0.122   1.784 -0.1177 -0.1483  0.4312
30231SOL    HW195540   0.531   0.215   1.781  1.0423 -0.4635 -0.3924
30231SOL    HW295541   0.547   0.084   1.706 -1.2722 -1.1942  0.3148
30232SOL     OW95542   4.200   3.076   5.360 -0.0992  0.6453 -0.4192
30232SOL    HW195543   4.117   3.046   5.323 -0.7872  1.7287  0.1986
30232SOL    HW295544   4.210   3.025   5.441  0.2652 -0.0849 -0.9177
30233SOL     OW95545   4.428   3.306   0.477  0.2601  0.2429  0.8241
30233SOL    HW195546   4.483   3.237   0.441 -0.1897 -0.8243  2.1073
30233SOL    HW295547   4.340   3.269   0.478 -0.5307  1.8575 -1.0386
30234SOL     OW95548   6.602   0.510   9.630 -0.0417 -0.2121 -0.5884
30234SOL    HW195549   6.640   0.441   9.575  0.7828 -0.6728  0.5112
30234SOL    HW295550   6.631   0.488   9.719 -1.0717  0.6871 -0.0058
30235SOL     OW95551   3.429   3.498   0.177 -0.1579  0.0021 -0.1920
30235SOL    HW195552   3.435   3.588   0.144 -0.1339  0.0088 -0.1693
30235SOL    HW295553   3.513   3.458   0.153  0.3445  0.3641  0.9123
30236SOL     OW95554   5.290   0.471   0.874 -0.1348  0.5186  0.7055
30236SOL    HW195555   5.359   0.419   0.915 -1.2489 -0.5736  1.2770
30236SOL    HW295556   5.233   0.496   0.946 -0.2246  1.6235  0.2773
30237SOL     OW95557   8.249   9.028   5.114  0.5561  0.8393 -0.7323
30237SOL    HW195558   8.332   9.020   5.160  0.1945 -0.0761 -0.2264
30237SOL    HW295559   8.271   9.077   5.034  1.8473 -0.5466 -1.2808
30238SOL     OW95560   5.359   6.514   7.282  0.3338 -0.5199  0.1102
30238SOL    HW195561   5.293   6.544   7.220  0.5477  1.6499  0.8548
30238SOL    HW295562   5.434   6.572   7.268  1.0657 -1.1682  1.1408
30239SOL     OW95563   5.531   3.750   6.612 -0.5237 -0.1373  0.3495
30239SOL    HW195564   5.447   3.793   6.627 -0.0362  1.4836 -1.2420
30239SOL    HW295565   5.594   3.800   6.664 -0.3565 -0.5586  0.5542
30240SOD    SOD95566   3.595   6.323   2.469  0.3763 -0.0608  0.4942
30241SOD    SOD95567   3.851   3.267   7.844 -0.5036 -0.0797 -0.2399
30242SOD    SOD95568   6.176   1.471   9.538  0.3603 -0.3070 -0.0148
30243SOD    SOD95569   3.610   4.743   8.446  0.5758  0.4451  0.3499
30244SOD    SOD95570   4.812   0.530   3.541  0.3766  0.3532 -0.0596
30245SOD    SOD95571   2.192   5.329   8.363 -0.1363 -0.0068 -0.5013
30246SOD    SOD95572   0.933   7.933   4.486  0.1868 -0.1038 -0.1367
30247SOD    SOD95573   6.925   0.204   0.055  0.3654  0.2739 -0.0074
30248SOD    SOD95574   6.653   1.894   4.411  0.2133 -0.2398  0.2602
30249SOD    SOD95575   2.105   1.931   9.017  0.0367  0.2141  0.2415
30250SOD    SOD95576   2.773   6.390   7.062  0.2409  0.2312  0.5969
30251SOD    SOD95577   6.131   1.341   4.382 -0.3055 -0.0344 -0.0266
30252SOD    SOD95578   3.019   7.076   2.298  0.0720 -0.1069  0.1133
30253SOD    SOD95579   2.028   5.637   3.135  0.0719  0.0384  0.0187
30254SOD    SOD95580   3.012   5.537   5.131  0.3107 -0.0329  0.5388
30255SOD    SOD95581   1.082   5.894   6.059  1.0849  0.0274  0.0164
30256SOD    SOD95582   1.799   1.267   5.882 -0.2597  0.4494  0.6457
30257SOD    SOD95583   6.665   7.289   8.050 -0.1633 -0.3094  0.3327
30258SOD    SOD95584   2.228   2.892   6.153  0.0920 -0.6289  0.1760
30259SOD    SOD95585   7.826   9.543   1.188 -0.6554  0.0875 -0.2622
30260SOD    SOD95586   4.791   5.878   2.035  0.0720 -0.5350 -0.3784
30261SOD    SOD95587   1.918   5.296   4.502  0.4337 -0.0121 -0.3559
30262SOD    SOD95588   6.880   2.473   0.710 -0.0536 -0.1178  0.6661
30263SOD    SOD95589   8.657   2.034   0.104  0.0794  0.2455 -0.2335
30264SOD    SOD95590   4.591   8.173   6.663  0.2258 -0.1992 -0.2007
30265SOD    SOD95591   5.046   2.340   4.680 -0.1198 -0.3909  0.5976
30266SOD    SOD95592   7.677   4.888   1.974  0.1258  0.0559  0.1035
30267SOD    SOD95593   3.817   0.138   5.774  0.5395  0.0183 -0.1943
30268SOD    SOD95594   2.361   7.326   3.201 -0.2270  0.2247  0.8137
30269SOD    SOD95595   4.018   0.667   7.112 -0.3101 -0.2008 -0.4424
30270SOD    SOD95596   7.122   0.760   2.860  0.0896  0.1363 -0.4156
30271SOD    SOD95597   2.629   2.947   2.973 -0.0372 -0.3964  0.0442
30272SOD    SOD95598   6.514   6.811   9.168  0.3321 -0.4478 -0.0364
30273SOD    SOD95599   7.924   0.758   2.877  0.2646  0.4074  0.3946
30274SOD    SOD95600   3.356   6.639   3.227 -0.7185 -0.2529  0.1056
30275SOD    SOD95601   9.200   4.123   7.546  0.2523  0.6269 -0.1570
30276SOD    SOD95602   5.326   8.605   2.821  0.1236 -0.3766  0.1734
30277SOD    SOD95603   4.011   1.713   0.180 -0.2514  0.0903  0.2244
30278SOD    SOD95604   8.257   4.707   6.965  0.7673 -0.1829  0.7151
30279SOD    SOD95605   9.426   8.166   4.733 -0.1640  0.8342 -0.3054
30280SOD    SOD95606   4.699   2.001   7.557  0.2362 -0.1363  0.3228
30281SOD    SOD95607   2.406   2.282   0.680 -0.2637  0.6717 -0.0161
30282SOD    SOD95608   3.514   6.581   5.655 -0.1750  0.2563  0.1622
30283SOD    SOD95609   0.921   4.421   8.656  0.1932 -0.2783 -0.1670
30284SOD    SOD95610   4.859   9.137   8.055 -0.3781  0.1481 -0.0628
30285SOD    SOD95611   8.661   2.883   0.456  0.0523 -0.5583 -0.3080
30286SOD    SOD95612   3.712   8.023   3.844 -0.1736 -0.2140  0.0290
30287SOD    SOD95613   4.069   3.225   0.103  0.7676 -0.0782  0.6410
30288SOD    SOD95614   3.794   1.569   6.108  0.3032  0.4721 -0.8133
30289SOD    SOD95615   4.877   8.070   5.484  0.0839 -0.5338 -0.1545
30290SOD    SOD95616   6.138   1.364   1.312 -0.1136  0.2041  0.2039
30291SOD    SOD95617   1.147   3.323   7.406 -0.0659  0.3258 -0.2683
30292SOD    SOD95618   6.058   9.121   4.597  0.1123  0.5039 -0.5660
30293SOD    SOD95619   0.021   1.261   4.916 -0.1880  0.1423  0.0483
30294SOD    SOD95620   9.385   6.313   2.145  0.3051 -0.5368  0.0671
30295SOD    SOD95621   4.170   1.511   2.688 -0.1245 -0.2085  0.0361
30296SOD    SOD95622   4.234   2.435   1.734  0.2843 -0.6156 -0.1161
30297SOD    SOD95623   1.188   6.809   5.499  0.0621 -0.3193  0.1894
30298SOD    SOD95624   7.326   7.474   5.672 -0.4224 -0.4918 -0.2436
30299SOD    SOD95625   3.499   4.325   2.750 -0.4142  0.3324  0.4803
30300SOD    SOD95626   0.077   2.746   4.135  0.2292  0.1213  0.1191
30301SOD    SOD95627   1.572   8.586   0.785  0.2771 -0.4423 -0.0547
30302SOD    SOD95628   9.686   5.121   2.468  0.4595  0.0855  0.3573
30303SOD    SOD95629   2.284   5.826   1.372  0.5665 -0.1798 -0.0412
30304SOD    SOD95630   0.486   8.604   5.367 -0.5182 -0.0629  0.1126
30305SOD    SOD95631   6.865   2.488   3.533  0.2652  0.5100  0.0015
30306SOD    SOD95632   8.581   5.756   7.055  0.5494 -0.4974 -0.0689
30307SOD    SOD95633   4.342   9.329   8.828  0.3440 -0.0282 -0.3601
30308SOD    SOD95634   5.767   6.084   7.950  0.6850  0.0288 -0.7358
30309SOD    SOD95635   2.092   7.491   8.559 -0.1262 -0.2628 -0.1548
30310SOD    SOD95636   6.440   4.968   9.585 -0.5757 -0.4712  0.0475
30311SOD    SOD95637   4.719   7.523   8.150  0.3709  0.2949 -0.1348
30312SOD    SOD95638   7.719   3.297   8.498 -0.0088  0.2730 -0.1900
30313SOD    SOD95639   5.451   1.227   1.751  0.4632 -0.5349 -0.2705
30314SOD    SOD95640   1.771   5.371   9.273  0.3735 -0.0760 -0.5516
30315SOD    SOD95641   8.065   5.370   0.290  0.3329 -0.0596 -0.3166
30316SOD    SOD95642   8.380   2.484   2.841 -0.0642  0.3848 -0.0593
30317SOD    SOD95643   1.642   9.650   8.354 -0.3152 -0.1578  0.8044
30318SOD    SOD95644   8.227   4.339   0.514 -0.1059  0.3907  0.0670
30319SOD    SOD95645   1.873   3.289   4.399 -0.5913 -0.2599 -0.3929
30320SOD    SOD95646   0.421   3.576   3.933  0.5406  0.3385  0.2360
30321SOD    SOD95647   3.209   0.248   5.931 -0.3695 -0.5396 -0.0283
30322SOD    SOD95648   9.753   0.470   5.238  0.7696 -0.4257  0.0205
30323SOD    SOD95649   6.862   2.827   1.516  0.1918  0.0917  0.0848
30324SOD    SOD95650   9.297   9.246   8.060  0.2778 -0.2282 -0.6098
30325SOD    SOD95651   1.683   1.415   2.780 -0.1829 -0.3474  0.1055
30326SOD    SOD95652   2.712   8.626   4.245 -0.3309 -0.1887  0.1384
30327SOD    SOD95653   4.135   4.482   5.590 -0.5602 -0.4969  0.2592
30328SOD    SOD95654   1.931   8.786   6.514  0.3440 -0.0048 -0.1411
30329SOD    SOD95655   0.655   2.679   4.892  0.0424  0.4290  0.5124
30330SOD    SOD95656   1.726   7.484   4.955  0.2959  0.1205  0.1122
30331SOD    SOD95657   8.597   7.824   4.868 -0.0607 -0.3241 -0.0836
30332SOD    SOD95658   8.759   2.962   7.113 -0.4279 -0.1747  0.2432
30333SOD    SOD95659   9.357   4.079   6.635 -0.1357 -0.2364  0.0604
30334SOD    SOD95660   3.309   2.782   9.689 -0.0318 -0.6128  0.3058
30335SOD    SOD95661   6.720   5.528   4.913  0.0093 -0.1641  0.1116
30336SOD    SOD95662   4.379   4.227   7.027  0.2588 -0.2634  0.3055
30337SOD    SOD95663   3.865   6.878   7.335 -0.4614  0.0942 -0.1423
30338SOD    SOD95664   1.508   3.295   9.347  0.2208  0.1859 -0.5688
30339SOD    SOD95665   5.876   4.577   9.506  0.0712 -0.0688  0.1729
30340SOD    SOD95666   3.595   0.777   8.070  0.2619  0.0530  0.7946
30341SOD    SOD95667   3.058   0.538   8.298 -0.1489 -0.5664 -0.1684
30342SOD    SOD95668   3.286   0.422   0.750  0.3914 -0.0072  0.6023
30343SOD    SOD95669   8.153   0.654   0.030 -0.0008 -0.1106  0.0292
30344SOD    SOD95670   0.802   2.221   6.081 -0.2573  0.2184  0.0067
30345SOD    SOD95671   5.723   4.379   3.258  0.6241  0.3730 -0.0763
30346SOD    SOD95672   2.255   4.200   8.180  0.4221  0.2147  0.1165
30347SOD    SOD95673   8.637   4.046   2.575 -0.2839  0.0295 -0.6755
30348SOD    SOD95674   6.286   3.057   7.216 -0.0958 -0.0120 -0.5486
30349SOD    SOD95675   8.836   9.416   8.883  0.1410 -0.1283  0.2835
30350SOD    SOD95676   2.399   1.112   9.434  0.4354  0.0070 -0.0344
30351SOD    SOD95677   5.828   4.393   0.369 -0.1821  0.2733  0.1780
30352SOD    SOD95678   8.628   4.695   5.658 -0.0989  0.5907  0.0989
30353SOD    SOD95679   5.492   0.634   5.755 -0.7398 -1.0825 -0.0046
30354SOD    SOD95680   1.273   6.303   9.282  0.1684 -0.3151  0.2675
30355SOD    SOD95681   5.300   9.596   2.261  0.6340  0.0579 -0.2267
30356SOD    SOD95682   8.668   5.679   8.684  0.1333  0.2013 -0.5763
30357SOD    SOD95683   8.988   3.760   4.929 -0.5966  0.0553 -0.3060
30358SOD    SOD95684   7.861   1.381   4.334 -0.0353 -0.3452  0.0778
30359SOD    SOD95685   3.814   6.016   7.890 -0.0117  0.1389 -0.2332
30360SOD    SOD95686   5.977   3.442   7.777 -0.2142  0.6097 -0.7987
30361SOD    SOD95687   6.529   3.895   0.633 -0.1678  0.0664  0.1984
30362SOD    SOD95688   7.528   2.072   5.258 -0.1945 -0.4234 -0.5578
30363SOD    SOD95689   3.023   3.830   5.498 -0.1238  0.0145 -0.0060
30364SOD    SOD95690   7.287   4.112   8.690 -0.2370 -0.0418 -0.0013
30365SOD    SOD95691   1.455   4.027   6.520  0.2931 -0.1053 -0.1690
30366SOD    SOD95692   1.007   1.094   6.025 -0.0455  0.2909 -0.3130
30367SOD    SOD95693   0.767   8.851   7.153 -0.3964  0.1721 -0.0965
30368SOD    SOD95694   6.703   8.860   8.121  0.4051 -0.1123 -0.5507
30369SOD    SOD95695   7.240   7.199   8.271  0.5500 -0.0106  0.0618
30370SOD    SOD95696   7.925   8.389   1.834  0.1104 -0.0799  0.1871
30371SOD    SOD95697   7.741   4.735   6.527 -0.2790  0.3898 -0.2253
30372SOD    SOD95698   3.242   8.179   2.829 -0.3054 -0.7765  0.3397
30373SOD    SOD95699   7.699   0.447   3.383  0.1723 -0.6162  0.3836
30374SOD    SOD95700   2.803   6.359   6.082  0.3351 -0.0977 -0.1177
30375SOD    SOD95701   8.044   4.075   5.224  0.1392 -0.0986 -0.1642
30376SOD    SOD95702   8.730   4.564   3.173  0.2264  0.1169  0.0679
30377SOD    SOD95703   7.167   3.223   7.579 -0.6500  0.3282  0.1333
30378SOD    SOD95704   4.210   3.810   2.843  0.3535 -0.2126  0.4081
30379SOD    SOD95705   0.649   5.063   5.123 -0.0023 -0.2934 -0.2147
30380SOD    SOD95706   6.506   8.908   6.352  0.3108 -0.6194  0.5407
30381SOD    SOD95707   7.124   1.243   1.174 -0.3108 -0.1370 -0.6027
30382SOD    SOD95708   3.707   0.875   5.151  0.1827  0.3151  0.1898
30383SOD    SOD95709   0.559   8.693   1.036  0.3411  0.4219  0.4117
30384SOD    SOD95710   3.395   7.206   6.713  0.3892 -0.0429 -0.5084
30385SOD    SOD95711   5.741   3.213   5.145 -0.1032  0.4044 -0.2184
30386SOD    SOD95712   8.360   5.377   4.881 -0.2346  0.4453 -0.1195
30387SOD    SOD95713   9.370   0.624   2.837  0.2211  0.7370 -0.3570
30388SOD    SOD95714   5.301   5.689   9.682  0.0869 -0.0928  0.0998
30389SOD    SOD95715   4.373   0.915   4.558  0.0440  0.3277  0.2781
30390SOD    SOD95716   9.362   4.890   4.513 -0.2857  0.0401  0.2751
30391SOD    SOD95717   4.670   7.285   0.651 -0.3778  0.2688  0.3289
30392SOD    SOD95718   3.867   2.062   8.133  0.0691 -0.3950  0.2836
30393SOD    SOD95719   6.255   2.863   2.335 -0.4263  0.1729 -0.1181
30394SOD    SOD95720   3.440   5.266   1.699 -0.5762 -0.4268 -0.0687
30395SOD    SOD95721   7.549   6.442   5.456 -0.4716 -0.1447  0.1936
30396SOD    SOD95722   2.849   5.093   3.447  0.0910 -0.0510 -0.2554
30397SOD    SOD95723   8.747   6.059   9.034  0.0480 -0.0281 -0.2644
30398SOD    SOD95724   5.439   8.411   0.440  0.5070 -0.2537 -0.3821
30399SOD    SOD95725   3.721   2.766   1.873  0.1694  0.2695 -0.1772
30400SOD    SOD95726   9.110   9.754   4.036 -0.2003 -0.4594  0.4530
30401SOD    SOD95727   4.015   3.828   5.573  0.4322 -0.1463 -0.5657
30402SOD    SOD95728   6.945   7.263   1.087  0.4157  0.0422  0.5617
30403SOD    SOD95729   1.008   9.351   5.390  0.2687 -0.4795  0.0466
30404SOD    SOD95730   8.205   3.125   3.225  0.3674  0.0026  0.2622
30405SOD    SOD95731   2.107   8.047   2.993 -0.2556  0.1039  0.2044
30406SOD    SOD95732   6.267   0.822   7.469  0.5870 -0.1555  0.0555
30407SOD    SOD95733   2.815   4.271   1.906 -0.4732  0.5410  0.0073
30408SOD    SOD95734   5.326   5.097   2.551  0.9028  0.2055 -0.1716
30409SOD    SOD95735   9.144   7.325   5.466 -0.2698  0.5990 -0.2246
30410SOD    SOD95736   1.562   1.203   1.660  0.1574  0.0650  0.4038
30411SOD    SOD95737   6.928   3.580   1.859 -0.8939  0.4091 -0.3223
30412SOD    SOD95738   3.638   7.430   8.900  0.6352 -0.2572  0.0218
30413SOD    SOD95739   2.457   3.716   5.851  0.1711 -0.5471 -0.2750
30414SOD    SOD95740   7.783   5.534   5.157 -0.0749 -0.1319 -0.2790
30415SOD    SOD95741   2.396   4.477   7.227  0.2782  0.0046 -0.4622
30416SOD    SOD95742   0.443   3.084   9.064 -0.1544 -0.4856 -0.0550
30417SOD    SOD95743   1.184   3.533   7.806 -0.2273 -0.4773 -0.1225
30418SOD    SOD95744   8.909   5.134   8.492 -0.2923  0.1101  0.1104
30419SOD    SOD95745   9.002   2.980   2.078 -0.2144  0.3462  0.1806
30420SOD    SOD95746   9.162   6.512   7.713 -0.1983 -0.3330  0.2081
30421SOD    SOD95747   9.220   8.818   9.093  0.1471 -0.3212 -0.1180
30422SOD    SOD95748   8.256   5.096   6.280  0.0525  0.1069 -0.2414
30423SOD    SOD95749   2.262   8.602   8.789 -0.1642 -0.1005 -0.4580
30424SOD    SOD95750   4.462   1.892   9.084 -0.1288 -0.2221  0.1119
30425SOD    SOD95751   8.501   5.436   3.749  0.6553 -0.0530 -0.1605
30426SOD    SOD95752   3.117   9.457   8.994  0.2491 -0.0980 -0.0580
30427SOD    SOD95753   1.432   5.764   2.993  0.1275  0.2145 -0.0610
30428SOD    SOD95754   7.189   2.698   6.630 -0.3863  0.3448 -0.2995
30429SOD    SOD95755   3.613   7.952   7.495 -0.2141 -0.4796 -0.8168
30430SOD    SOD95756   3.875   8.935   1.556  0.1077 -0.4844  0.8080
30431SOD    SOD95757   1.479   8.913   3.562 -0.1227 -0.3985 -0.2959
30432SOD    SOD95758   4.410   3.776   9.113  0.0455  0.5209 -0.7499
30433SOD    SOD95759   7.727   1.907   4.261  0.1619  0.1827 -0.2511
30434SOD    SOD95760   6.102   1.379   2.751 -0.2382 -0.0700  0.1825
30435SOD    SOD95761   0.367   2.476   8.426 -0.2747  0.1912  0.2956
30436SOD    SOD95762   4.589   7.611   5.403  0.1855 -0.0961  0.4898
30437SOD    SOD95763   7.636   6.607   7.938 -0.0694  0.0223 -0.4826
30438SOD    SOD95764   9.640   2.274   3.943  0.4611  0.4671 -0.7006
30439SOD    SOD95765   0.905   5.128   0.500 -0.5014  0.2687  0.6668
30440SOD    SOD95766   8.004   1.859   8.029  0.3465 -0.2258 -0.0004
30441SOD    SOD95767   5.856   3.178   8.696  0.2444  0.3671 -0.2348
30442SOD    SOD95768   3.484   3.041   7.053 -0.4574 -0.1690  0.3468
30443SOD    SOD95769   2.192   0.804   0.510 -0.0568 -0.1451 -0.0882
30444SOD    SOD95770   6.683   1.350   2.308  0.1754  0.1002 -0.2987
30445SOD    SOD95771   1.777   1.042   0.780  0.6475 -0.1817 -0.3451
30446SOD    SOD95772   4.072   6.792   8.351 -0.3565 -0.4686  0.0367
30447SOD    SOD95773   2.629   1.612   5.027 -0.6346 -0.0810 -0.1211
30448SOD    SOD95774   5.524   4.515   7.894 -0.6594  0.7380  0.2323
30449SOD    SOD95775   4.159   3.915   4.597  0.0424  0.1792 -0.4024
30450SOD    SOD95776   4.280   2.877   5.240 -0.1420  0.5225 -0.1084
30451SOD    SOD95777   2.070   4.870   0.906  0.3587 -0.3828  0.1606
30452SOD    SOD95778   2.896   5.697   9.009  0.2515  0.2078 -0.1835
30453SOD    SOD95779   3.994   1.295   6.799  0.0692 -0.4861 -0.0873
30454SOD    SOD95780   7.689   1.694   1.480  0.2000 -0.2576  0.0794
30455SOD    SOD95781   2.918   9.477   7.187 -0.0129 -0.3013  0.1263
30456SOD    SOD95782   7.687   7.652   1.235  0.1100  0.2422  0.1706
30457SOD    SOD95783   2.789   2.146   0.075 -0.1564  0.0899  0.1058
30458SOD    SOD95784   8.785   6.937   6.968 -0.1462  0.1625 -0.1016
30459SOD    SOD95785   7.900   3.868   0.041 -0.0732 -0.2870  0.2707
30460SOD    SOD95786   7.949   6.322   3.780  0.2509  0.4331 -0.1466
30461SOD    SOD95787   0.597   4.459   1.512  0.3361 -0.0068 -0.0084
30462SOD    SOD95788   1.922   2.593   8.639  0.0509 -0.2050 -0.5490
30463SOD    SOD95789   2.525   5.475   5.039  0.3067 -0.4178 -0.4117
30464SOD    SOD95790   9.297   5.439   7.755  0.1239 -0.2066  0.2124
30465SOD    SOD95791   8.576   8.350   3.766 -0.3764 -0.3068  0.0140
30466SOD    SOD95792   4.464   4.635   9.188  0.2450 -0.5403 -0.1761
30467SOD    SOD95793   5.184   2.369   9.577  0.2227  0.4467  0.2048
30468SOD    SOD95794   7.694   1.505   9.149  0.5671  0.6061 -0.3640
30469SOD    SOD95795   1.790   8.435   2.698 -0.2812  0.0559 -0.3015
30470SOD    SOD95796   9.411   1.540   1.999 -0.0473 -0.3053  0.1478
30471SOD    SOD95797   9.112   5.625   0.888 -0.0290  0.5131  0.5032
30472SOD    SOD95798   5.929   7.012   7.502  0.5804 -0.0884 -0.1462
30473SOD    SOD95799   7.202   3.582   4.447 -0.4003  0.0794 -0.2033
30474SOD    SOD95800   6.177   0.900   0.559  0.2124  0.0926 -0.6689
30475SOD    SOD95801   8.506   8.097   2.631  0.0077 -0.2378 -0.1746
30476SOD    SOD95802   9.408   7.325   2.760  0.1043  0.3237 -0.5420
30477SOD    SOD95803   7.376   3.046   5.416  0.5764  0.0143 -0.3840
30478SOD    SOD95804   5.295   6.614   4.422 -0.5261  0.3852 -0.3455
30479SOD    SOD95805   7.680   6.751   0.661 -0.1643 -0.2026  0.3222
30480SOD    SOD95806   8.996   4.658   0.136  0.0097 -0.0436 -0.0455
30481SOD    SOD95807   8.508   6.320   1.787  0.0770 -0.4824  0.4987
30482SOD    SOD95808   1.046   3.517   2.528 -0.1385 -0.0518 -0.1406
30483SOD    SOD95809   6.149   5.394   4.891 -0.3529 -0.4129  0.0822
30484SOD    SOD95810   1.646   5.256   3.620  0.3318 -0.3477 -0.5784
30485SOD    SOD95811   9.278   5.179   6.088 -0.1641  0.2067 -0.6161
30486SOD    SOD95812   7.420   3.836   6.987  0.3188 -0.6216 -0.0431
30487SOD    SOD95813   5.753   8.161   0.851 -0.2867  0.3664 -0.2756
30488SOD    SOD95814   5.924   8.326   1.625  0.1141 -0.1407 -0.0331
30489SOD    SOD95815   2.215   4.099   5.395 -0.1666 -0.2618 -0.0601
30490SOD    SOD95816   6.286   2.942   1.575 -0.1846 -0.7521 -0.0799
30491SOD    SOD95817   3.191   8.451   1.340  0.0144  0.1455 -0.1934
30492SOD    SOD95818   8.125   7.280   9.341  0.3701  0.2317  0.4105
30493SOD    SOD95819   9.307   8.070   7.376 -0.1722 -0.6646 -0.5614
30494SOD    SOD95820   6.218   4.827   4.873 -0.1060  0.1201 -0.3463
30495SOD    SOD95821   8.314   4.800   8.333  0.0820  0.0050 -0.0067
30496SOD    SOD95822   7.660   8.231   1.165 -0.2036 -0.2575 -0.3080
30497SOD    SOD95823   1.035   0.256   3.804  0.2861 -0.2514  0.0326
30498SOD    SOD95824   8.971   6.603   3.796 -0.2161 -0.5297 -0.0917
30499SOD    SOD95825   0.904   8.335   3.068 -0.0267 -0.0157 -0.9006
30500SOD    SOD95826   9.579   9.446   9.707  0.3636 -0.4208 -0.0639
30501SOD    SOD95827   0.833   6.816   4.510  0.2480 -0.5019 -0.0336
30502SOD    SOD95828   1.113   8.532   8.470  0.6764  0.0848  0.1351
30503SOD    SOD95829   5.315   1.791   9.207  0.6118  0.2259  0.5067
30504SOD    SOD95830   0.482   0.193   3.115  0.1107 -0.2578 -0.0496
30505SOD    SOD95831   2.636   5.421   2.328 -0.5239 -0.2679 -0.1906
30506SOD    SOD95832   6.898   4.066   2.365  0.4901 -0.4275  0.2735
30507SOD    SOD95833   8.486   8.308   0.399 -0.1899 -0.1726  0.3246
30508SOD    SOD95834   3.130   3.215   7.609 -0.0849 -0.2179  0.1913
30509SOD    SOD95835   9.531   7.301   2.189  0.4623  0.1888 -0.1168
30510SOD    SOD95836   5.670   3.718   9.351  0.3387 -0.1849  0.3361
30511SOD    SOD95837   3.589   0.065   9.462  0.0216  0.5079  0.1568
30512SOD    SOD95838   2.008   1.078   7.726  0.2779 -0.1602 -0.1946
30513SOD    SOD95839   9.145   1.936   1.331 -0.2730 -0.8362 -0.5733
30514SOD    SOD95840   8.303   9.154   5.992  0.2223  0.1671  0.5907
30515SOD    SOD95841   2.166   4.827   8.668 -0.0095 -0.1611  0.8611
30516SOD    SOD95842   4.461   6.862   4.748 -0.0648 -0.1024  0.3907
30517SOD    SOD95843   9.102   9.411   1.840  0.2579 -0.4242  0.4514
30518SOD    SOD95844   4.740   8.259   0.809 -0.3273 -0.7195 -0.3915
30519SOD    SOD95845   7.051   2.557   5.143  0.0423  0.3077  0.0125
30520SOD    SOD95846   9.503   6.319   1.464  0.6567  0.0472  0.2858
30521SOD    SOD95847   4.166   8.196   0.682 -0.1023  0.5885  0.6157
30522SOD    SOD95848   2.691   7.608   0.466 -0.8323 -0.8527 -0.3419
30523SOD    SOD95849   9.565   7.974   1.369  0.3572 -0.3023  0.6359
30524SOD    SOD95850   0.464   2.151   5.638 -0.5932 -0.0360  0.2872
30525SOD    SOD95851   8.745   1.419   2.594  0.0960 -0.5840  0.5202
30526SOD    SOD95852   4.381   0.096   9.447 -0.1882  0.1847  0.0787
30527SOD    SOD95853   5.226   7.643   6.862  0.2188  0.4003 -0.5470
30528SOD    SOD95854   1.324   7.393   7.155  0.7725  0.1734 -0.3153
30529SOD    SOD95855   0.515   2.131   1.372  0.1699 -0.0484 -0.3545
30530SOD    SOD95856   6.272   4.146   5.001 -0.6057 -0.5539 -0.6478
30531SOD    SOD95857   5.396   3.744   7.572  0.2323  0.1829 -0.2469
30532SOD    SOD95858   3.327   4.275   0.627  0.1119  0.8927 -0.5060
30533SOD    SOD95859   4.903   0.910   1.616 -0.3173 -0.0999 -0.0920
30534SOD    SOD95860   7.145   5.841   7.376 -0.3010 -0.5467 -0.3449
30535SOD    SOD95861   0.570   1.969   0.757  0.4777  0.1915  0.3186
30536SOD    SOD95862   1.366   2.613   4.575  0.1062 -0.0394  0.1667
30537SOD    SOD95863   5.151   0.655   3.425 -0.3098 -0.5065 -0.0132
30538SOD    SOD95864   1.202   5.496   7.374  0.1460 -0.2463 -0.6717
30539SOD    SOD95865   5.864   0.517   4.014 -0.2366  0.1912  0.2087
30540SOD    SOD95866   0.235   5.376   9.509 -0.1725  0.4922 -0.2884
30541SOD    SOD95867   5.970   0.086   5.710  0.0333 -0.6251 -0.7850
30542SOD    SOD95868   4.303   4.481   2.016  0.4117  0.3544 -0.3298
30543SOD    SOD95869   1.150   3.207   3.468 -0.0432 -0.5121 -0.2799
30544SOD    SOD95870   2.190   9.434   8.721  0.0459 -0.0830  0.4778
30545SOD    SOD95871   7.339   9.659   6.296 -0.4417 -0.3010 -0.0646
30546SOD    SOD95872   2.635   3.023   7.959 -0.3060  0.9414 -0.0543
30547SOD    SOD95873   1.943   1.464   2.282  0.1052 -0.3741 -0.5242
30548SOD    SOD95874   3.006   8.750   3.653  0.0485  0.1619 -0.1589
30549SOD    SOD95875   7.955   1.582   6.303 -0.0742 -0.1566 -0.0656
30550SOD    SOD95876   2.352   4.493   4.287  0.1251  0.1708  0.6055
30551SOD    SOD95877   7.913   4.429   7.602 -0.3478  0.4124 -0.2943
30552SOD    SOD95878   2.074   0.385   6.199  0.1503  0.0631  0.7034
30553SOD    SOD95879   9.142   2.505   5.290  0.2870 -0.1509 -0.3039
30554SOD    SOD95880   7.564   1.914   3.685 -0.2411  0.0042 -0.0864
30555SOD    SOD95881   7.639   8.072   5.409 -0.1905  0.5089  0.4740
30556SOD    SOD95882   2.220   9.073   0.107  0.0914  0.3895 -0.0609
30557SOD    SOD95883   0.079   7.333   7.538 -0.2563 -0.1631 -0.4196
30558SOD    SOD95884   2.638   8.293   7.760  0.2756 -0.0116  0.5651
30559SOD    SOD95885   8.684   3.823   4.220  0.5286 -0.0726  0.2803
30560SOD    SOD95886   3.906   1.977   4.181  0.0602 -0.0984  0.0234
30561SOD    SOD95887   5.397   2.720   0.933 -0.5570  0.4219 -0.4212
30562SOD    SOD95888   3.114   5.852   5.661 -0.1052 -0.0299 -0.6888
30563SOD    SOD95889   9.689   7.518   5.843 -0.0690 -0.3465  0.1369
30564SOD    SOD95890   0.761   0.235   0.329 -0.4039 -0.0343  0.6294
30565SOD    SOD95891   9.697   7.517   3.956  0.0757  0.3393  0.2572
30566SOD    SOD95892   0.500   0.634   6.539  0.0284  0.1714 -0.2513
30567SOD    SOD95893   3.648   2.044   3.132 -0.1967  0.0231  0.1884
30568SOD    SOD95894   2.815   6.039   7.602  0.6686  0.2620  0.1157
30569SOD    SOD95895   4.597   3.954   0.416  0.0706 -0.1468 -0.1017
30570SOD    SOD95896   7.763   6.741   3.043  0.4245  0.3339 -0.2555
30571SOD    SOD95897   1.377   5.805   1.607  0.2938 -0.6135 -0.5765
30572SOD    SOD95898   8.854   1.758   2.944 -0.0005 -0.1350  0.2594
30573SOD    SOD95899   4.982   9.472   0.794 -0.6914  0.3829  0.3155
30574SOD    SOD95900   3.947   8.815   9.145  0.4450 -0.0587 -0.6592
30575SOD    SOD95901   6.058   3.463   3.045 -0.4295  0.2397 -0.1635
30576SOD    SOD95902   5.657   7.653   5.477  0.1204  0.4969  0.0007
30577SOD    SOD95903   7.094   4.731   5.631  0.1170 -0.1483  0.6620
30578SOD    SOD95904   6.431   6.872   5.961 -0.2648 -0.1492 -0.4484
30579SOD    SOD95905   0.240   3.335   2.218  0.0032  0.0053  0.2389
30580SOD    SOD95906   8.642   6.575   6.422  0.1718 -0.2161  0.3874
30581SOD    SOD95907   6.482   0.132   4.465  0.1110  0.0518  0.7628
30582SOD    SOD95908   0.389   4.139   9.203 -0.0573 -0.5582  0.3199
30583SOD    SOD95909   1.573   3.925   5.692  0.0142  0.0986  0.0989
30584SOD    SOD95910   0.643   1.529   2.870  0.1196 -0.7040 -0.4185
30585SOD    SOD95911   5.920   1.756   8.119  0.0322  0.1743  0.3516
30586SOD    SOD95912   4.530   6.365   8.482 -0.5029 -0.4572 -0.6890
30587SOD    SOD95913   1.858   7.335   1.197 -0.5022 -0.1192  0.5562
30588SOD    SOD95914   9.041   6.332   4.404  0.5926  0.0730 -0.4617
30589SOD    SOD95915   6.314   5.970   8.667 -0.4869  0.0106 -0.3500
30590SOD    SOD95916   3.873   1.490   8.559 -0.7561 -0.5046 -0.4012
30591SOD    SOD95917   2.955   7.543   5.593  0.2989 -0.4630 -0.0340
30592SOD    SOD95918   4.861   0.926   6.194 -0.0806  0.1098 -0.2397
30593SOD    SOD95919   3.322   3.905   9.427 -0.1308  0.2851 -0.1116
30594SOD    SOD95920   8.347   1.145   1.006 -0.0769 -0.1177  0.1685
30595SOD    SOD95921   9.700   6.514   3.885 -0.5161 -0.0883 -0.3280
30596SOD    SOD95922   1.057   0.812   5.298 -0.3010  0.2822  0.7785
30597SOD    SOD95923   5.424   2.168   1.161  0.0676 -0.1409  0.2963
30598SOD    SOD95924   4.908   0.351   8.489  0.3933  0.1874  1.0689
30599SOD    SOD95925   2.355   7.062   1.079 -0.3569  0.4521  0.4065
30600SOD    SOD95926   6.754   5.901   3.299  0.2422  0.2524  0.0418
30601SOD    SOD95927   2.203   7.951   3.600  0.2261  0.5681 -0.2662
30602SOD    SOD95928   8.435   4.838   1.103  0.2790 -0.2109 -0.1672
30603SOD    SOD95929   1.265   6.976   8.982 -0.5897  0.2217  0.2302
30604SOD    SOD95930   4.744   6.532   0.753  0.1800  0.1825 -0.0023
30605SOD    SOD95931   2.404   1.271   1.521 -0.5959 -0.2917  0.5688
30606SOD    SOD95932   4.549   3.128   6.805 -0.5821 -0.1155 -0.2879
30607SOD    SOD95933   5.950   2.274   4.188 -0.0409 -0.1546 -0.2861
30608SOD    SOD95934   2.675   9.337   5.993  0.6025  0.0296 -0.9483
30609SOD    SOD95935   7.587   6.621   1.814 -0.1201  0.1137  0.2230
30610SOD    SOD95936   0.021   8.315   4.328 -0.0754 -0.3266 -0.1523
30611SOD    SOD95937   7.112   6.183   9.206 -0.2299  0.1454  0.5009
30612SOD    SOD95938   1.204   3.562   1.498  0.5532 -0.0142  0.2775
30613SOD    SOD95939   8.124   7.765   7.117 -0.4915  0.0439 -0.3273
30614SOD    SOD95940   9.039   2.013   7.811  0.3275 -0.1126  0.2982
30615SOD    SOD95941   1.246   7.421   3.640 -0.5217  0.0909 -0.8403
30616SOD    SOD95942   1.269   6.120   7.325 -0.3224 -0.2118 -0.0180
30617SOD    SOD95943   7.413   7.306   4.719 -0.2729  0.3927  0.1782
30618SOD    SOD95944   6.500   3.015   6.116 -0.5646  0.2109 -0.0433
30619SOD    SOD95945   1.932   6.380   8.445 -0.1403  0.4071  0.2802
30620SOD    SOD95946   7.457   7.753   4.335  0.3298  0.2876  0.0769
30621SOD    SOD95947   1.183   7.807   2.037 -0.3272 -0.3346 -0.2889
30622SOD    SOD95948   5.117   0.951   2.735  0.0599  0.1869  0.2114
30623SOD    SOD95949   2.632   6.012   8.237 -0.5210  0.5725 -0.3790
30624SOD    SOD95950   7.115   1.451   2.524  0.4496  0.1135 -0.0075
30625SOD    SOD95951   8.850   9.393   4.442 -0.0031 -0.1610  0.8435
30626SOD    SOD95952   0.212   0.109   6.895 -0.6844  0.4056 -0.5742
30627SOD    SOD95953   1.061   1.611   2.124  0.4575 -0.0771  0.0411
30628SOD    SOD95954   0.007   2.775   1.566 -0.1238 -0.3768  0.1312
30629SOD    SOD95955   8.200   2.624   8.115  0.3186  0.3713 -0.3686
30630SOD    SOD95956   6.653   9.013   5.266 -0.1802 -0.3109 -0.1052
30631SOD    SOD95957   6.911   0.961   3.284  0.5039 -0.5836 -0.0670
30632SOD    SOD95958   6.376   9.119   8.781 -0.3857  0.1747 -0.4746
30633SOD    SOD95959   5.585   6.423   0.106  0.1149  0.2709 -0.2877
30634SOD    SOD95960   0.421   8.220   9.074 -0.2031 -0.4911  0.4675
30635SOD    SOD95961   7.538   9.230   1.867  0.6396  0.2669 -0.2739
30636SOD    SOD95962   4.731   8.241   8.830 -0.0378 -0.4286  0.6097
30637SOD    SOD95963   2.364   2.283   2.142  0.3754 -0.3813  0.0445
30638SOD    SOD95964   7.226   3.572   8.722 -0.6535  0.1962  0.4713
30639SOD    SOD95965   3.029   5.032   0.451 -0.0147 -0.4266 -0.1552
30640SOD    SOD95966   7.173   5.371   6.801 -0.4274 -0.0266  0.6361
30641SOD    SOD95967   5.105   2.994   8.081 -0.2169 -0.4497  0.1646
30642SOD    SOD95968   2.798   5.384   7.658 -0.2138  0.1274 -0.1714
30643SOD    SOD95969   2.813   8.674   6.464  0.3937  0.3852  0.3816
   9.75573   9.75573   9.75573
