;
;	File 'topol.top' was generated
;	By user: laxr9773 (102392)
;	On host: bask-pg-login02.cluster.baskerville.ac.uk
;	At date: Wed Jun  5 14:53:27 2024
;
;	This is a standalone topology file
;
;	Created by:
;	                    :-) GROMACS - gmx pdb2gmx, 2023.1 (-:
;	
;	Executable:   /bask/apps/live/EL8-ice/software/GROMACS/2023.1-foss-2022a-CUDA-11.7.0/bin/gmx
;	Data prefix:  /bask/apps/live/EL8-ice/software/GROMACS/2023.1-foss-2022a-CUDA-11.7.0
;	Working dir:  /bask/projects/m/mnli6000-diamond-glb/laxr9773/GROMACS/MIXSOLVMD/XRAY/Tar/Git_test
;	Command line:
;	  gmx pdb2gmx -f 4z9j_dry.pdb -o pdb_converted.gro -ignh
;	Force field was read from the standard GROMACS share directory.
;

; Include forcefield parameters
#include "charmm36-jul2022.ff/forcefield.itp"

; Include ligand topologies
#include  "../ligpar/topol_lig.itp"

; Include water topology
#include "charmm36-jul2022.ff/tip3p.itp"

#ifdef POSRES_WATER
; Position restraint for each water oxygen
[ position_restraints ]
;  i funct       fcx        fcy        fcz
   1    1       1000       1000       1000
#endif

; Include topology for ions
#include "charmm36-jul2022.ff/ions.itp"

[ system ]
; Name
METHYL-ACCEPTING CHEMOTAXIS PROTEIN II in water

[ molecules ]
; Compound        #mols
LIG               404
SOL         29835
SOD              404
